
  ___ ___ ___ _ _ _  
 |   |   |_  | | | | 
 | | | | | . | | | | 
 |__ |  _|___|_____|  22.8.0
 |___|_|             

User:   s204775@a024.nifl.fysik.dtu.dk
Date:   Tue Oct  3 01:23:10 2023
Arch:   x86_64
Pid:    179964
CWD:    /home/cat/s204775/projects/Bachelor_project/isolated_molecules
Python: 3.10.4
gpaw:   /home/modules/software/GPAW/22.8.0-intel-2022a/lib/python3.10/site-packages/gpaw
_gpaw:  /home/modules/software/GPAW/22.8.0-intel-2022a/lib/python3.10/site-packages/
        _gpaw.cpython-310-x86_64-linux-gnu.so
ase:    /home/modules/software/ASE/3.22.1-intel-2022a/lib/python3.10/site-packages/ase (version 3.22.1)
numpy:  /home/modules/software/SciPy-bundle/2022.05-intel-2022a/lib/python3.10/site-packages/numpy (version 1.22.3)
scipy:  /home/modules/software/SciPy-bundle/2022.05-intel-2022a/lib/python3.10/site-packages/scipy (version 1.8.1)
libxc:  5.2.3
units:  Angstrom and eV
cores: 40
OpenMP: False
OMP_NUM_THREADS: 1

Input parameters:
  basis: dzp
  convergence: {eigenstates: 1e-06}
  h: 0.18
  xc: PBE

System changes: positions, numbers, cell, pbc, initial_charges, initial_magmoms 

Initialize ...

species:
  O:
    name: Oxygen
    id: 32ecd46bf208036f09c70b0ec9a88b78
    Z: 8.0
    valence: 6
    core: 2
    charge: 0.0
    file: /home/modules/software/GPAW-setups/0.9.20000/O.PBE.gz
    compensation charges: {type: gauss,
                           rc: 0.21,
                           lmax: 2}
    cutoffs: {filter: 1.17,
              core: 0.83}
    valence states:
      #              energy  rcut
      - 2s(2.00)   -23.961   0.688
      - 2p(4.00)    -9.029   0.598
      -  s           3.251   0.688
      -  p          18.182   0.598
      -  d           0.000   0.619
  
    # LCAO basis set for O:
    #   Name: dzp
    #   File: /home/modules/software/GPAW-setups/0.9.20000/O.dzp.basis.gz
    #   Number of radial functions: 5
    #   Number of spherical harmonics: 13
    #     l=0, rc=4.3438 Bohr: 2s-sz confined orbital
    #     l=1, rc=5.3906 Bohr: 2p-sz confined orbital
    #     l=0, rc=2.2969 Bohr: 2s-dz split-valence wave
    #     l=1, rc=2.8906 Bohr: 2p-dz split-valence wave
    #     l=2, rc=5.3906 Bohr: d-type Gaussian polarization
    #   Number of RI-basis functions 0

  C:
    name: Carbon
    id: 4aa54d4b901d75f77cc0ea3eec22967b
    Z: 6.0
    valence: 4
    core: 2
    charge: 0.0
    file: /home/modules/software/GPAW-setups/0.9.20000/C.PBE.gz
    compensation charges: {type: gauss,
                           rc: 0.20,
                           lmax: 2}
    cutoffs: {filter: 1.14,
              core: 1.14}
    valence states:
      #              energy  rcut
      - 2s(2.00)   -13.751   0.635
      - 2p(2.00)    -5.284   0.635
      -  s          13.461   0.635
      -  p          21.927   0.635
      -  d           0.000   0.635
  
    # LCAO basis set for C:
    #   Name: dzp
    #   File: /home/modules/software/GPAW-setups/0.9.20000/C.dzp.basis.gz
    #   Number of radial functions: 5
    #   Number of spherical harmonics: 13
    #     l=0, rc=5.5469 Bohr: 2s-sz confined orbital
    #     l=1, rc=6.6719 Bohr: 2p-sz confined orbital
    #     l=0, rc=3.0312 Bohr: 2s-dz split-valence wave
    #     l=1, rc=3.7500 Bohr: 2p-dz split-valence wave
    #     l=2, rc=6.6719 Bohr: d-type Gaussian polarization
    #   Number of RI-basis functions 0

Reference energy: -5109.332718  # eV

Spin-paired calculation

Convergence criteria:
 Maximum [total energy] change in last 3 cyles: 0.0005 eV / electron
 Maximum integral of absolute [dens]ity change: 0.0001 electrons / valence electron
 Maximum integral of absolute [eigenst]ate change: 1e-06 eV^2 / valence electron
 Maximum number of scf [iter]ations: 333
 (Square brackets indicate name in SCF output, whereas a 'c' in
 the SCF output indicates the quantity has converged.)

Symmetries present (total): 8

  ( 1  0  0)  ( 1  0  0)  ( 1  0  0)  ( 1  0  0)  ( 1  0  0)  ( 1  0  0)
  ( 0  1  0)  ( 0  1  0)  ( 0  0  1)  ( 0  0  1)  ( 0  0 -1)  ( 0  0 -1)
  ( 0  0  1)  ( 0  0 -1)  ( 0  1  0)  ( 0 -1  0)  ( 0  1  0)  ( 0 -1  0)

  ( 1  0  0)  ( 1  0  0)
  ( 0 -1  0)  ( 0 -1  0)
  ( 0  0  1)  ( 0  0 -1)

1 k-point (Gamma)
1 k-point in the irreducible part of the Brillouin zone
       k-points in crystal coordinates                weights
   0:     0.00000000    0.00000000    0.00000000          1/1

Wave functions: Uniform real-space grid
  Kinetic energy operator: 6*3+1=19 point O(h^6) finite-difference Laplacian
  ScaLapack parameters: grid=1x1, blocksize=None
  Wavefunction extrapolation:
    Improved wavefunction reuse through dual PAW basis 

Occupation numbers: # Zero width 

Eigensolver
   Davidson(niter=2) 

Densities:
  Coarse grid: 112*112*112 grid
  Fine grid: 224*224*224 grid
  Total Charge: 0.000000 

Density mixing:
  Method: separate
  Backend: pulay
  Linear mixing parameter: 0.25
  old densities: 3
  Damping of long wavelength oscillations: 1  # (no daming) 

Hamiltonian:
  XC and Coulomb potentials evaluated on a 224*224*224 grid
  Using the PBE Exchange-Correlation functional
  Interpolation: tri-quintic (5. degree polynomial)
  Poisson solver: FastPoissonSolver using
    Stencil: 6*3+1=19 point O(h^6) finite-difference Laplacian
    FFT axes: []
    FST axes: [0, 1, 2]
 

XC parameters: PBE with 2 nearest neighbor stencil

Memory estimate:
  Process memory now: 181.82 MiB
  Calculator: 19.82 MiB
    Density: 8.22 MiB
      Arrays: 6.65 MiB
      Localized functions: 0.07 MiB
      Mixer: 1.50 MiB
    Hamiltonian: 4.35 MiB
      Arrays: 4.35 MiB
      XC: 0.00 MiB
      Poisson: 0.00 MiB
      vbar: 0.01 MiB
    Wavefunctions: 7.25 MiB
      Arrays psit_nG: 2.99 MiB
      Eigensolver: 4.25 MiB
      Projections: 0.00 MiB
      Projectors: 0.01 MiB

Total number of cores used: 40
Domain decomposition: 5 x 4 x 2

Number of atoms: 3
Number of atomic orbitals: 39
Number of bands in calculation: 12
Number of valence electrons: 16
Bands to converge: occupied

... initialized

Initializing position-dependent things.

Density initialized from atomic densities
Creating initial wave functions:
  12 bands from LCAO basis set

             .------------------------------------------------.  
            /|                                                |  
           / |                                                |  
          /  |                                                |  
         /   |                                                |  
        /    |                                                |  
       /     |                                                |  
      /      |                                                |  
     /       |                                                |  
    /        |                                                |  
   /         |                                                |  
  /          |                                                |  
 *           |                                                |  
 |           |                                                |  
 |           |                                                |  
 |           |                                                |  
 |           |                                                |  
 |           |                                                |  
 |           |                                                |  
 |           |                 O  C  O                        |  
 |           |                                                |  
 |           |                                                |  
 |           |                                                |  
 |           |                                                |  
 |           |                                                |  
 |           .------------------------------------------------.  
 |          /                                                /   
 |         /                                                /    
 |        /                                                /     
 |       /                                                /      
 |      /                                                /       
 |     /                                                /        
 |    /                                                /         
 |   /                                                /          
 |  /                                                /           
 | /                                                /            
 |/                                                /             
 *------------------------------------------------*              

Positions:
   0 O     10.000000   10.000000   10.000000    ( 0.0000,  0.0000,  0.0000)
   1 C     11.170000   10.000000   10.000000    ( 0.0000,  0.0000,  0.0000)
   2 O     12.340000   10.000000   10.000000    ( 0.0000,  0.0000,  0.0000)

Unit cell:
           periodic     x           y           z      points  spacing
  1. axis:    no    20.000000    0.000000    0.000000   112     0.1786
  2. axis:    no     0.000000   20.000000    0.000000   112     0.1786
  3. axis:    no     0.000000    0.000000   20.000000   112     0.1786

  Lengths:  20.000000  20.000000  20.000000
  Angles:   90.000000  90.000000  90.000000

Effective grid spacing dv^(1/3) = 0.1786

     iter     time        total  log10-change:
                         energy  eigst   dens
iter:   1 01:23:12   -24.551309   +nan
iter:   2 01:23:13   -23.816820  +0.31  -0.99
iter:   3 01:23:14   -23.793450  -0.08  -1.26
iter:   4 01:23:15   -23.794325  -0.94  -1.46
iter:   5 01:23:15   -23.791759c -1.53  -2.25
iter:   6 01:23:16   -23.790898c -2.01  -2.42
iter:   7 01:23:17   -23.790652c -2.48  -2.66
iter:   8 01:23:18   -23.790654c -3.16  -3.16
iter:   9 01:23:19   -23.790641c -3.61  -3.28
iter:  10 01:23:20   -23.790643c -4.22  -3.76
iter:  11 01:23:21   -23.790643c -4.89  -4.13c
iter:  12 01:23:22   -23.790643c -5.31  -4.32c
iter:  13 01:23:23   -23.790643c -5.73  -4.91c
iter:  14 01:23:23   -23.790643c -6.27c -5.17c

Converged after 14 iterations.

Dipole moment: (-0.000059, -0.000000, -0.000000) |e|*Ang

Energy contributions relative to reference atoms: (reference = -5109.332718)

Kinetic:        +28.037055
Potential:      -32.472096
External:        +0.000000
XC:             -20.379108
Entropy (-ST):   +0.000000
Local:           +1.023506
--------------------------
Free energy:    -23.790643
Extrapolated:   -23.790643

 Band  Eigenvalues  Occupancy
    0    -29.09971    2.00000
    1    -28.08360    2.00000
    2    -13.84075    2.00000
    3    -12.68740    2.00000
    4    -12.68490    2.00000
    5    -12.68490    2.00000
    6     -9.08670    2.00000
    7     -9.08670    2.00000
    8     -0.96091    0.00000
    9     -0.48264    0.00000
   10     -0.48261    0.00000
   11      0.58748    0.00000

Fermi level: -5.02380

Gap: 8.126 eV
Transition (v -> c):
  (s=0, k=0, n=7, [0.00, 0.00, 0.00]) -> (s=0, k=0, n=8, [0.00, 0.00, 0.00])

Forces in eV/Ang:
  0 O    -0.16036   -0.00000    0.00000
  1 C    -0.03673    0.00000    0.00000
  2 O     0.05111    0.00000    0.00000

      Step     Time          Energy         fmax
BFGS:    0 01:23:23      -23.790643        0.1604
System changes: positions 

Initializing position-dependent things.

Density initialized from wave functions
             .------------------------------------------------.  
            /|                                                |  
           / |                                                |  
          /  |                                                |  
         /   |                                                |  
        /    |                                                |  
       /     |                                                |  
      /      |                                                |  
     /       |                                                |  
    /        |                                                |  
   /         |                                                |  
  /          |                                                |  
 *           |                                                |  
 |           |                                                |  
 |           |                                                |  
 |           |                                                |  
 |           |                                                |  
 |           |                                                |  
 |           |                                                |  
 |           |                 O  C  O                        |  
 |           |                                                |  
 |           |                                                |  
 |           |                                                |  
 |           |                                                |  
 |           |                                                |  
 |           .------------------------------------------------.  
 |          /                                                /   
 |         /                                                /    
 |        /                                                /     
 |       /                                                /      
 |      /                                                /       
 |     /                                                /        
 |    /                                                /         
 |   /                                                /          
 |  /                                                /           
 | /                                                /            
 |/                                                /             
 *------------------------------------------------*              

Positions:
   0 O      9.997709   10.000000   10.000000    ( 0.0000,  0.0000,  0.0000)
   1 C     11.169475   10.000000   10.000000    ( 0.0000,  0.0000,  0.0000)
   2 O     12.340730   10.000000   10.000000    ( 0.0000,  0.0000,  0.0000)

Unit cell:
           periodic     x           y           z      points  spacing
  1. axis:    no    20.000000    0.000000    0.000000   112     0.1786
  2. axis:    no     0.000000   20.000000    0.000000   112     0.1786
  3. axis:    no     0.000000    0.000000   20.000000   112     0.1786

  Lengths:  20.000000  20.000000  20.000000
  Angles:   90.000000  90.000000  90.000000

Effective grid spacing dv^(1/3) = 0.1786

     iter     time        total  log10-change:
                         energy  eigst   dens
iter:   1 01:23:24   -23.790941  -3.01
iter:   2 01:23:25   -23.790827  -3.62  -3.04
iter:   3 01:23:26   -23.790820c -4.08  -3.45
iter:   4 01:23:27   -23.790818c -4.67  -3.66
iter:   5 01:23:28   -23.790817c -5.22  -3.88
iter:   6 01:23:29   -23.790817c -5.85  -4.53c
iter:   7 01:23:30   -23.790817c -6.43c -4.75c

Converged after 7 iterations.

Dipole moment: (0.000513, 0.000000, 0.000000) |e|*Ang

Energy contributions relative to reference atoms: (reference = -5109.332718)

Kinetic:        +27.648205
Potential:      -32.165289
External:        +0.000000
XC:             -20.296209
Entropy (-ST):   +0.000000
Local:           +1.022476
--------------------------
Free energy:    -23.790817
Extrapolated:   -23.790817

 Band  Eigenvalues  Occupancy
    0    -29.08232    2.00000
    1    -28.06597    2.00000
    2    -13.84923    2.00000
    3    -12.68790    2.00000
    4    -12.67174    2.00000
    5    -12.67174    2.00000
    6     -9.08595    2.00000
    7     -9.08595    2.00000
    8     -0.97946    0.00000
    9     -0.50904    0.00000
   10     -0.50903    0.00000
   11      0.47359    0.00000

Fermi level: -5.03271

Gap: 8.106 eV
Transition (v -> c):
  (s=0, k=0, n=7, [0.00, 0.00, 0.00]) -> (s=0, k=0, n=8, [0.00, 0.00, 0.00])

Forces in eV/Ang:
  0 O     0.02494    0.00000    0.00000
  1 C    -0.08354   -0.00000    0.00000
  2 O    -0.09057   -0.00000    0.00000

BFGS:    1 01:23:30      -23.790817        0.0906
System changes: positions 

Initializing position-dependent things.

Density initialized from wave functions
             .------------------------------------------------.  
            /|                                                |  
           / |                                                |  
          /  |                                                |  
         /   |                                                |  
        /    |                                                |  
       /     |                                                |  
      /      |                                                |  
     /       |                                                |  
    /        |                                                |  
   /         |                                                |  
  /          |                                                |  
 *           |                                                |  
 |           |                                                |  
 |           |                                                |  
 |           |                                                |  
 |           |                                                |  
 |           |                                                |  
 |           |                                                |  
 |           |                 O  C  O                        |  
 |           |                                                |  
 |           |                                                |  
 |           |                                                |  
 |           |                                                |  
 |           |                                                |  
 |           .------------------------------------------------.  
 |          /                                                /   
 |         /                                                /    
 |        /                                                /     
 |       /                                                /      
 |      /                                                /       
 |     /                                                /        
 |    /                                                /         
 |   /                                                /          
 |  /                                                /           
 | /                                                /            
 |/                                                /             
 *------------------------------------------------*              

Positions:
   0 O      9.997201   10.000000   10.000000    ( 0.0000,  0.0000,  0.0000)
   1 C     11.168285   10.000000   10.000000    ( 0.0000,  0.0000,  0.0000)
   2 O     12.339898   10.000000   10.000000    ( 0.0000,  0.0000,  0.0000)

Unit cell:
           periodic     x           y           z      points  spacing
  1. axis:    no    20.000000    0.000000    0.000000   112     0.1786
  2. axis:    no     0.000000   20.000000    0.000000   112     0.1786
  3. axis:    no     0.000000    0.000000   20.000000   112     0.1786

  Lengths:  20.000000  20.000000  20.000000
  Angles:   90.000000  90.000000  90.000000

Effective grid spacing dv^(1/3) = 0.1786

     iter     time        total  log10-change:
                         energy  eigst   dens
iter:   1 01:23:31   -23.790951  -3.61
iter:   2 01:23:32   -23.790949  -4.28  -3.57
iter:   3 01:23:33   -23.790948c -4.86  -3.75
iter:   4 01:23:33   -23.790948c -5.16  -3.93
iter:   5 01:23:34   -23.790948c -5.86  -4.60c
iter:   6 01:23:35   -23.790948c -6.43c -4.76c

Converged after 6 iterations.

Dipole moment: (-0.000634, -0.000000, -0.000000) |e|*Ang

Energy contributions relative to reference atoms: (reference = -5109.332718)

Kinetic:        +27.691740
Potential:      -32.201011
External:        +0.000000
XC:             -20.305301
Entropy (-ST):   +0.000000
Local:           +1.023624
--------------------------
Free energy:    -23.790948
Extrapolated:   -23.790948

 Band  Eigenvalues  Occupancy
    0    -29.08420    2.00000
    1    -28.06786    2.00000
    2    -13.84821    2.00000
    3    -12.68775    2.00000
    4    -12.67313    2.00000
    5    -12.67313    2.00000
    6     -9.08600    2.00000
    7     -9.08600    2.00000
    8     -0.98040    0.00000
    9     -0.50618    0.00000
   10     -0.50617    0.00000
   11      0.42724    0.00000

Fermi level: -5.03320

Gap: 8.106 eV
Transition (v -> c):
  (s=0, k=0, n=7, [0.00, 0.00, 0.00]) -> (s=0, k=0, n=8, [0.00, 0.00, 0.00])

Forces in eV/Ang:
  0 O    -0.04576    0.00000    0.00000
  1 C     0.01218    0.00000    0.00000
  2 O    -0.11817   -0.00000    0.00000

BFGS:    2 01:23:35      -23.790948        0.1182
System changes: positions 

Initializing position-dependent things.

Density initialized from wave functions
             .------------------------------------------------.  
            /|                                                |  
           / |                                                |  
          /  |                                                |  
         /   |                                                |  
        /    |                                                |  
       /     |                                                |  
      /      |                                                |  
     /       |                                                |  
    /        |                                                |  
   /         |                                                |  
  /          |                                                |  
 *           |                                                |  
 |           |                                                |  
 |           |                                                |  
 |           |                                                |  
 |           |                                                |  
 |           |                                                |  
 |           |                                                |  
 |           |                 O  C  O                        |  
 |           |                                                |  
 |           |                                                |  
 |           |                                                |  
 |           |                                                |  
 |           |                                                |  
 |           .------------------------------------------------.  
 |          /                                                /   
 |         /                                                /    
 |        /                                                /     
 |       /                                                /      
 |      /                                                /       
 |     /                                                /        
 |    /                                                /         
 |   /                                                /          
 |  /                                                /           
 | /                                                /            
 |/                                                /             
 *------------------------------------------------*              

Positions:
   0 O      9.989028   10.000000   10.000000    ( 0.0000,  0.0000,  0.0000)
   1 C     11.157687   10.000000   10.000000    ( 0.0000,  0.0000,  0.0000)
   2 O     12.327958   10.000000   10.000000    ( 0.0000,  0.0000,  0.0000)

Unit cell:
           periodic     x           y           z      points  spacing
  1. axis:    no    20.000000    0.000000    0.000000   112     0.1786
  2. axis:    no     0.000000   20.000000    0.000000   112     0.1786
  3. axis:    no     0.000000    0.000000   20.000000   112     0.1786

  Lengths:  20.000000  20.000000  20.000000
  Angles:   90.000000  90.000000  90.000000

Effective grid spacing dv^(1/3) = 0.1786

     iter     time        total  log10-change:
                         energy  eigst   dens
iter:   1 01:23:36   -23.792757  -1.50
iter:   2 01:23:37   -23.791063  -2.06  -2.49
iter:   3 01:23:38   -23.791094c -2.80  -2.96
iter:   4 01:23:39   -23.791102c -3.22  -3.15
iter:   5 01:23:40   -23.791106c -3.66  -3.55
iter:   6 01:23:41   -23.791108c -4.26  -4.04c
iter:   7 01:23:41   -23.791108c -4.80  -4.09c
iter:   8 01:23:42   -23.791108c -5.31  -4.17c
iter:   9 01:23:43   -23.791108c -5.80  -4.98c
iter:  10 01:23:44   -23.791108c -6.26c -5.18c

Converged after 10 iterations.

Dipole moment: (-0.001877, -0.000000, -0.000000) |e|*Ang

Energy contributions relative to reference atoms: (reference = -5109.332718)

Kinetic:        +28.175387
Potential:      -32.580436
External:        +0.000000
XC:             -20.408669
Entropy (-ST):   +0.000000
Local:           +1.022609
--------------------------
Free energy:    -23.791108
Extrapolated:   -23.791108

 Band  Eigenvalues  Occupancy
    0    -29.10596    2.00000
    1    -28.08947    2.00000
    2    -13.83783    2.00000
    3    -12.68956    2.00000
    4    -12.68956    2.00000
    5    -12.68734    2.00000
    6     -9.08693    2.00000
    7     -9.08693    2.00000
    8     -0.97311    0.00000
    9     -0.47328    0.00000
   10     -0.47328    0.00000
   11      0.39437    0.00000

Fermi level: -5.03002

Gap: 8.114 eV
Transition (v -> c):
  (s=0, k=0, n=7, [0.00, 0.00, 0.00]) -> (s=0, k=0, n=8, [0.00, 0.00, 0.00])

Forces in eV/Ang:
  0 O    -0.25049    0.00000    0.00000
  1 C     0.16034    0.00000    0.00000
  2 O     0.12710    0.00000    0.00000

BFGS:    3 01:23:44      -23.791108        0.2505
System changes: positions 

Initializing position-dependent things.

Density initialized from wave functions
             .------------------------------------------------.  
            /|                                                |  
           / |                                                |  
          /  |                                                |  
         /   |                                                |  
        /    |                                                |  
       /     |                                                |  
      /      |                                                |  
     /       |                                                |  
    /        |                                                |  
   /         |                                                |  
  /          |                                                |  
 *           |                                                |  
 |           |                                                |  
 |           |                                                |  
 |           |                                                |  
 |           |                                                |  
 |           |                                                |  
 |           |                                                |  
 |           |                 O  C  O                        |  
 |           |                                                |  
 |           |                                                |  
 |           |                                                |  
 |           |                                                |  
 |           |                                                |  
 |           .------------------------------------------------.  
 |          /                                                /   
 |         /                                                /    
 |        /                                                /     
 |       /                                                /      
 |      /                                                /       
 |     /                                                /        
 |    /                                                /         
 |   /                                                /          
 |  /                                                /           
 | /                                                /            
 |/                                                /             
 *------------------------------------------------*              

Positions:
   0 O      9.990224   10.000000   10.000000    ( 0.0000,  0.0000,  0.0000)
   1 C     11.160626   10.000000   10.000000    ( 0.0000,  0.0000,  0.0000)
   2 O     12.331949   10.000000   10.000000    ( 0.0000,  0.0000,  0.0000)

Unit cell:
           periodic     x           y           z      points  spacing
  1. axis:    no    20.000000    0.000000    0.000000   112     0.1786
  2. axis:    no     0.000000   20.000000    0.000000   112     0.1786
  3. axis:    no     0.000000    0.000000   20.000000   112     0.1786

  Lengths:  20.000000  20.000000  20.000000
  Angles:   90.000000  90.000000  90.000000

Effective grid spacing dv^(1/3) = 0.1786

     iter     time        total  log10-change:
                         energy  eigst   dens
iter:   1 01:23:46   -23.791650  -2.55
iter:   2 01:23:46   -23.791519  -3.21  -3.00
iter:   3 01:23:47   -23.791517c -3.76  -3.36
iter:   4 01:23:48   -23.791516c -4.29  -3.58
iter:   5 01:23:49   -23.791517c -4.77  -3.89
iter:   6 01:23:50   -23.791517c -5.37  -4.49c
iter:   7 01:23:51   -23.791517c -5.92  -4.60c
iter:   8 01:23:52   -23.791517c -6.39c -4.87c

Converged after 8 iterations.

Dipole moment: (-0.001107, 0.000000, 0.000000) |e|*Ang

Energy contributions relative to reference atoms: (reference = -5109.332718)

Kinetic:        +27.817485
Potential:      -32.299784
External:        +0.000000
XC:             -20.332143
Entropy (-ST):   +0.000000
Local:           +1.022925
--------------------------
Free energy:    -23.791517
Extrapolated:   -23.791517

 Band  Eigenvalues  Occupancy
    0    -29.08975    2.00000
    1    -28.07339    2.00000
    2    -13.84546    2.00000
    3    -12.68761    2.00000
    4    -12.67732    2.00000
    5    -12.67732    2.00000
    6     -9.08621    2.00000
    7     -9.08621    2.00000
    8     -0.97889    0.00000
    9     -0.49766    0.00000
   10     -0.49766    0.00000
   11      0.38428    0.00000

Fermi level: -5.03255

Gap: 8.107 eV
Transition (v -> c):
  (s=0, k=0, n=7, [0.00, 0.00, 0.00]) -> (s=0, k=0, n=8, [0.00, 0.00, 0.00])

Forces in eV/Ang:
  0 O    -0.08085   -0.00000    0.00000
  1 C     0.08390    0.00000    0.00000
  2 O    -0.00483   -0.00000    0.00000

BFGS:    4 01:23:52      -23.791517        0.0839
System changes: positions 

Initializing position-dependent things.

Density initialized from wave functions
             .------------------------------------------------.  
            /|                                                |  
           / |                                                |  
          /  |                                                |  
         /   |                                                |  
        /    |                                                |  
       /     |                                                |  
      /      |                                                |  
     /       |                                                |  
    /        |                                                |  
   /         |                                                |  
  /          |                                                |  
 *           |                                                |  
 |           |                                                |  
 |           |                                                |  
 |           |                                                |  
 |           |                                                |  
 |           |                                                |  
 |           |                                                |  
 |           |                 O  C  O                        |  
 |           |                                                |  
 |           |                                                |  
 |           |                                                |  
 |           |                                                |  
 |           |                                                |  
 |           .------------------------------------------------.  
 |          /                                                /   
 |         /                                                /    
 |        /                                                /     
 |       /                                                /      
 |      /                                                /       
 |     /                                                /        
 |    /                                                /         
 |   /                                                /          
 |  /                                                /           
 | /                                                /            
 |/                                                /             
 *------------------------------------------------*              

Positions:
   0 O      9.990310   10.000000   10.000000    ( 0.0000,  0.0000,  0.0000)
   1 C     11.161433   10.000000   10.000000    ( 0.0000,  0.0000,  0.0000)
   2 O     12.332582   10.000000   10.000000    ( 0.0000,  0.0000,  0.0000)

Unit cell:
           periodic     x           y           z      points  spacing
  1. axis:    no    20.000000    0.000000    0.000000   112     0.1786
  2. axis:    no     0.000000   20.000000    0.000000   112     0.1786
  3. axis:    no     0.000000    0.000000   20.000000   112     0.1786

  Lengths:  20.000000  20.000000  20.000000
  Angles:   90.000000  90.000000  90.000000

Effective grid spacing dv^(1/3) = 0.1786

     iter     time        total  log10-change:
                         energy  eigst   dens
iter:   1 01:23:53   -23.791554  -3.94
iter:   2 01:23:54   -23.791545  -4.42  -3.54
iter:   3 01:23:55   -23.791544c -5.10  -3.82
iter:   4 01:23:56   -23.791544c -5.44  -3.96
iter:   5 01:23:57   -23.791544c -6.04c -4.45c

Converged after 5 iterations.

Dipole moment: (-0.000120, 0.000000, 0.000000) |e|*Ang

Energy contributions relative to reference atoms: (reference = -5109.332718)

Kinetic:        +27.747377
Potential:      -32.244376
External:        +0.000000
XC:             -20.317078
Entropy (-ST):   +0.000000
Local:           +1.022534
--------------------------
Free energy:    -23.791544
Extrapolated:   -23.791544

 Band  Eigenvalues  Occupancy
    0    -29.08656    2.00000
    1    -28.07033    2.00000
    2    -13.84702    2.00000
    3    -12.68772    2.00000
    4    -12.67497    2.00000
    5    -12.67497    2.00000
    6     -9.08611    2.00000
    7     -9.08611    2.00000
    8     -0.98003    0.00000
    9     -0.50249    0.00000
   10     -0.50249    0.00000
   11      0.38108    0.00000

Fermi level: -5.03307

Gap: 8.106 eV
Transition (v -> c):
  (s=0, k=0, n=7, [0.00, 0.00, 0.00]) -> (s=0, k=0, n=8, [0.00, 0.00, 0.00])

Forces in eV/Ang:
  0 O    -0.00872    0.00000    0.00000
  1 C    -0.00213   -0.00000    0.00000
  2 O     0.00521    0.00000    0.00000

BFGS:    5 01:23:57      -23.791544        0.0087
System changes: numbers, positions 

Initialize ...

species:
  H:
    name: Hydrogen
    id: d65de229564ff8ea4db303e23b6d1ecf
    Z: 1.0
    valence: 1
    core: 0
    charge: 0.0
    file: /home/modules/software/GPAW-setups/0.9.20000/H.PBE.gz
    compensation charges: {type: gauss,
                           rc: 0.15,
                           lmax: 2}
    cutoffs: {filter: 0.85,
              core: 0.53}
    valence states:
      #              energy  rcut
      - 1s(1.00)    -6.494   0.476
      -  s          20.717   0.476
      -  p           0.000   0.476
  
    # LCAO basis set for H:
    #   Name: dzp
    #   File: /home/modules/software/GPAW-setups/0.9.20000/H.dzp.basis.gz
    #   Number of radial functions: 3
    #   Number of spherical harmonics: 5
    #     l=0, rc=6.4219 Bohr: 1s-sz confined orbital
    #     l=0, rc=3.6094 Bohr: 1s-dz split-valence wave
    #     l=1, rc=6.4219 Bohr: p-type Gaussian polarization
    #   Number of RI-basis functions 0

Reference energy: -24.980324  # eV

Spin-paired calculation

Convergence criteria:
 Maximum [total energy] change in last 3 cyles: 0.0005 eV / electron
 Maximum integral of absolute [dens]ity change: 0.0001 electrons / valence electron
 Maximum integral of absolute [eigenst]ate change: 1e-06 eV^2 / valence electron
 Maximum number of scf [iter]ations: 333
 (Square brackets indicate name in SCF output, whereas a 'c' in
 the SCF output indicates the quantity has converged.)

Symmetries present (total): 8

  ( 1  0  0)  ( 1  0  0)  ( 1  0  0)  ( 1  0  0)  ( 1  0  0)  ( 1  0  0)
  ( 0  1  0)  ( 0  1  0)  ( 0  0  1)  ( 0  0  1)  ( 0  0 -1)  ( 0  0 -1)
  ( 0  0  1)  ( 0  0 -1)  ( 0  1  0)  ( 0 -1  0)  ( 0  1  0)  ( 0 -1  0)

  ( 1  0  0)  ( 1  0  0)
  ( 0 -1  0)  ( 0 -1  0)
  ( 0  0  1)  ( 0  0 -1)

1 k-point (Gamma)
1 k-point in the irreducible part of the Brillouin zone
       k-points in crystal coordinates                weights
   0:     0.00000000    0.00000000    0.00000000          1/1

Wave functions: Uniform real-space grid
  Kinetic energy operator: 6*3+1=19 point O(h^6) finite-difference Laplacian
  ScaLapack parameters: grid=1x1, blocksize=None
  Wavefunction extrapolation:
    Improved wavefunction reuse through dual PAW basis 

Occupation numbers: # Zero width 

Eigensolver
   Davidson(niter=2) 

Densities:
  Coarse grid: 112*112*112 grid
  Fine grid: 224*224*224 grid
  Total Charge: 0.000000 

Density mixing:
  Method: separate
  Backend: pulay
  Linear mixing parameter: 0.25
  old densities: 3
  Damping of long wavelength oscillations: 1  # (no daming) 

Hamiltonian:
  XC and Coulomb potentials evaluated on a 224*224*224 grid
  Using the PBE Exchange-Correlation functional
  Interpolation: tri-quintic (5. degree polynomial)
  Poisson solver: FastPoissonSolver using
    Stencil: 6*3+1=19 point O(h^6) finite-difference Laplacian
    FFT axes: []
    FST axes: [0, 1, 2]
 

XC parameters: PBE with 2 nearest neighbor stencil

Memory estimate:
  Process memory now: 422.47 MiB
  Calculator: 14.75 MiB
    Density: 8.16 MiB
      Arrays: 6.65 MiB
      Localized functions: 0.02 MiB
      Mixer: 1.50 MiB
    Hamiltonian: 4.35 MiB
      Arrays: 4.35 MiB
      XC: 0.00 MiB
      Poisson: 0.00 MiB
      vbar: 0.00 MiB
    Wavefunctions: 2.24 MiB
      Arrays psit_nG: 0.50 MiB
      Eigensolver: 1.75 MiB
      Projections: 0.00 MiB
      Projectors: 0.00 MiB

Total number of cores used: 40
Domain decomposition: 5 x 4 x 2

Number of atoms: 2
Number of atomic orbitals: 10
Number of bands in calculation: 2
Number of valence electrons: 2
Bands to converge: occupied

... initialized

Initializing position-dependent things.

Density initialized from atomic densities
Creating initial wave functions:
  2 bands from LCAO basis set

             .------------------------------------------------.  
            /|                                                |  
           / |                                                |  
          /  |                                                |  
         /   |                                                |  
        /    |                                                |  
       /     |                                                |  
      /      |                                                |  
     /       |                                                |  
    /        |                                                |  
   /         |                                                |  
  /          |                                                |  
 *           |                                                |  
 |           |                                                |  
 |           |                                                |  
 |           |                                                |  
 |           |                                                |  
 |           |                                                |  
 |           |                                                |  
 |           |                 H H                            |  
 |           |                                                |  
 |           |                                                |  
 |           |                                                |  
 |           |                                                |  
 |           |                                                |  
 |           .------------------------------------------------.  
 |          /                                                /   
 |         /                                                /    
 |        /                                                /     
 |       /                                                /      
 |      /                                                /       
 |     /                                                /        
 |    /                                                /         
 |   /                                                /          
 |  /                                                /           
 | /                                                /            
 |/                                                /             
 *------------------------------------------------*              

Positions:
   0 H     10.000000   10.000000   10.000000    ( 0.0000,  0.0000,  0.0000)
   1 H     10.740000   10.000000   10.000000    ( 0.0000,  0.0000,  0.0000)

Unit cell:
           periodic     x           y           z      points  spacing
  1. axis:    no    20.000000    0.000000    0.000000   112     0.1786
  2. axis:    no     0.000000   20.000000    0.000000   112     0.1786
  3. axis:    no     0.000000    0.000000   20.000000   112     0.1786

  Lengths:  20.000000  20.000000  20.000000
  Angles:   90.000000  90.000000  90.000000

Effective grid spacing dv^(1/3) = 0.1786

     iter     time        total  log10-change:
                         energy  eigst   dens
iter:   1 01:23:58    -7.233908   +nan
iter:   2 01:23:58    -6.993268  -0.21  -0.46
iter:   3 01:23:59    -6.762096  +0.22  -0.61
iter:   4 01:24:00    -6.752552  -0.96  -1.33
iter:   5 01:24:01    -6.752745  -0.84  -1.79
iter:   6 01:24:01    -6.752162c -2.05  -1.93
iter:   7 01:24:02    -6.752133c -3.97  -2.65
iter:   8 01:24:03    -6.752133c -4.25  -3.39
iter:   9 01:24:04    -6.752133c -5.22  -3.62
iter:  10 01:24:05    -6.752133c -5.60  -4.00
iter:  11 01:24:05    -6.752134c -6.10c -4.31c

Converged after 11 iterations.

Dipole moment: (-0.000001, -0.000000, 0.000000) |e|*Ang

Energy contributions relative to reference atoms: (reference = -24.980324)

Kinetic:         +6.853815
Potential:       -8.461886
External:        +0.000000
XC:              -5.127297
Entropy (-ST):   +0.000000
Local:           -0.016766
--------------------------
Free energy:     -6.752134
Extrapolated:    -6.752134

 Band  Eigenvalues  Occupancy
    0    -10.38882    2.00000
    1      0.30294    0.00000

Fermi level: -5.04294

Gap: 10.692 eV
Transition (v -> c):
  (s=0, k=0, n=0, [0.00, 0.00, 0.00]) -> (s=0, k=0, n=1, [0.00, 0.00, 0.00])

Forces in eV/Ang:
  0 H    -0.39084   -0.00000    0.00000
  1 H     0.39384    0.00000    0.00000

      Step     Time          Energy         fmax
BFGS:    0 01:24:05       -6.752134        0.3938
System changes: positions 

Initializing position-dependent things.

Density initialized from wave functions
             .------------------------------------------------.  
            /|                                                |  
           / |                                                |  
          /  |                                                |  
         /   |                                                |  
        /    |                                                |  
       /     |                                                |  
      /      |                                                |  
     /       |                                                |  
    /        |                                                |  
   /         |                                                |  
  /          |                                                |  
 *           |                                                |  
 |           |                                                |  
 |           |                                                |  
 |           |                                                |  
 |           |                                                |  
 |           |                                                |  
 |           |                                                |  
 |           |                 H H                            |  
 |           |                                                |  
 |           |                                                |  
 |           |                                                |  
 |           |                                                |  
 |           |                                                |  
 |           .------------------------------------------------.  
 |          /                                                /   
 |         /                                                /    
 |        /                                                /     
 |       /                                                /      
 |      /                                                /       
 |     /                                                /        
 |    /                                                /         
 |   /                                                /          
 |  /                                                /           
 | /                                                /            
 |/                                                /             
 *------------------------------------------------*              

Positions:
   0 H      9.994417   10.000000   10.000000    ( 0.0000,  0.0000,  0.0000)
   1 H     10.745626   10.000000   10.000000    ( 0.0000,  0.0000,  0.0000)

Unit cell:
           periodic     x           y           z      points  spacing
  1. axis:    no    20.000000    0.000000    0.000000   112     0.1786
  2. axis:    no     0.000000   20.000000    0.000000   112     0.1786
  3. axis:    no     0.000000    0.000000   20.000000   112     0.1786

  Lengths:  20.000000  20.000000  20.000000
  Angles:   90.000000  90.000000  90.000000

Effective grid spacing dv^(1/3) = 0.1786

     iter     time        total  log10-change:
                         energy  eigst   dens
iter:   1 01:24:06    -6.754299  -1.68
iter:   2 01:24:07    -6.754294  -2.88  -2.43
iter:   3 01:24:08    -6.754286c -2.61  -2.50
iter:   4 01:24:09    -6.754271c -4.06  -2.73
iter:   5 01:24:10    -6.754273c -5.10  -3.21
iter:   6 01:24:10    -6.754270c -4.50  -2.99
iter:   7 01:24:11    -6.754270c -5.70  -3.78
iter:   8 01:24:12    -6.754270c -6.06c -4.30c

Converged after 8 iterations.

Dipole moment: (0.000001, 0.000000, 0.000000) |e|*Ang

Energy contributions relative to reference atoms: (reference = -24.980324)

Kinetic:         +6.560153
Potential:       -8.267921
External:        +0.000000
XC:              -5.030866
Entropy (-ST):   +0.000000
Local:           -0.015636
--------------------------
Free energy:     -6.754270
Extrapolated:    -6.754270

 Band  Eigenvalues  Occupancy
    0    -10.33470    2.00000
    1      0.20397    0.00000

Fermi level: -5.06537

Gap: 10.539 eV
Transition (v -> c):
  (s=0, k=0, n=0, [0.00, 0.00, 0.00]) -> (s=0, k=0, n=1, [0.00, 0.00, 0.00])

Forces in eV/Ang:
  0 H     0.01069    0.00000    0.00000
  1 H    -0.00299    0.00000    0.00000

BFGS:    1 01:24:12       -6.754270        0.0107
System changes: numbers, positions 

Initialize ...

species:
  H:
    name: Hydrogen
    id: d65de229564ff8ea4db303e23b6d1ecf
    Z: 1.0
    valence: 1
    core: 0
    charge: 0.0
    file: /home/modules/software/GPAW-setups/0.9.20000/H.PBE.gz
    compensation charges: {type: gauss,
                           rc: 0.15,
                           lmax: 2}
    cutoffs: {filter: 0.85,
              core: 0.53}
    valence states:
      #              energy  rcut
      - 1s(1.00)    -6.494   0.476
      -  s          20.717   0.476
      -  p           0.000   0.476
  
    # LCAO basis set for H:
    #   Name: dzp
    #   File: /home/modules/software/GPAW-setups/0.9.20000/H.dzp.basis.gz
    #   Number of radial functions: 3
    #   Number of spherical harmonics: 5
    #     l=0, rc=6.4219 Bohr: 1s-sz confined orbital
    #     l=0, rc=3.6094 Bohr: 1s-dz split-valence wave
    #     l=1, rc=6.4219 Bohr: p-type Gaussian polarization
    #   Number of RI-basis functions 0

  O:
    name: Oxygen
    id: 32ecd46bf208036f09c70b0ec9a88b78
    Z: 8.0
    valence: 6
    core: 2
    charge: 0.0
    file: /home/modules/software/GPAW-setups/0.9.20000/O.PBE.gz
    compensation charges: {type: gauss,
                           rc: 0.21,
                           lmax: 2}
    cutoffs: {filter: 1.17,
              core: 0.83}
    valence states:
      #              energy  rcut
      - 2s(2.00)   -23.961   0.688
      - 2p(4.00)    -9.029   0.598
      -  s           3.251   0.688
      -  p          18.182   0.598
      -  d           0.000   0.619
  
    # LCAO basis set for O:
    #   Name: dzp
    #   File: /home/modules/software/GPAW-setups/0.9.20000/O.dzp.basis.gz
    #   Number of radial functions: 5
    #   Number of spherical harmonics: 13
    #     l=0, rc=4.3438 Bohr: 2s-sz confined orbital
    #     l=1, rc=5.3906 Bohr: 2p-sz confined orbital
    #     l=0, rc=2.2969 Bohr: 2s-dz split-valence wave
    #     l=1, rc=2.8906 Bohr: 2p-dz split-valence wave
    #     l=2, rc=5.3906 Bohr: d-type Gaussian polarization
    #   Number of RI-basis functions 0

Reference energy: -2065.832626  # eV

Spin-paired calculation

Convergence criteria:
 Maximum [total energy] change in last 3 cyles: 0.0005 eV / electron
 Maximum integral of absolute [dens]ity change: 0.0001 electrons / valence electron
 Maximum integral of absolute [eigenst]ate change: 1e-06 eV^2 / valence electron
 Maximum number of scf [iter]ations: 333
 (Square brackets indicate name in SCF output, whereas a 'c' in
 the SCF output indicates the quantity has converged.)

Symmetries present (total): 4

  ( 1  0  0)  ( 1  0  0)  (-1  0  0)  (-1  0  0)
  ( 0  1  0)  ( 0 -1  0)  ( 0  1  0)  ( 0 -1  0)
  ( 0  0  1)  ( 0  0  1)  ( 0  0  1)  ( 0  0  1)

1 k-point (Gamma)
1 k-point in the irreducible part of the Brillouin zone
       k-points in crystal coordinates                weights
   0:     0.00000000    0.00000000    0.00000000          1/1

Wave functions: Uniform real-space grid
  Kinetic energy operator: 6*3+1=19 point O(h^6) finite-difference Laplacian
  ScaLapack parameters: grid=1x1, blocksize=None
  Wavefunction extrapolation:
    Improved wavefunction reuse through dual PAW basis 

Occupation numbers: # Zero width 

Eigensolver
   Davidson(niter=2) 

Densities:
  Coarse grid: 112*112*112 grid
  Fine grid: 224*224*224 grid
  Total Charge: 0.000000 

Density mixing:
  Method: separate
  Backend: pulay
  Linear mixing parameter: 0.25
  old densities: 3
  Damping of long wavelength oscillations: 1  # (no daming) 

Hamiltonian:
  XC and Coulomb potentials evaluated on a 224*224*224 grid
  Using the PBE Exchange-Correlation functional
  Interpolation: tri-quintic (5. degree polynomial)
  Poisson solver: FastPoissonSolver using
    Stencil: 6*3+1=19 point O(h^6) finite-difference Laplacian
    FFT axes: []
    FST axes: [0, 1, 2]
 

XC parameters: PBE with 2 nearest neighbor stencil

Memory estimate:
  Process memory now: 433.29 MiB
  Calculator: 16.78 MiB
    Density: 8.19 MiB
      Arrays: 6.65 MiB
      Localized functions: 0.04 MiB
      Mixer: 1.50 MiB
    Hamiltonian: 4.35 MiB
      Arrays: 4.35 MiB
      XC: 0.00 MiB
      Poisson: 0.00 MiB
      vbar: 0.00 MiB
    Wavefunctions: 4.24 MiB
      Arrays psit_nG: 1.50 MiB
      Eigensolver: 2.74 MiB
      Projections: 0.00 MiB
      Projectors: 0.00 MiB

Total number of cores used: 40
Domain decomposition: 5 x 4 x 2

Number of atoms: 3
Number of atomic orbitals: 23
Number of bands in calculation: 6
Number of valence electrons: 8
Bands to converge: occupied

... initialized

Initializing position-dependent things.

Density initialized from atomic densities
Creating initial wave functions:
  6 bands from LCAO basis set

             .------------------------------------------------.  
            /|                                                |  
           / |                                                |  
          /  |                                                |  
         /   |                                                |  
        /    |                                                |  
       /     |                                                |  
      /      |                                                |  
     /       |                                                |  
    /        |                                                |  
   /         |                                                |  
  /          |                                                |  
 *           |                                                |  
 |           |                                                |  
 |           |                                                |  
 |           |                                                |  
 |           |                                                |  
 |           |                                                |  
 |           |                H  H                            |  
 |           |                 O                              |  
 |           |                                                |  
 |           |                                                |  
 |           |                                                |  
 |           |                                                |  
 |           |                                                |  
 |           .------------------------------------------------.  
 |          /                                                /   
 |         /                                                /    
 |        /                                                /     
 |       /                                                /      
 |      /                                                /       
 |     /                                                /        
 |    /                                                /         
 |   /                                                /          
 |  /                                                /           
 | /                                                /            
 |/                                                /             
 *------------------------------------------------*              

Positions:
   0 H      9.243510   10.000000   10.591035    ( 0.0000,  0.0000,  0.0000)
   1 O     10.000000   10.000000   10.000000    ( 0.0000,  0.0000,  0.0000)
   2 H     10.756490   10.000000   10.591035    ( 0.0000,  0.0000,  0.0000)

Unit cell:
           periodic     x           y           z      points  spacing
  1. axis:    no    20.000000    0.000000    0.000000   112     0.1786
  2. axis:    no     0.000000   20.000000    0.000000   112     0.1786
  3. axis:    no     0.000000    0.000000   20.000000   112     0.1786

  Lengths:  20.000000  20.000000  20.000000
  Angles:   90.000000  90.000000  90.000000

Effective grid spacing dv^(1/3) = 0.1786

     iter     time        total  log10-change:
                         energy  eigst   dens
iter:   1 01:24:13   -15.590341   +nan
iter:   2 01:24:14   -14.656115  +0.47  -0.79
iter:   3 01:24:14   -14.565412  +0.39  -1.01
iter:   4 01:24:15   -14.554111  -0.84  -1.19
iter:   5 01:24:15   -14.551704  -1.09  -2.07
iter:   6 01:24:16   -14.551831c -1.85  -2.47
iter:   7 01:24:17   -14.551782c -3.10  -2.54
iter:   8 01:24:17   -14.551824c -2.96  -2.63
iter:   9 01:24:18   -14.551780c -3.63  -2.93
iter:  10 01:24:18   -14.551791c -3.53  -3.08
iter:  11 01:24:19   -14.551786c -4.06  -3.40
iter:  12 01:24:19   -14.551786c -5.10  -3.55
iter:  13 01:24:20   -14.551785c -5.02  -3.74
iter:  14 01:24:21   -14.551785c -5.64  -4.01c
iter:  15 01:24:21   -14.551785c -5.98  -4.16c
iter:  16 01:24:22   -14.551785c -6.86c -4.72c

Converged after 16 iterations.

Dipole moment: (-0.000000, -0.000000, 0.375297) |e|*Ang

Energy contributions relative to reference atoms: (reference = -2065.832626)

Kinetic:        +17.154044
Potential:      -19.315460
External:        +0.000000
XC:             -12.878528
Entropy (-ST):   +0.000000
Local:           +0.488160
--------------------------
Free energy:    -14.551785
Extrapolated:   -14.551785

 Band  Eigenvalues  Occupancy
    0    -25.35011    2.00000
    1    -13.15975    2.00000
    2     -9.36099    2.00000
    3     -7.25854    2.00000
    4     -0.93920    0.00000
    5      0.40202    0.00000

Fermi level: -4.09887

Gap: 6.319 eV
Transition (v -> c):
  (s=0, k=0, n=3, [0.00, 0.00, 0.00]) -> (s=0, k=0, n=4, [0.00, 0.00, 0.00])

Forces in eV/Ang:
  0 H    -0.47853    0.00000    0.31441
  1 O     0.00000    0.00000   -0.63831
  2 H     0.47853    0.00000    0.31441

      Step     Time          Energy         fmax
BFGS:    0 01:24:22      -14.551785        0.6383
System changes: positions 

Initializing position-dependent things.

Density initialized from wave functions
             .------------------------------------------------.  
            /|                                                |  
           / |                                                |  
          /  |                                                |  
         /   |                                                |  
        /    |                                                |  
       /     |                                                |  
      /      |                                                |  
     /       |                                                |  
    /        |                                                |  
   /         |                                                |  
  /          |                                                |  
 *           |                                                |  
 |           |                                                |  
 |           |                                                |  
 |           |                                                |  
 |           |                                                |  
 |           |                                                |  
 |           |                H  H                            |  
 |           |                 O                              |  
 |           |                                                |  
 |           |                                                |  
 |           |                                                |  
 |           |                                                |  
 |           |                                                |  
 |           .------------------------------------------------.  
 |          /                                                /   
 |         /                                                /    
 |        /                                                /     
 |       /                                                /      
 |      /                                                /       
 |     /                                                /        
 |    /                                                /         
 |   /                                                /          
 |  /                                                /           
 | /                                                /            
 |/                                                /             
 *------------------------------------------------*              

Positions:
   0 H      9.236673   10.000000   10.595527    ( 0.0000,  0.0000,  0.0000)
   1 O     10.000000   10.000000    9.990881    ( 0.0000,  0.0000,  0.0000)
   2 H     10.763327   10.000000   10.595527    ( 0.0000,  0.0000,  0.0000)

Unit cell:
           periodic     x           y           z      points  spacing
  1. axis:    no    20.000000    0.000000    0.000000   112     0.1786
  2. axis:    no     0.000000   20.000000    0.000000   112     0.1786
  3. axis:    no     0.000000    0.000000   20.000000   112     0.1786

  Lengths:  20.000000  20.000000  20.000000
  Angles:   90.000000  90.000000  90.000000

Effective grid spacing dv^(1/3) = 0.1786

     iter     time        total  log10-change:
                         energy  eigst   dens
iter:   1 01:24:22   -14.559361  -1.32
iter:   2 01:24:23   -14.557895  -2.29  -2.28
iter:   3 01:24:23   -14.557570c -1.78  -2.46
iter:   4 01:24:24   -14.557307c -2.75  -2.69
iter:   5 01:24:25   -14.557574c -2.50  -2.90
iter:   6 01:24:25   -14.557294c -2.32  -2.70
iter:   7 01:24:26   -14.557297c -3.50  -3.53
iter:   8 01:24:26   -14.557295c -4.20  -3.64
iter:   9 01:24:27   -14.557295c -5.26  -4.02c
iter:  10 01:24:27   -14.557296c -4.42  -4.03c
iter:  11 01:24:28   -14.557295c -5.14  -3.87
iter:  12 01:24:29   -14.557295c -5.05  -4.25c
iter:  13 01:24:29   -14.557295c -5.86  -4.47c
iter:  14 01:24:30   -14.557295c -6.92c -4.99c

Converged after 14 iterations.

Dipole moment: (-0.000000, -0.000000, 0.378549) |e|*Ang

Energy contributions relative to reference atoms: (reference = -2065.832626)

Kinetic:        +15.833616
Potential:      -18.350730
External:        +0.000000
XC:             -12.527716
Entropy (-ST):   +0.000000
Local:           +0.487536
--------------------------
Free energy:    -14.557295
Extrapolated:   -14.557295

 Band  Eigenvalues  Occupancy
    0    -25.20881    2.00000
    1    -12.99550    2.00000
    2     -9.37752    2.00000
    3     -7.23274    2.00000
    4     -0.98608    0.00000
    5      0.29689    0.00000

Fermi level: -4.10941

Gap: 6.247 eV
Transition (v -> c):
  (s=0, k=0, n=3, [0.00, 0.00, 0.00]) -> (s=0, k=0, n=4, [0.00, 0.00, 0.00])

Forces in eV/Ang:
  0 H     0.04991    0.00000   -0.11669
  1 O     0.00000    0.00000    0.24682
  2 H    -0.04991    0.00000   -0.11669

BFGS:    1 01:24:30      -14.557295        0.2468
System changes: positions 

Initializing position-dependent things.

Density initialized from wave functions
             .------------------------------------------------.  
            /|                                                |  
           / |                                                |  
          /  |                                                |  
         /   |                                                |  
        /    |                                                |  
       /     |                                                |  
      /      |                                                |  
     /       |                                                |  
    /        |                                                |  
   /         |                                                |  
  /          |                                                |  
 *           |                                                |  
 |           |                                                |  
 |           |                                                |  
 |           |                                                |  
 |           |                                                |  
 |           |                                                |  
 |           |                H  H                            |  
 |           |                 O                              |  
 |           |                                                |  
 |           |                                                |  
 |           |                                                |  
 |           |                                                |  
 |           |                                                |  
 |           .------------------------------------------------.  
 |          /                                                /   
 |         /                                                /    
 |        /                                                /     
 |       /                                                /      
 |      /                                                /       
 |     /                                                /        
 |    /                                                /         
 |   /                                                /          
 |  /                                                /           
 | /                                                /            
 |/                                                /             
 *------------------------------------------------*              

Positions:
   0 H      9.237157   10.000000   10.594259    ( 0.0000,  0.0000,  0.0000)
   1 O     10.000000   10.000000    9.993567    ( 0.0000,  0.0000,  0.0000)
   2 H     10.762843   10.000000   10.594259    ( 0.0000,  0.0000,  0.0000)

Unit cell:
           periodic     x           y           z      points  spacing
  1. axis:    no    20.000000    0.000000    0.000000   112     0.1786
  2. axis:    no     0.000000   20.000000    0.000000   112     0.1786
  3. axis:    no     0.000000    0.000000   20.000000   112     0.1786

  Lengths:  20.000000  20.000000  20.000000
  Angles:   90.000000  90.000000  90.000000

Effective grid spacing dv^(1/3) = 0.1786

     iter     time        total  log10-change:
                         energy  eigst   dens
iter:   1 01:24:30   -14.557962  -2.49
iter:   2 01:24:31   -14.557896  -3.45  -2.94
iter:   3 01:24:31   -14.557882c -3.05  -3.11
iter:   4 01:24:32   -14.557871c -3.76  -3.35
iter:   5 01:24:33   -14.557878c -3.81  -3.56
iter:   6 01:24:33   -14.557870c -4.21  -3.49
iter:   7 01:24:34   -14.557870c -5.38  -4.22c
iter:   8 01:24:34   -14.557870c -5.42  -4.42c
iter:   9 01:24:35   -14.557870c -6.70c -4.57c

Converged after 9 iterations.

Dipole moment: (0.000000, 0.000000, 0.377387) |e|*Ang

Energy contributions relative to reference atoms: (reference = -2065.832626)

Kinetic:        +16.088989
Potential:      -18.537101
External:        +0.000000
XC:             -12.598168
Entropy (-ST):   +0.000000
Local:           +0.488411
--------------------------
Free energy:    -14.557870
Extrapolated:   -14.557870

 Band  Eigenvalues  Occupancy
    0    -25.23420    2.00000
    1    -13.03724    2.00000
    2     -9.36532    2.00000
    3     -7.23700    2.00000
    4     -0.97671    0.00000
    5      0.28612    0.00000

Fermi level: -4.10686

Gap: 6.260 eV
Transition (v -> c):
  (s=0, k=0, n=3, [0.00, 0.00, 0.00]) -> (s=0, k=0, n=4, [0.00, 0.00, 0.00])

Forces in eV/Ang:
  0 H    -0.04176    0.00000   -0.02398
  1 O     0.00000    0.00000    0.04668
  2 H     0.04176    0.00000   -0.02398

BFGS:    2 01:24:35      -14.557870        0.0482
System changes: numbers, positions 

Initialize ...

species:
  C:
    name: Carbon
    id: 4aa54d4b901d75f77cc0ea3eec22967b
    Z: 6.0
    valence: 4
    core: 2
    charge: 0.0
    file: /home/modules/software/GPAW-setups/0.9.20000/C.PBE.gz
    compensation charges: {type: gauss,
                           rc: 0.20,
                           lmax: 2}
    cutoffs: {filter: 1.14,
              core: 1.14}
    valence states:
      #              energy  rcut
      - 2s(2.00)   -13.751   0.635
      - 2p(2.00)    -5.284   0.635
      -  s          13.461   0.635
      -  p          21.927   0.635
      -  d           0.000   0.635
  
    # LCAO basis set for C:
    #   Name: dzp
    #   File: /home/modules/software/GPAW-setups/0.9.20000/C.dzp.basis.gz
    #   Number of radial functions: 5
    #   Number of spherical harmonics: 13
    #     l=0, rc=5.5469 Bohr: 2s-sz confined orbital
    #     l=1, rc=6.6719 Bohr: 2p-sz confined orbital
    #     l=0, rc=3.0312 Bohr: 2s-dz split-valence wave
    #     l=1, rc=3.7500 Bohr: 2p-dz split-valence wave
    #     l=2, rc=6.6719 Bohr: d-type Gaussian polarization
    #   Number of RI-basis functions 0

  O:
    name: Oxygen
    id: 32ecd46bf208036f09c70b0ec9a88b78
    Z: 8.0
    valence: 6
    core: 2
    charge: 0.0
    file: /home/modules/software/GPAW-setups/0.9.20000/O.PBE.gz
    compensation charges: {type: gauss,
                           rc: 0.21,
                           lmax: 2}
    cutoffs: {filter: 1.17,
              core: 0.83}
    valence states:
      #              energy  rcut
      - 2s(2.00)   -23.961   0.688
      - 2p(4.00)    -9.029   0.598
      -  s           3.251   0.688
      -  p          18.182   0.598
      -  d           0.000   0.619
  
    # LCAO basis set for O:
    #   Name: dzp
    #   File: /home/modules/software/GPAW-setups/0.9.20000/O.dzp.basis.gz
    #   Number of radial functions: 5
    #   Number of spherical harmonics: 13
    #     l=0, rc=4.3438 Bohr: 2s-sz confined orbital
    #     l=1, rc=5.3906 Bohr: 2p-sz confined orbital
    #     l=0, rc=2.2969 Bohr: 2s-dz split-valence wave
    #     l=1, rc=2.8906 Bohr: 2p-dz split-valence wave
    #     l=2, rc=5.3906 Bohr: d-type Gaussian polarization
    #   Number of RI-basis functions 0

Reference energy: -3068.480417  # eV

Spin-paired calculation

Convergence criteria:
 Maximum [total energy] change in last 3 cyles: 0.0005 eV / electron
 Maximum integral of absolute [dens]ity change: 0.0001 electrons / valence electron
 Maximum integral of absolute [eigenst]ate change: 1e-06 eV^2 / valence electron
 Maximum number of scf [iter]ations: 333
 (Square brackets indicate name in SCF output, whereas a 'c' in
 the SCF output indicates the quantity has converged.)

Symmetries present (total): 8

  ( 1  0  0)  ( 1  0  0)  ( 1  0  0)  ( 1  0  0)  ( 1  0  0)  ( 1  0  0)
  ( 0  1  0)  ( 0  1  0)  ( 0  0  1)  ( 0  0  1)  ( 0  0 -1)  ( 0  0 -1)
  ( 0  0  1)  ( 0  0 -1)  ( 0  1  0)  ( 0 -1  0)  ( 0  1  0)  ( 0 -1  0)

  ( 1  0  0)  ( 1  0  0)
  ( 0 -1  0)  ( 0 -1  0)
  ( 0  0  1)  ( 0  0 -1)

1 k-point (Gamma)
1 k-point in the irreducible part of the Brillouin zone
       k-points in crystal coordinates                weights
   0:     0.00000000    0.00000000    0.00000000          1/1

Wave functions: Uniform real-space grid
  Kinetic energy operator: 6*3+1=19 point O(h^6) finite-difference Laplacian
  ScaLapack parameters: grid=1x1, blocksize=None
  Wavefunction extrapolation:
    Improved wavefunction reuse through dual PAW basis 

Occupation numbers: # Zero width 

Eigensolver
   Davidson(niter=2) 

Densities:
  Coarse grid: 112*112*112 grid
  Fine grid: 224*224*224 grid
  Total Charge: 0.000000 

Density mixing:
  Method: separate
  Backend: pulay
  Linear mixing parameter: 0.25
  old densities: 3
  Damping of long wavelength oscillations: 1  # (no daming) 

Hamiltonian:
  XC and Coulomb potentials evaluated on a 224*224*224 grid
  Using the PBE Exchange-Correlation functional
  Interpolation: tri-quintic (5. degree polynomial)
  Poisson solver: FastPoissonSolver using
    Stencil: 6*3+1=19 point O(h^6) finite-difference Laplacian
    FFT axes: []
    FST axes: [0, 1, 2]
 

XC parameters: PBE with 2 nearest neighbor stencil

Memory estimate:
  Process memory now: 455.09 MiB
  Calculator: 17.79 MiB
    Density: 8.19 MiB
      Arrays: 6.65 MiB
      Localized functions: 0.05 MiB
      Mixer: 1.50 MiB
    Hamiltonian: 4.35 MiB
      Arrays: 4.35 MiB
      XC: 0.00 MiB
      Poisson: 0.00 MiB
      vbar: 0.00 MiB
    Wavefunctions: 5.25 MiB
      Arrays psit_nG: 1.99 MiB
      Eigensolver: 3.25 MiB
      Projections: 0.00 MiB
      Projectors: 0.01 MiB

Total number of cores used: 40
Domain decomposition: 5 x 4 x 2

Number of atoms: 2
Number of atomic orbitals: 26
Number of bands in calculation: 8
Number of valence electrons: 10
Bands to converge: occupied

... initialized

Initializing position-dependent things.

Density initialized from atomic densities
Creating initial wave functions:
  8 bands from LCAO basis set

             .------------------------------------------------.  
            /|                                                |  
           / |                                                |  
          /  |                                                |  
         /   |                                                |  
        /    |                                                |  
       /     |                                                |  
      /      |                                                |  
     /       |                                                |  
    /        |                                                |  
   /         |                                                |  
  /          |                                                |  
 *           |                                                |  
 |           |                                                |  
 |           |                                                |  
 |           |                                                |  
 |           |                                                |  
 |           |                                                |  
 |           |                                                |  
 |           |                 C   O                          |  
 |           |                                                |  
 |           |                                                |  
 |           |                                                |  
 |           |                                                |  
 |           |                                                |  
 |           .------------------------------------------------.  
 |          /                                                /   
 |         /                                                /    
 |        /                                                /     
 |       /                                                /      
 |      /                                                /       
 |     /                                                /        
 |    /                                                /         
 |   /                                                /          
 |  /                                                /           
 | /                                                /            
 |/                                                /             
 *------------------------------------------------*              

Positions:
   0 C     10.000000   10.000000   10.000000    ( 0.0000,  0.0000,  0.0000)
   1 O     11.430000   10.000000   10.000000    ( 0.0000,  0.0000,  0.0000)

Unit cell:
           periodic     x           y           z      points  spacing
  1. axis:    no    20.000000    0.000000    0.000000   112     0.1786
  2. axis:    no     0.000000   20.000000    0.000000   112     0.1786
  3. axis:    no     0.000000    0.000000   20.000000   112     0.1786

  Lengths:  20.000000  20.000000  20.000000
  Angles:   90.000000  90.000000  90.000000

Effective grid spacing dv^(1/3) = 0.1786

     iter     time        total  log10-change:
                         energy  eigst   dens
iter:   1 01:24:37   -13.165488   +nan
iter:   2 01:24:37   -12.812761  +0.24  -0.89
iter:   3 01:24:38   -12.654542  -0.39  -1.12
iter:   4 01:24:39   -12.623661  -0.65  -1.25
iter:   5 01:24:40   -12.617132  -1.73  -1.87
iter:   6 01:24:41   -12.614698  -1.85  -2.15
iter:   7 01:24:42   -12.614459c -2.14  -2.42
iter:   8 01:24:43   -12.614362c -3.13  -2.80
iter:   9 01:24:43   -12.614373c -3.55  -3.00
iter:  10 01:24:44   -12.614372c -3.91  -3.16
iter:  11 01:24:45   -12.614369c -5.03  -3.37
iter:  12 01:24:46   -12.614367c -5.07  -3.53
iter:  13 01:24:47   -12.614367c -5.58  -4.16c
iter:  14 01:24:48   -12.614367c -6.11c -4.37c

Converged after 14 iterations.

Dipole moment: (-0.160718, -0.000000, -0.000000) |e|*Ang

Energy contributions relative to reference atoms: (reference = -3068.480417)

Kinetic:         -4.051981
Potential:       -3.653034
External:        +0.000000
XC:              -5.442767
Entropy (-ST):   +0.000000
Local:           +0.533415
--------------------------
Free energy:    -12.614367
Extrapolated:   -12.614367

 Band  Eigenvalues  Occupancy
    0    -25.60139    2.00000
    1    -14.40431    2.00000
    2     -9.77979    2.00000
    3     -9.77979    2.00000
    4     -9.45919    2.00000
    5     -4.31572    0.00000
    6     -4.31572    0.00000
    7      0.27881    0.00000

Fermi level: -6.88746

Gap: 5.143 eV
Transition (v -> c):
  (s=0, k=0, n=4, [0.00, 0.00, 0.00]) -> (s=0, k=0, n=5, [0.00, 0.00, 0.00])

Forces in eV/Ang:
  0 C    12.58405   -0.00000    0.00000
  1 O   -12.57540   -0.00000    0.00000

      Step     Time          Energy         fmax
BFGS:    0 01:24:48      -12.614367       12.5841
System changes: positions 

Initializing position-dependent things.

Density initialized from wave functions
             .------------------------------------------------.  
            /|                                                |  
           / |                                                |  
          /  |                                                |  
         /   |                                                |  
        /    |                                                |  
       /     |                                                |  
      /      |                                                |  
     /       |                                                |  
    /        |                                                |  
   /         |                                                |  
  /          |                                                |  
 *           |                                                |  
 |           |                                                |  
 |           |                                                |  
 |           |                                                |  
 |           |                                                |  
 |           |                                                |  
 |           |                                                |  
 |           |                  C  O                          |  
 |           |                                                |  
 |           |                                                |  
 |           |                                                |  
 |           |                                                |  
 |           |                                                |  
 |           .------------------------------------------------.  
 |          /                                                /   
 |         /                                                /    
 |        /                                                /     
 |       /                                                /      
 |      /                                                /       
 |     /                                                /        
 |    /                                                /         
 |   /                                                /          
 |  /                                                /           
 | /                                                /            
 |/                                                /             
 *------------------------------------------------*              

[...]
    1    -14.15206    2.00000
    2    -11.60684    2.00000
    3    -11.60684    2.00000
    4     -9.10563    2.00000
    5     -2.30050    0.00000
    6     -2.30050    0.00000
    7     -0.03564    0.00000

Fermi level: -5.70307

Gap: 6.805 eV
Transition (v -> c):
  (s=0, k=0, n=4, [0.00, 0.00, 0.00]) -> (s=0, k=0, n=5, [0.00, 0.00, 0.00])

Forces in eV/Ang:
  0 C     2.35207    0.00000    0.00000
  1 O    -2.30759    0.00000    0.00000

BFGS:    3 01:25:23      -15.188050        2.3521
System changes: positions 

Initializing position-dependent things.

Density initialized from wave functions
             .------------------------------------------------.  
            /|                                                |  
           / |                                                |  
          /  |                                                |  
         /   |                                                |  
        /    |                                                |  
       /     |                                                |  
      /      |                                                |  
     /       |                                                |  
    /        |                                                |  
   /         |                                                |  
  /          |                                                |  
 *           |                                                |  
 |           |                                                |  
 |           |                                                |  
 |           |                                                |  
 |           |                                                |  
 |           |                                                |  
 |           |                                                |  
 |           |                  C  O                          |  
 |           |                                                |  
 |           |                                                |  
 |           |                                                |  
 |           |                                                |  
 |           |                                                |  
 |           .------------------------------------------------.  
 |          /                                                /   
 |         /                                                /    
 |        /                                                /     
 |       /                                                /      
 |      /                                                /       
 |     /                                                /        
 |    /                                                /         
 |   /                                                /          
 |  /                                                /           
 | /                                                /            
 |/                                                /             
 *------------------------------------------------*              

Positions:
   0 C     10.151364   10.000000   10.000000    ( 0.0000,  0.0000,  0.0000)
   1 O     11.279624   10.000000   10.000000    ( 0.0000,  0.0000,  0.0000)

Unit cell:
           periodic     x           y           z      points  spacing
  1. axis:    no    20.000000    0.000000    0.000000   112     0.1786
  2. axis:    no     0.000000   20.000000    0.000000   112     0.1786
  3. axis:    no     0.000000    0.000000   20.000000   112     0.1786

  Lengths:  20.000000  20.000000  20.000000
  Angles:   90.000000  90.000000  90.000000

Effective grid spacing dv^(1/3) = 0.1786

     iter     time        total  log10-change:
                         energy  eigst   dens
iter:   1 01:25:24   -15.214526  -0.83
iter:   2 01:25:25   -15.212196  -1.63  -2.04
iter:   3 01:25:26   -15.210527c -1.95  -2.20
iter:   4 01:25:27   -15.210323c -2.29  -2.54
iter:   5 01:25:28   -15.210333c -3.23  -3.00
iter:   6 01:25:29   -15.210339c -3.73  -3.19
iter:   7 01:25:29   -15.210338c -4.51  -3.76
iter:   8 01:25:30   -15.210338c -4.79  -3.97
iter:   9 01:25:31   -15.210338c -5.35  -4.40c
iter:  10 01:25:32   -15.210338c -5.72  -4.59c
iter:  11 01:25:33   -15.210338c -6.21c -4.87c

Converged after 11 iterations.

Dipole moment: (0.047550, -0.000000, -0.000000) |e|*Ang

Energy contributions relative to reference atoms: (reference = -3068.480417)

Kinetic:        +18.709320
Potential:      -22.895248
External:        +0.000000
XC:             -11.557834
Entropy (-ST):   +0.000000
Local:           +0.533424
--------------------------
Free energy:    -15.210338
Extrapolated:   -15.210338

 Band  Eigenvalues  Occupancy
    0    -29.31404    2.00000
    1    -14.13660    2.00000
    2    -11.86683    2.00000
    3    -11.86683    2.00000
    4     -9.03483    2.00000
    5     -2.00821    0.00000
    6     -2.00821    0.00000
    7     -0.04570    0.00000

Fermi level: -5.52152

Gap: 7.027 eV
Transition (v -> c):
  (s=0, k=0, n=4, [0.00, 0.00, 0.00]) -> (s=0, k=0, n=5, [0.00, 0.00, 0.00])

Forces in eV/Ang:
  0 C    -1.00243    0.00000    0.00000
  1 O     0.96291   -0.00000    0.00000

BFGS:    4 01:25:33      -15.210338        1.0024
System changes: positions 

Initializing position-dependent things.

Density initialized from wave functions
             .------------------------------------------------.  
            /|                                                |  
           / |                                                |  
          /  |                                                |  
         /   |                                                |  
        /    |                                                |  
       /     |                                                |  
      /      |                                                |  
     /       |                                                |  
    /        |                                                |  
   /         |                                                |  
  /          |                                                |  
 *           |                                                |  
 |           |                                                |  
 |           |                                                |  
 |           |                                                |  
 |           |                                                |  
 |           |                                                |  
 |           |                                                |  
 |           |                  C  O                          |  
 |           |                                                |  
 |           |                                                |  
 |           |                                                |  
 |           |                                                |  
 |           |                                                |  
 |           .------------------------------------------------.  
 |          /                                                /   
 |         /                                                /    
 |        /                                                /     
 |       /                                                /      
 |      /                                                /       
 |     /                                                /        
 |    /                                                /         
 |   /                                                /          
 |  /                                                /           
 | /                                                /            
 |/                                                /             
 *------------------------------------------------*              

Positions:
   0 C     10.146574   10.000000   10.000000    ( 0.0000,  0.0000,  0.0000)
   1 O     11.283891   10.000000   10.000000    ( 0.0000,  0.0000,  0.0000)

Unit cell:
           periodic     x           y           z      points  spacing
  1. axis:    no    20.000000    0.000000    0.000000   112     0.1786
  2. axis:    no     0.000000   20.000000    0.000000   112     0.1786
  3. axis:    no     0.000000    0.000000   20.000000   112     0.1786

  Lengths:  20.000000  20.000000  20.000000
  Angles:   90.000000  90.000000  90.000000

Effective grid spacing dv^(1/3) = 0.1786

     iter     time        total  log10-change:
                         energy  eigst   dens
iter:   1 01:25:34   -15.214834  -1.86
iter:   2 01:25:35   -15.214616  -2.66  -2.56
iter:   3 01:25:36   -15.214455c -2.99  -2.71
iter:   4 01:25:36   -15.214436c -3.33  -3.06
iter:   5 01:25:37   -15.214437c -4.27  -3.52
iter:   6 01:25:38   -15.214438c -4.79  -3.72
iter:   7 01:25:39   -15.214438c -5.58  -4.29c
iter:   8 01:25:40   -15.214438c -5.86  -4.49c
iter:   9 01:25:41   -15.214438c -6.46c -4.95c

Converged after 9 iterations.

Dipole moment: (0.041436, -0.000000, -0.000000) |e|*Ang

Energy contributions relative to reference atoms: (reference = -3068.480417)

Kinetic:        +17.431868
Potential:      -21.878664
External:        +0.000000
XC:             -11.301725
Entropy (-ST):   +0.000000
Local:           +0.534084
--------------------------
Free energy:    -15.214438
Extrapolated:   -15.214438

 Band  Eigenvalues  Occupancy
    0    -29.18547    2.00000
    1    -14.14103    2.00000
    2    -11.78840    2.00000
    3    -11.78840    2.00000
    4     -9.05629    2.00000
    5     -2.09625    0.00000
    6     -2.09625    0.00000
    7     -0.05237    0.00000

Fermi level: -5.57627

Gap: 6.960 eV
Transition (v -> c):
  (s=0, k=0, n=4, [0.00, 0.00, 0.00]) -> (s=0, k=0, n=5, [0.00, 0.00, 0.00])

Forces in eV/Ang:
  0 C     0.07781    0.00000    0.00000
  1 O    -0.06087    0.00000    0.00000

BFGS:    5 01:25:41      -15.214438        0.0778
System changes: positions 

Initializing position-dependent things.

Density initialized from wave functions
             .------------------------------------------------.  
            /|                                                |  
           / |                                                |  
          /  |                                                |  
         /   |                                                |  
        /    |                                                |  
       /     |                                                |  
      /      |                                                |  
     /       |                                                |  
    /        |                                                |  
   /         |                                                |  
  /          |                                                |  
 *           |                                                |  
 |           |                                                |  
 |           |                                                |  
 |           |                                                |  
 |           |                                                |  
 |           |                                                |  
 |           |                                                |  
 |           |                  C  O                          |  
 |           |                                                |  
 |           |                                                |  
 |           |                                                |  
 |           |                                                |  
 |           |                                                |  
 |           .------------------------------------------------.  
 |          /                                                /   
 |         /                                                /    
 |        /                                                /     
 |       /                                                /      
 |      /                                                /       
 |     /                                                /        
 |    /                                                /         
 |   /                                                /          
 |  /                                                /           
 | /                                                /            
 |/                                                /             
 *------------------------------------------------*              

Positions:
   0 C     10.146983   10.000000   10.000000    ( 0.0000,  0.0000,  0.0000)
   1 O     11.283705   10.000000   10.000000    ( 0.0000,  0.0000,  0.0000)

Unit cell:
           periodic     x           y           z      points  spacing
  1. axis:    no    20.000000    0.000000    0.000000   112     0.1786
  2. axis:    no     0.000000   20.000000    0.000000   112     0.1786
  3. axis:    no     0.000000    0.000000   20.000000   112     0.1786

  Lengths:  20.000000  20.000000  20.000000
  Angles:   90.000000  90.000000  90.000000

Effective grid spacing dv^(1/3) = 0.1786

     iter     time        total  log10-change:
                         energy  eigst   dens
iter:   1 01:25:42   -15.214463  -4.27
iter:   2 01:25:43   -15.214461  -5.05  -3.73
iter:   3 01:25:43   -15.214461c -5.40  -3.89
iter:   4 01:25:44   -15.214461c -5.67  -4.18c
iter:   5 01:25:45   -15.214461c -6.67c -4.70c

Converged after 5 iterations.

Dipole moment: (0.041800, 0.000000, 0.000000) |e|*Ang

Energy contributions relative to reference atoms: (reference = -3068.480417)

Kinetic:        +17.515741
Potential:      -21.947288
External:        +0.000000
XC:             -11.318514
Entropy (-ST):   +0.000000
Local:           +0.535600
--------------------------
Free energy:    -15.214461
Extrapolated:   -15.214461

 Band  Eigenvalues  Occupancy
    0    -29.19386    2.00000
    1    -14.14066    2.00000
    2    -11.79343    2.00000
    3    -11.79343    2.00000
    4     -9.05486    2.00000
    5     -2.09042    0.00000
    6     -2.09042    0.00000
    7     -0.05411    0.00000

Fermi level: -5.57264

Gap: 6.964 eV
Transition (v -> c):
  (s=0, k=0, n=4, [0.00, 0.00, 0.00]) -> (s=0, k=0, n=5, [0.00, 0.00, 0.00])

Forces in eV/Ang:
  0 C     0.00745   -0.00000    0.00000
  1 O     0.00724   -0.00000    0.00000

BFGS:    6 01:25:45      -15.214461        0.0074
Timing:                                      incl.     excl.
-------------------------------------------------------------------
Density initialized from wave functions:     7.566     0.131   0.1% |
 Symmetrize density:                         7.436     7.436   4.8% |-|
Forces:                                      0.106     0.106   0.1% |
Hamiltonian:                                 4.447     0.002   0.0% |
 Atomic:                                     0.003     0.003   0.0% |
  XC Correction:                             0.000     0.000   0.0% |
 Calculate atomic Hamiltonians:              0.006     0.006   0.0% |
 Communicate:                                0.455     0.455   0.3% |
 Hartree integrate/restrict:                 0.132     0.132   0.1% |
 Initialize Hamiltonian:                     0.002     0.002   0.0% |
 Poisson:                                    2.041     0.049   0.0% |
  Communicate from 1D:                       0.392     0.392   0.3% |
  Communicate from 2D:                       0.361     0.361   0.2% |
  Communicate to 1D:                         0.340     0.340   0.2% |
  Communicate to 2D:                         0.413     0.413   0.3% |
  FFT 1D:                                    0.149     0.149   0.1% |
  FFT 2D:                                    0.337     0.337   0.2% |
 XC 3D grid:                                 1.580     1.580   1.0% |
 vbar:                                       0.226     0.226   0.1% |
LCAO initialization:                         1.130     1.048   0.7% |
 LCAO eigensolver:                           0.050     0.000   0.0% |
  Calculate projections:                     0.000     0.000   0.0% |
  DenseAtomicCorrection:                     0.000     0.000   0.0% |
  Distribute overlap matrix:                 0.011     0.011   0.0% |
  Orbital Layouts:                           0.038     0.038   0.0% |
  Potential matrix:                          0.000     0.000   0.0% |
 LCAO to grid:                               0.002     0.002   0.0% |
 Set positions (LCAO WFS):                   0.030     0.021   0.0% |
  Basic WFS set positions:                   0.002     0.002   0.0% |
  Basis functions set positions:             0.000     0.000   0.0% |
  P tci:                                     0.001     0.001   0.0% |
  ST tci:                                    0.002     0.002   0.0% |
  mktci:                                     0.003     0.003   0.0% |
Redistribute:                                0.005     0.005   0.0% |
SCF-cycle:                                 137.188     0.115   0.1% |
 Davidson:                                  12.607     4.425   2.8% ||
  Apply hamiltonian:                         1.206     1.206   0.8% |
  Subspace diag:                             1.986     0.014   0.0% |
   calc_h_matrix:                            1.343     0.188   0.1% |
    Apply hamiltonian:                       1.155     1.155   0.7% |
   diagonalize:                              0.114     0.114   0.1% |
   rotate_psi:                               0.514     0.514   0.3% |
  calc. matrices:                            3.899     1.413   0.9% |
   Apply hamiltonian:                        2.486     2.486   1.6% ||
  diagonalize:                               0.058     0.058   0.0% |
  rotate_psi:                                1.034     1.034   0.7% |
 Density:                                   84.860     0.003   0.0% |
  Atomic density matrices:                   0.089     0.089   0.1% |
  Mix:                                       1.457     1.457   0.9% |
  Multipole moments:                         0.017     0.017   0.0% |
  Pseudo density:                           83.293     0.097   0.1% |
   Symmetrize density:                      83.196    83.196  53.2% |--------------------|
 Hamiltonian:                               39.524     0.019   0.0% |
  Atomic:                                    0.030     0.029   0.0% |
   XC Correction:                            0.000     0.000   0.0% |
  Calculate atomic Hamiltonians:             0.049     0.049   0.0% |
  Communicate:                               4.261     4.261   2.7% ||
  Hartree integrate/restrict:                1.282     1.282   0.8% |
  Poisson:                                  19.098     0.467   0.3% |
   Communicate from 1D:                      3.627     3.627   2.3% ||
   Communicate from 2D:                      3.357     3.357   2.1% ||
   Communicate to 1D:                        3.205     3.205   2.1% ||
   Communicate to 2D:                        3.808     3.808   2.4% ||
   FFT 1D:                                   1.418     1.418   0.9% |
   FFT 2D:                                   3.215     3.215   2.1% ||
  XC 3D grid:                               14.483    14.483   9.3% |---|
  vbar:                                      0.302     0.302   0.2% |
 Orthonormalize:                             0.083     0.001   0.0% |
  calc_s_matrix:                             0.012     0.012   0.0% |
  inverse-cholesky:                          0.030     0.030   0.0% |
  projections:                               0.000     0.000   0.0% |
  rotate_psi_s:                              0.038     0.038   0.0% |
Set symmetry:                                0.010     0.010   0.0% |
Other:                                       5.806     5.806   3.7% ||
-------------------------------------------------------------------
Total:                                               156.259 100.0%

Memory usage: 464.77 MiB
Date: Tue Oct  3 01:25:46 2023
