
  ___ ___ ___ _ _ _  
 |   |   |_  | | | | 
 | | | | | . | | | | 
 |__ |  _|___|_____|  22.8.0
 |___|_|             

User:   s204775@a089.nifl.fysik.dtu.dk
Date:   Thu Oct  5 02:58:36 2023
Arch:   x86_64
Pid:    43676
CWD:    /home/cat/s204775/projects/Bachelor_project/isolated_molecules
Python: 3.10.4
gpaw:   /home/modules/software/GPAW/22.8.0-intel-2022a/lib/python3.10/site-packages/gpaw
_gpaw:  /home/modules/software/GPAW/22.8.0-intel-2022a/lib/python3.10/site-packages/
        _gpaw.cpython-310-x86_64-linux-gnu.so
ase:    /home/modules/software/ASE/3.22.1-intel-2022a/lib/python3.10/site-packages/ase (version 3.22.1)
numpy:  /home/modules/software/SciPy-bundle/2022.05-intel-2022a/lib/python3.10/site-packages/numpy (version 1.22.3)
scipy:  /home/modules/software/SciPy-bundle/2022.05-intel-2022a/lib/python3.10/site-packages/scipy (version 1.8.1)
libxc:  5.2.3
units:  Angstrom and eV
cores: 40
OpenMP: False
OMP_NUM_THREADS: 1

Input parameters:
  basis: dzp
  convergence: {eigenstates: 1e-06}
  h: 0.18
  xc: PBE


  ___ ___ ___ _ _ _  
 |   |   |_  | | | | 
 | | | | | . | | | | 
 |__ |  _|___|_____|  22.8.0
 |___|_|             

User:   s204775@a089.nifl.fysik.dtu.dk
Date:   Thu Oct  5 02:58:36 2023
Arch:   x86_64
Pid:    43676
CWD:    /home/cat/s204775/projects/Bachelor_project/isolated_molecules
Python: 3.10.4
gpaw:   /home/modules/software/GPAW/22.8.0-intel-2022a/lib/python3.10/site-packages/gpaw
_gpaw:  /home/modules/software/GPAW/22.8.0-intel-2022a/lib/python3.10/site-packages/
        _gpaw.cpython-310-x86_64-linux-gnu.so
ase:    /home/modules/software/ASE/3.22.1-intel-2022a/lib/python3.10/site-packages/ase (version 3.22.1)
numpy:  /home/modules/software/SciPy-bundle/2022.05-intel-2022a/lib/python3.10/site-packages/numpy (version 1.22.3)
scipy:  /home/modules/software/SciPy-bundle/2022.05-intel-2022a/lib/python3.10/site-packages/scipy (version 1.8.1)
libxc:  5.2.3
units:  Angstrom and eV
cores: 40
OpenMP: False
OMP_NUM_THREADS: 1

Input parameters:
  basis: szp(dzp)
  convergence: {density: 5e-06,
                eigenstates: 1}
  eigensolver: rmm-diis
  h: 0.18
  maxiter: 3000
  mixer: {backend: pulay,
          beta: 0.05,
          method: separate,
          nmaxold: 3,
          weight: 100}
  occupations: {fixmagmom: False,
                name: fermi-dirac,
                width: 0.1}
  spinpol: False
  xc: BEEF-vdW

System changes: positions, numbers, cell, pbc, initial_charges, initial_magmoms 

Initialize ...

species:
  O:
    name: Oxygen
    id: 32ecd46bf208036f09c70b0ec9a88b78
    Z: 8.0
    valence: 6
    core: 2
    charge: 0.0
    file: /home/modules/software/GPAW-setups/0.9.20000/O.PBE.gz
    compensation charges: {type: gauss,
                           rc: 0.21,
                           lmax: 2}
    cutoffs: {filter: 1.17,
              core: 0.83}
    valence states:
      #              energy  rcut
      - 2s(2.00)   -23.961   0.688
      - 2p(4.00)    -9.029   0.598
      -  s           3.251   0.688
      -  p          18.182   0.598
      -  d           0.000   0.619
  
    # LCAO basis set for O:
    #   Name: dzp
    #   File: /home/modules/software/GPAW-setups/0.9.20000/O.dzp.basis.gz
    #   Number of radial functions: 5
    #   Number of spherical harmonics: 13
    #     l=0, rc=4.3438 Bohr: 2s-sz confined orbital
    #     l=1, rc=5.3906 Bohr: 2p-sz confined orbital
    #     l=0, rc=2.2969 Bohr: 2s-dz split-valence wave
    #     l=1, rc=2.8906 Bohr: 2p-dz split-valence wave
    #     l=2, rc=5.3906 Bohr: d-type Gaussian polarization
    #   Number of RI-basis functions 0

  C:
    name: Carbon
    id: 4aa54d4b901d75f77cc0ea3eec22967b
    Z: 6.0
    valence: 4
    core: 2
    charge: 0.0
    file: /home/modules/software/GPAW-setups/0.9.20000/C.PBE.gz
    compensation charges: {type: gauss,
                           rc: 0.20,
                           lmax: 2}
    cutoffs: {filter: 1.14,
              core: 1.14}
    valence states:
      #              energy  rcut
      - 2s(2.00)   -13.751   0.635
      - 2p(2.00)    -5.284   0.635
      -  s          13.461   0.635
      -  p          21.927   0.635
      -  d           0.000   0.635
  
    # LCAO basis set for C:
    #   Name: dzp
    #   File: /home/modules/software/GPAW-setups/0.9.20000/C.dzp.basis.gz
    #   Number of radial functions: 5
    #   Number of spherical harmonics: 13
    #     l=0, rc=5.5469 Bohr: 2s-sz confined orbital
    #     l=1, rc=6.6719 Bohr: 2p-sz confined orbital
    #     l=0, rc=3.0312 Bohr: 2s-dz split-valence wave
    #     l=1, rc=3.7500 Bohr: 2p-dz split-valence wave
    #     l=2, rc=6.6719 Bohr: d-type Gaussian polarization
    #   Number of RI-basis functions 0

Reference energy: -5109.332718  # eV

Spin-paired calculation

Convergence criteria:
 Maximum [total energy] change in last 3 cyles: 0.0005 eV / electron
 Maximum integral of absolute [dens]ity change: 0.0001 electrons / valence electron
 Maximum integral of absolute [eigenst]ate change: 1e-06 eV^2 / valence electron
 Maximum number of scf [iter]ations: 333
 (Square brackets indicate name in SCF output, whereas a 'c' in
 the SCF output indicates the quantity has converged.)

Symmetries present (total): 8

  ( 1  0  0)  ( 1  0  0)  ( 1  0  0)  ( 1  0  0)  ( 1  0  0)  ( 1  0  0)
  ( 0  1  0)  ( 0  1  0)  ( 0  0  1)  ( 0  0  1)  ( 0  0 -1)  ( 0  0 -1)
  ( 0  0  1)  ( 0  0 -1)  ( 0  1  0)  ( 0 -1  0)  ( 0  1  0)  ( 0 -1  0)

  ( 1  0  0)  ( 1  0  0)
  ( 0 -1  0)  ( 0 -1  0)
  ( 0  0  1)  ( 0  0 -1)

1 k-point (Gamma)
1 k-point in the irreducible part of the Brillouin zone
       k-points in crystal coordinates                weights
   0:     0.00000000    0.00000000    0.00000000          1/1

Wave functions: Uniform real-space grid
  Kinetic energy operator: 6*3+1=19 point O(h^6) finite-difference Laplacian
  ScaLapack parameters: grid=1x1, blocksize=None
  Wavefunction extrapolation:
    Improved wavefunction reuse through dual PAW basis 

Occupation numbers: # Zero width 

Eigensolver
   Davidson(niter=2) 

Densities:
  Coarse grid: 112*112*112 grid
  Fine grid: 224*224*224 grid
  Total Charge: 0.000000 

Density mixing:
  Method: separate
  Backend: pulay
  Linear mixing parameter: 0.25
  old densities: 3
  Damping of long wavelength oscillations: 1  # (no daming) 

Hamiltonian:
  XC and Coulomb potentials evaluated on a 224*224*224 grid
  Using the PBE Exchange-Correlation functional
  Interpolation: tri-quintic (5. degree polynomial)
  Poisson solver: FastPoissonSolver using
    Stencil: 6*3+1=19 point O(h^6) finite-difference Laplacian
    FFT axes: []
    FST axes: [0, 1, 2]
 

XC parameters: PBE with 2 nearest neighbor stencil

Memory estimate:
  Process memory now: 184.87 MiB
  Calculator: 19.82 MiB
    Density: 8.22 MiB
      Arrays: 6.65 MiB
      Localized functions: 0.07 MiB
      Mixer: 1.50 MiB
    Hamiltonian: 4.35 MiB
      Arrays: 4.35 MiB
      XC: 0.00 MiB
      Poisson: 0.00 MiB
      vbar: 0.01 MiB
    Wavefunctions: 7.25 MiB
      Arrays psit_nG: 2.99 MiB
      Eigensolver: 4.25 MiB
      Projections: 0.00 MiB
      Projectors: 0.01 MiB

Total number of cores used: 40
Domain decomposition: 5 x 4 x 2

Number of atoms: 3
Number of atomic orbitals: 39
Number of bands in calculation: 12
Number of valence electrons: 16
Bands to converge: occupied

... initialized

Initializing position-dependent things.

Density initialized from atomic densities
Creating initial wave functions:
  12 bands from LCAO basis set

             .------------------------------------------------.  
            /|                                                |  
           / |                                                |  
          /  |                                                |  
         /   |                                                |  
        /    |                                                |  
       /     |                                                |  
      /      |                                                |  
     /       |                                                |  
    /        |                                                |  
   /         |                                                |  
  /          |                                                |  
 *           |                                                |  
 |           |                                                |  
 |           |                                                |  
 |           |                                                |  
 |           |                                                |  
 |           |                                                |  
 |           |                                                |  
 |           |                 O  C  O                        |  
 |           |                                                |  
 |           |                                                |  
 |           |                                                |  
 |           |                                                |  
 |           |                                                |  
 |           .------------------------------------------------.  
 |          /                                                /   
 |         /                                                /    
 |        /                                                /     
 |       /                                                /      
 |      /                                                /       
 |     /                                                /        
 |    /                                                /         
 |   /                                                /          
 |  /                                                /           
 | /                                                /            
 |/                                                /             
 *------------------------------------------------*              

Positions:
   0 O     10.000000   10.000000   10.000000    ( 0.0000,  0.0000,  0.0000)
   1 C     11.170000   10.000000   10.000000    ( 0.0000,  0.0000,  0.0000)
   2 O     12.340000   10.000000   10.000000    ( 0.0000,  0.0000,  0.0000)

Unit cell:
           periodic     x           y           z      points  spacing
  1. axis:    no    20.000000    0.000000    0.000000   112     0.1786
  2. axis:    no     0.000000   20.000000    0.000000   112     0.1786
  3. axis:    no     0.000000    0.000000   20.000000   112     0.1786

  Lengths:  20.000000  20.000000  20.000000
  Angles:   90.000000  90.000000  90.000000

Effective grid spacing dv^(1/3) = 0.1786

     iter     time        total  log10-change:
                         energy  eigst   dens
iter:   1 02:58:38   -24.551309   +nan
iter:   2 02:58:39   -23.816820  +0.31  -0.99
iter:   3 02:58:40   -23.793450  -0.08  -1.26
iter:   4 02:58:41   -23.794325  -0.94  -1.46
iter:   5 02:58:42   -23.791759c -1.53  -2.25
iter:   6 02:58:43   -23.790898c -2.01  -2.42
iter:   7 02:58:44   -23.790652c -2.48  -2.66
iter:   8 02:58:45   -23.790654c -3.16  -3.16
iter:   9 02:58:45   -23.790641c -3.61  -3.28
iter:  10 02:58:46   -23.790643c -4.22  -3.76
iter:  11 02:58:47   -23.790643c -4.89  -4.13c
iter:  12 02:58:48   -23.790643c -5.31  -4.32c
iter:  13 02:58:49   -23.790643c -5.73  -4.91c
iter:  14 02:58:50   -23.790643c -6.27c -5.17c

Converged after 14 iterations.

Dipole moment: (-0.000059, -0.000000, -0.000000) |e|*Ang

Energy contributions relative to reference atoms: (reference = -5109.332718)

Kinetic:        +28.037055
Potential:      -32.472096
External:        +0.000000
XC:             -20.379108
Entropy (-ST):   +0.000000
Local:           +1.023506
--------------------------
Free energy:    -23.790643
Extrapolated:   -23.790643

 Band  Eigenvalues  Occupancy
    0    -29.09971    2.00000
    1    -28.08360    2.00000
    2    -13.84075    2.00000
    3    -12.68740    2.00000
    4    -12.68490    2.00000
    5    -12.68490    2.00000
    6     -9.08670    2.00000
    7     -9.08670    2.00000
    8     -0.96091    0.00000
    9     -0.48264    0.00000
   10     -0.48261    0.00000
   11      0.58748    0.00000

Fermi level: -5.02380

Gap: 8.126 eV
Transition (v -> c):
  (s=0, k=0, n=7, [0.00, 0.00, 0.00]) -> (s=0, k=0, n=8, [0.00, 0.00, 0.00])

Forces in eV/Ang:
  0 O    -0.16036   -0.00000    0.00000
  1 C    -0.03673    0.00000    0.00000
  2 O     0.05111    0.00000    0.00000

      Step     Time          Energy         fmax
BFGS:    0 02:58:50      -23.790643        0.1604
System changes: positions 

Initializing position-dependent things.

Density initialized from wave functions
             .------------------------------------------------.  
            /|                                                |  
           / |                                                |  
          /  |                                                |  
         /   |                                                |  
        /    |                                                |  
       /     |                                                |  
      /      |                                                |  
     /       |                                                |  
    /        |                                                |  
   /         |                                                |  
  /          |                                                |  
 *           |                                                |  
 |           |                                                |  
 |           |                                                |  
 |           |                                                |  
 |           |                                                |  
 |           |                                                |  
 |           |                                                |  
 |           |                 O  C  O                        |  
 |           |                                                |  
 |           |                                                |  
 |           |                                                |  
 |           |                                                |  
 |           |                                                |  
 |           .------------------------------------------------.  
 |          /                                                /   
 |         /                                                /    
 |        /                                                /     
 |       /                                                /      
 |      /                                                /       
 |     /                                                /        
 |    /                                                /         
 |   /                                                /          
 |  /                                                /           
 | /                                                /            
 |/                                                /             
 *------------------------------------------------*              

Positions:
   0 O      9.997709   10.000000   10.000000    ( 0.0000,  0.0000,  0.0000)
   1 C     11.169475   10.000000   10.000000    ( 0.0000,  0.0000,  0.0000)
   2 O     12.340730   10.000000   10.000000    ( 0.0000,  0.0000,  0.0000)

Unit cell:
           periodic     x           y           z      points  spacing
  1. axis:    no    20.000000    0.000000    0.000000   112     0.1786
  2. axis:    no     0.000000   20.000000    0.000000   112     0.1786
  3. axis:    no     0.000000    0.000000   20.000000   112     0.1786

  Lengths:  20.000000  20.000000  20.000000
  Angles:   90.000000  90.000000  90.000000

Effective grid spacing dv^(1/3) = 0.1786

     iter     time        total  log10-change:
                         energy  eigst   dens
iter:   1 02:58:51   -23.790941  -3.01
iter:   2 02:58:52   -23.790827  -3.62  -3.04
iter:   3 02:58:53   -23.790820c -4.08  -3.45
iter:   4 02:58:54   -23.790818c -4.67  -3.66
iter:   5 02:58:54   -23.790817c -5.22  -3.88
iter:   6 02:58:55   -23.790817c -5.85  -4.53c
iter:   7 02:58:56   -23.790817c -6.43c -4.75c

Converged after 7 iterations.

Dipole moment: (0.000513, 0.000000, 0.000000) |e|*Ang

Energy contributions relative to reference atoms: (reference = -5109.332718)

Kinetic:        +27.648205
Potential:      -32.165289
External:        +0.000000
XC:             -20.296209
Entropy (-ST):   +0.000000
Local:           +1.022476
--------------------------
Free energy:    -23.790817
Extrapolated:   -23.790817

 Band  Eigenvalues  Occupancy
    0    -29.08232    2.00000
    1    -28.06597    2.00000
    2    -13.84923    2.00000
    3    -12.68790    2.00000
    4    -12.67174    2.00000
    5    -12.67174    2.00000
    6     -9.08595    2.00000
    7     -9.08595    2.00000
    8     -0.97946    0.00000
    9     -0.50904    0.00000
   10     -0.50903    0.00000
   11      0.47359    0.00000

Fermi level: -5.03271

Gap: 8.106 eV
Transition (v -> c):
  (s=0, k=0, n=7, [0.00, 0.00, 0.00]) -> (s=0, k=0, n=8, [0.00, 0.00, 0.00])

Forces in eV/Ang:
  0 O     0.02494    0.00000    0.00000
  1 C    -0.08354   -0.00000    0.00000
  2 O    -0.09057   -0.00000    0.00000

BFGS:    1 02:58:56      -23.790817        0.0906
System changes: positions 

Initializing position-dependent things.

Density initialized from wave functions
             .------------------------------------------------.  
            /|                                                |  
           / |                                                |  
          /  |                                                |  
         /   |                                                |  
        /    |                                                |  
       /     |                                                |  
      /      |                                                |  
     /       |                                                |  
    /        |                                                |  
   /         |                                                |  
  /          |                                                |  
 *           |                                                |  
 |           |                                                |  
 |           |                                                |  
 |           |                                                |  
 |           |                                                |  
 |           |                                                |  
 |           |                                                |  
 |           |                 O  C  O                        |  
 |           |                                                |  
 |           |                                                |  
 |           |                                                |  
 |           |                                                |  
 |           |                                                |  
 |           .------------------------------------------------.  
 |          /                                                /   
 |         /                                                /    
 |        /                                                /     
 |       /                                                /      
 |      /                                                /       
 |     /                                                /        
 |    /                                                /         
 |   /                                                /          
 |  /                                                /           
 | /                                                /            
 |/                                                /             
 *------------------------------------------------*              

Positions:
   0 O      9.997201   10.000000   10.000000    ( 0.0000,  0.0000,  0.0000)
   1 C     11.168285   10.000000   10.000000    ( 0.0000,  0.0000,  0.0000)
   2 O     12.339898   10.000000   10.000000    ( 0.0000,  0.0000,  0.0000)

Unit cell:
           periodic     x           y           z      points  spacing
  1. axis:    no    20.000000    0.000000    0.000000   112     0.1786
  2. axis:    no     0.000000   20.000000    0.000000   112     0.1786
  3. axis:    no     0.000000    0.000000   20.000000   112     0.1786

  Lengths:  20.000000  20.000000  20.000000
  Angles:   90.000000  90.000000  90.000000

Effective grid spacing dv^(1/3) = 0.1786

     iter     time        total  log10-change:
                         energy  eigst   dens
iter:   1 02:58:57   -23.790951  -3.61
iter:   2 02:58:58   -23.790949  -4.28  -3.57
iter:   3 02:58:59   -23.790948c -4.86  -3.75
iter:   4 02:59:00   -23.790948c -5.16  -3.93
iter:   5 02:59:01   -23.790948c -5.86  -4.60c
iter:   6 02:59:02   -23.790948c -6.43c -4.76c

Converged after 6 iterations.

Dipole moment: (-0.000634, -0.000000, -0.000000) |e|*Ang

Energy contributions relative to reference atoms: (reference = -5109.332718)

Kinetic:        +27.691740
Potential:      -32.201011
External:        +0.000000
XC:             -20.305301
Entropy (-ST):   +0.000000
Local:           +1.023624
--------------------------
Free energy:    -23.790948
Extrapolated:   -23.790948

 Band  Eigenvalues  Occupancy
    0    -29.08420    2.00000
    1    -28.06786    2.00000
    2    -13.84821    2.00000
    3    -12.68775    2.00000
    4    -12.67313    2.00000
    5    -12.67313    2.00000
    6     -9.08600    2.00000
    7     -9.08600    2.00000
    8     -0.98040    0.00000
    9     -0.50618    0.00000
   10     -0.50617    0.00000
   11      0.42724    0.00000

Fermi level: -5.03320

Gap: 8.106 eV
Transition (v -> c):
  (s=0, k=0, n=7, [0.00, 0.00, 0.00]) -> (s=0, k=0, n=8, [0.00, 0.00, 0.00])

Forces in eV/Ang:
  0 O    -0.04576    0.00000    0.00000
  1 C     0.01218    0.00000    0.00000
  2 O    -0.11817   -0.00000    0.00000

BFGS:    2 02:59:02      -23.790948        0.1182
System changes: positions 

Initializing position-dependent things.

Density initialized from wave functions
             .------------------------------------------------.  
            /|                                                |  
           / |                                                |  
          /  |                                                |  
         /   |                                                |  
        /    |                                                |  
       /     |                                                |  
      /      |                                                |  
     /       |                                                |  
    /        |                                                |  
   /         |                                                |  
  /          |                                                |  
 *           |                                                |  
 |           |                                                |  
 |           |                                                |  
 |           |                                                |  
 |           |                                                |  
 |           |                                                |  
 |           |                                                |  
 |           |                 O  C  O                        |  
 |           |                                                |  
 |           |                                                |  
 |           |                                                |  
 |           |                                                |  
 |           |                                                |  
 |           .------------------------------------------------.  
 |          /                                                /   
 |         /                                                /    
 |        /                                                /     
 |       /                                                /      
 |      /                                                /       
 |     /                                                /        
 |    /                                                /         
 |   /                                                /          
 |  /                                                /           
 | /                                                /            
 |/                                                /             
 *------------------------------------------------*              

Positions:
   0 O      9.989028   10.000000   10.000000    ( 0.0000,  0.0000,  0.0000)
   1 C     11.157687   10.000000   10.000000    ( 0.0000,  0.0000,  0.0000)
   2 O     12.327958   10.000000   10.000000    ( 0.0000,  0.0000,  0.0000)

Unit cell:
           periodic     x           y           z      points  spacing
  1. axis:    no    20.000000    0.000000    0.000000   112     0.1786
  2. axis:    no     0.000000   20.000000    0.000000   112     0.1786
  3. axis:    no     0.000000    0.000000   20.000000   112     0.1786

  Lengths:  20.000000  20.000000  20.000000
  Angles:   90.000000  90.000000  90.000000

Effective grid spacing dv^(1/3) = 0.1786

     iter     time        total  log10-change:
                         energy  eigst   dens
iter:   1 02:59:03   -23.792757  -1.50
iter:   2 02:59:03   -23.791063  -2.06  -2.49
iter:   3 02:59:04   -23.791094c -2.80  -2.96
iter:   4 02:59:05   -23.791102c -3.22  -3.15
iter:   5 02:59:06   -23.791106c -3.66  -3.55
iter:   6 02:59:07   -23.791108c -4.26  -4.04c
iter:   7 02:59:08   -23.791108c -4.80  -4.09c
iter:   8 02:59:09   -23.791108c -5.31  -4.17c
iter:   9 02:59:10   -23.791108c -5.80  -4.98c
iter:  10 02:59:11   -23.791108c -6.26c -5.18c

Converged after 10 iterations.

Dipole moment: (-0.001877, -0.000000, -0.000000) |e|*Ang

Energy contributions relative to reference atoms: (reference = -5109.332718)

Kinetic:        +28.175387
Potential:      -32.580436
External:        +0.000000
XC:             -20.408669
Entropy (-ST):   +0.000000
Local:           +1.022609
--------------------------
Free energy:    -23.791108
Extrapolated:   -23.791108

 Band  Eigenvalues  Occupancy
    0    -29.10596    2.00000
    1    -28.08947    2.00000
    2    -13.83783    2.00000
    3    -12.68956    2.00000
    4    -12.68956    2.00000
    5    -12.68734    2.00000
    6     -9.08693    2.00000
    7     -9.08693    2.00000
    8     -0.97311    0.00000
    9     -0.47328    0.00000
   10     -0.47328    0.00000
   11      0.39437    0.00000

Fermi level: -5.03002

Gap: 8.114 eV
Transition (v -> c):
  (s=0, k=0, n=7, [0.00, 0.00, 0.00]) -> (s=0, k=0, n=8, [0.00, 0.00, 0.00])

Forces in eV/Ang:
  0 O    -0.25049    0.00000    0.00000
  1 C     0.16034    0.00000    0.00000
  2 O     0.12710    0.00000    0.00000

BFGS:    3 02:59:11      -23.791108        0.2505
System changes: positions 

Initializing position-dependent things.

Density initialized from wave functions
             .------------------------------------------------.  
            /|                                                |  
           / |                                                |  
          /  |                                                |  
         /   |                                                |  
        /    |                                                |  
       /     |                                                |  
      /      |                                                |  
     /       |                                                |  
    /        |                                                |  
   /         |                                                |  
  /          |                                                |  
 *           |                                                |  
 |           |                                                |  
 |           |                                                |  
 |           |                                                |  
 |           |                                                |  
 |           |                                                |  
 |           |                                                |  
 |           |                 O  C  O                        |  
 |           |                                                |  
 |           |                                                |  
 |           |                                                |  
 |           |                                                |  
 |           |                                                |  
 |           .------------------------------------------------.  
 |          /                                                /   
 |         /                                                /    
 |        /                                                /     
 |       /                                                /      
 |      /                                                /       
 |     /                                                /        
 |    /                                                /         
 |   /                                                /          
 |  /                                                /           
 | /                                                /            
 |/                                                /             
 *------------------------------------------------*              

Positions:
   0 O      9.990224   10.000000   10.000000    ( 0.0000,  0.0000,  0.0000)
   1 C     11.160626   10.000000   10.000000    ( 0.0000,  0.0000,  0.0000)
   2 O     12.331949   10.000000   10.000000    ( 0.0000,  0.0000,  0.0000)

Unit cell:
           periodic     x           y           z      points  spacing
  1. axis:    no    20.000000    0.000000    0.000000   112     0.1786
  2. axis:    no     0.000000   20.000000    0.000000   112     0.1786
  3. axis:    no     0.000000    0.000000   20.000000   112     0.1786

  Lengths:  20.000000  20.000000  20.000000
  Angles:   90.000000  90.000000  90.000000

Effective grid spacing dv^(1/3) = 0.1786

     iter     time        total  log10-change:
                         energy  eigst   dens
iter:   1 02:59:12   -23.791650  -2.55
iter:   2 02:59:12   -23.791519  -3.21  -3.00
iter:   3 02:59:13   -23.791517c -3.76  -3.36
iter:   4 02:59:14   -23.791516c -4.29  -3.58
iter:   5 02:59:15   -23.791517c -4.77  -3.89
iter:   6 02:59:16   -23.791517c -5.37  -4.49c
iter:   7 02:59:17   -23.791517c -5.92  -4.60c
iter:   8 02:59:18   -23.791517c -6.39c -4.87c

Converged after 8 iterations.

Dipole moment: (-0.001107, 0.000000, 0.000000) |e|*Ang

Energy contributions relative to reference atoms: (reference = -5109.332718)

Kinetic:        +27.817485
Potential:      -32.299784
External:        +0.000000
XC:             -20.332143
Entropy (-ST):   +0.000000
Local:           +1.022925
--------------------------
Free energy:    -23.791517
Extrapolated:   -23.791517

 Band  Eigenvalues  Occupancy
    0    -29.08975    2.00000
    1    -28.07339    2.00000
    2    -13.84546    2.00000
    3    -12.68761    2.00000
    4    -12.67732    2.00000
    5    -12.67732    2.00000
    6     -9.08621    2.00000
    7     -9.08621    2.00000
    8     -0.97889    0.00000
    9     -0.49766    0.00000
   10     -0.49766    0.00000
   11      0.38428    0.00000

Fermi level: -5.03255

Gap: 8.107 eV
Transition (v -> c):
  (s=0, k=0, n=7, [0.00, 0.00, 0.00]) -> (s=0, k=0, n=8, [0.00, 0.00, 0.00])

Forces in eV/Ang:
  0 O    -0.08085   -0.00000    0.00000
  1 C     0.08390    0.00000    0.00000
  2 O    -0.00483   -0.00000    0.00000

BFGS:    4 02:59:18      -23.791517        0.0839
System changes: positions 

Initializing position-dependent things.

Density initialized from wave functions
             .------------------------------------------------.  
            /|                                                |  
           / |                                                |  
          /  |                                                |  
         /   |                                                |  
        /    |                                                |  
       /     |                                                |  
      /      |                                                |  
     /       |                                                |  
    /        |                                                |  
   /         |                                                |  
  /          |                                                |  
 *           |                                                |  
 |           |                                                |  
 |           |                                                |  
 |           |                                                |  
 |           |                                                |  
 |           |                                                |  
 |           |                                                |  
 |           |                 O  C  O                        |  
 |           |                                                |  
 |           |                                                |  
 |           |                                                |  
 |           |                                                |  
 |           |                                                |  
 |           .------------------------------------------------.  
 |          /                                                /   
 |         /                                                /    
 |        /                                                /     
 |       /                                                /      
 |      /                                                /       
 |     /                                                /        
 |    /                                                /         
 |   /                                                /          
 |  /                                                /           
 | /                                                /            
 |/                                                /             
 *------------------------------------------------*              

Positions:
   0 O      9.990310   10.000000   10.000000    ( 0.0000,  0.0000,  0.0000)
   1 C     11.161433   10.000000   10.000000    ( 0.0000,  0.0000,  0.0000)
   2 O     12.332582   10.000000   10.000000    ( 0.0000,  0.0000,  0.0000)

Unit cell:
           periodic     x           y           z      points  spacing
  1. axis:    no    20.000000    0.000000    0.000000   112     0.1786
  2. axis:    no     0.000000   20.000000    0.000000   112     0.1786
  3. axis:    no     0.000000    0.000000   20.000000   112     0.1786

  Lengths:  20.000000  20.000000  20.000000
  Angles:   90.000000  90.000000  90.000000

Effective grid spacing dv^(1/3) = 0.1786

     iter     time        total  log10-change:
                         energy  eigst   dens
iter:   1 02:59:19   -23.791554  -3.94
iter:   2 02:59:20   -23.791545  -4.42  -3.54
iter:   3 02:59:21   -23.791544c -5.10  -3.82
iter:   4 02:59:21   -23.791544c -5.44  -3.96
iter:   5 02:59:22   -23.791544c -6.04c -4.45c

Converged after 5 iterations.

Dipole moment: (-0.000120, 0.000000, 0.000000) |e|*Ang

Energy contributions relative to reference atoms: (reference = -5109.332718)

Kinetic:        +27.747377
Potential:      -32.244376
External:        +0.000000
XC:             -20.317078
Entropy (-ST):   +0.000000
Local:           +1.022534
--------------------------
Free energy:    -23.791544
Extrapolated:   -23.791544

 Band  Eigenvalues  Occupancy
    0    -29.08656    2.00000
    1    -28.07033    2.00000
    2    -13.84702    2.00000
    3    -12.68772    2.00000
    4    -12.67497    2.00000
    5    -12.67497    2.00000
    6     -9.08611    2.00000
    7     -9.08611    2.00000
    8     -0.98003    0.00000
    9     -0.50249    0.00000
   10     -0.50249    0.00000
   11      0.38108    0.00000

Fermi level: -5.03307

Gap: 8.106 eV
Transition (v -> c):
  (s=0, k=0, n=7, [0.00, 0.00, 0.00]) -> (s=0, k=0, n=8, [0.00, 0.00, 0.00])

Forces in eV/Ang:
  0 O    -0.00872    0.00000    0.00000
  1 C    -0.00213   -0.00000    0.00000
  2 O     0.00521    0.00000    0.00000

BFGS:    5 02:59:22      -23.791544        0.0087
System changes: positions, numbers, cell, pbc, initial_charges, initial_magmoms 

Initialize ...

species:
  O:
    name: Oxygen
    id: 32ecd46bf208036f09c70b0ec9a88b78
    Z: 8.0
    valence: 6
    core: 2
    charge: 0.0
    file: /home/modules/software/GPAW-setups/0.9.20000/O.PBE.gz
    compensation charges: {type: gauss,
                           rc: 0.21,
                           lmax: 2}
    cutoffs: {filter: 1.17,
              core: 0.83}
    valence states:
      #              energy  rcut
      - 2s(2.00)   -23.961   0.688
      - 2p(4.00)    -9.029   0.598
      -  s           3.251   0.688
      -  p          18.182   0.598
      -  d           0.000   0.619
  
    # LCAO basis set for O:
    #   Name: szp(dzp)
    #   File: /home/modules/software/GPAW-setups/0.9.20000/O.dzp.basis.gz
    #   Number of radial functions: 3
    #   Number of spherical harmonics: 9
    #     l=0, rc=4.3438 Bohr: 2s-sz confined orbital
    #     l=1, rc=5.3906 Bohr: 2p-sz confined orbital
    #     l=2, rc=5.3906 Bohr: d-type Gaussian polarization
    #   Number of RI-basis functions 0

  C:
    name: Carbon
    id: 4aa54d4b901d75f77cc0ea3eec22967b
    Z: 6.0
    valence: 4
    core: 2
    charge: 0.0
    file: /home/modules/software/GPAW-setups/0.9.20000/C.PBE.gz
    compensation charges: {type: gauss,
                           rc: 0.20,
                           lmax: 2}
    cutoffs: {filter: 1.14,
              core: 1.14}
    valence states:
      #              energy  rcut
      - 2s(2.00)   -13.751   0.635
      - 2p(2.00)    -5.284   0.635
      -  s          13.461   0.635
      -  p          21.927   0.635
      -  d           0.000   0.635
  
    # LCAO basis set for C:
    #   Name: szp(dzp)
    #   File: /home/modules/software/GPAW-setups/0.9.20000/C.dzp.basis.gz
    #   Number of radial functions: 3
    #   Number of spherical harmonics: 9
    #     l=0, rc=5.5469 Bohr: 2s-sz confined orbital
    #     l=1, rc=6.6719 Bohr: 2p-sz confined orbital
    #     l=2, rc=6.6719 Bohr: d-type Gaussian polarization
    #   Number of RI-basis functions 0

Reference energy: -5109.332718  # eV

Spin-paired calculation

Convergence criteria:
 Maximum [total energy] change in last 3 cyles: 0.0005 eV / electron
 Maximum integral of absolute [dens]ity change: 5e-06 electrons / valence electron
 Maximum integral of absolute [eigenst]ate change: 1 eV^2 / valence electron
 Maximum number of scf [iter]ations: 3000
 (Square brackets indicate name in SCF output, whereas a 'c' in
 the SCF output indicates the quantity has converged.)

Symmetries present (total): 8

  ( 1  0  0)  ( 1  0  0)  ( 1  0  0)  ( 1  0  0)  ( 1  0  0)  ( 1  0  0)
  ( 0  1  0)  ( 0  1  0)  ( 0  0  1)  ( 0  0  1)  ( 0  0 -1)  ( 0  0 -1)
  ( 0  0  1)  ( 0  0 -1)  ( 0  1  0)  ( 0 -1  0)  ( 0  1  0)  ( 0 -1  0)

  ( 1  0  0)  ( 1  0  0)
  ( 0 -1  0)  ( 0 -1  0)
  ( 0  0  1)  ( 0  0 -1)

1 k-point (Gamma)
1 k-point in the irreducible part of the Brillouin zone
       k-points in crystal coordinates                weights
   0:     0.00000000    0.00000000    0.00000000          1/1

Wave functions: Uniform real-space grid
  Kinetic energy operator: 6*3+1=19 point O(h^6) finite-difference Laplacian
  ScaLapack parameters: grid=1x1, blocksize=None
  Wavefunction extrapolation:
    Improved wavefunction reuse through dual PAW basis 

Occupation numbers: Fermi-Dirac:
  width: 0.1000  # eV
 

Eigensolver
   RMM-DIIS eigensolver
       keep_htpsit: True
       DIIS iterations: 3
       Threshold for DIIS: 1.0e-16
       Limit lambda: False
       use_rayleigh: False
       trial_step: 0.1 

Densities:
  Coarse grid: 112*112*112 grid
  Fine grid: 224*224*224 grid
  Total Charge: 0.000000 

Density mixing:
  Method: separate
  Backend: pulay
  Linear mixing parameter: 0.05
  old densities: 3
  Damping of long wavelength oscillations: 100 

Hamiltonian:
  XC and Coulomb potentials evaluated on a 224*224*224 grid
  Using the BEEF-vdW Exchange-Correlation functional
  Interpolation: tri-quintic (5. degree polynomial)
  Poisson solver: FastPoissonSolver using
    Stencil: 6*3+1=19 point O(h^6) finite-difference Laplacian
    FFT axes: []
    FST axes: [0, 1, 2]
 

XC parameters: BEEF-vdW with 2 nearest neighbor stencil

Memory estimate:
  Process memory now: 423.51 MiB
  Calculator: 19.81 MiB
    Density: 8.22 MiB
      Arrays: 6.65 MiB
      Localized functions: 0.07 MiB
      Mixer: 1.50 MiB
    Hamiltonian: 4.35 MiB
      Arrays: 4.35 MiB
      XC: 0.00 MiB
      Poisson: 0.00 MiB
      vbar: 0.01 MiB
    Wavefunctions: 7.24 MiB
      Arrays psit_nG: 2.99 MiB
      Eigensolver: 4.24 MiB
      Projections: 0.00 MiB
      Projectors: 0.01 MiB

Total number of cores used: 40
Domain decomposition: 5 x 4 x 2

Number of atoms: 3
Number of atomic orbitals: 27
Number of bands in calculation: 12
Number of valence electrons: 16
Bands to converge: occupied

/home/modules/software/GPAW/22.8.0-intel-2022a/lib/python3.10/site-packages/gpaw/eigensolvers/rmmdiis.py:127: RuntimeWarning: invalid value encountered in double_scalars
  errors_x[n - n1] = weight * integrate(Rb.array[n - n1],
/home/modules/software/GPAW/22.8.0-intel-2022a/lib/python3.10/site-packages/gpaw/eigensolvers/rmmdiis.py:127: RuntimeWarning: invalid value encountered in double_scalars
  errors_x[n - n1] = weight * integrate(Rb.array[n - n1],
/home/modules/software/GPAW/22.8.0-intel-2022a/lib/python3.10/site-packages/gpaw/eigensolvers/rmmdiis.py:127: RuntimeWarning: invalid value encountered in double_scalars
  errors_x[n - n1] = weight * integrate(Rb.array[n - n1],
/home/modules/software/GPAW/22.8.0-intel-2022a/lib/python3.10/site-packages/gpaw/eigensolvers/rmmdiis.py:127: RuntimeWarning: invalid value encountered in double_scalars
  errors_x[n - n1] = weight * integrate(Rb.array[n - n1],
/home/modules/software/GPAW/22.8.0-intel-2022a/lib/python3.10/site-packages/gpaw/eigensolvers/rmmdiis.py:127: RuntimeWarning: invalid value encountered in double_scalars
  errors_x[n - n1] = weight * integrate(Rb.array[n - n1],
/home/modules/software/GPAW/22.8.0-intel-2022a/lib/python3.10/site-packages/gpaw/eigensolvers/rmmdiis.py:127: RuntimeWarning: invalid value encountered in double_scalars
  errors_x[n - n1] = weight * integrate(Rb.array[n - n1],
/home/modules/software/GPAW/22.8.0-intel-2022a/lib/python3.10/site-packages/gpaw/eigensolvers/rmmdiis.py:127: RuntimeWarning: invalid value encountered in double_scalars
  errors_x[n - n1] = weight * integrate(Rb.array[n - n1],
/home/modules/software/GPAW/22.8.0-intel-2022a/lib/python3.10/site-packages/gpaw/eigensolvers/rmmdiis.py:127: RuntimeWarning: invalid value encountered in double_scalars
  errors_x[n - n1] = weight * integrate(Rb.array[n - n1],
/home/modules/software/GPAW/22.8.0-intel-2022a/lib/python3.10/site-packages/gpaw/eigensolvers/rmmdiis.py:127: RuntimeWarning: invalid value encountered in double_scalars
  errors_x[n - n1] = weight * integrate(Rb.array[n - n1],
/home/modules/software/GPAW/22.8.0-intel-2022a/lib/python3.10/site-packages/gpaw/eigensolvers/rmmdiis.py:127: RuntimeWarning: invalid value encountered in double_scalars
  errors_x[n - n1] = weight * integrate(Rb.array[n - n1],
/home/modules/software/GPAW/22.8.0-intel-2022a/lib/python3.10/site-packages/gpaw/eigensolvers/rmmdiis.py:127: RuntimeWarning: invalid value encountered in double_scalars
  errors_x[n - n1] = weight * integrate(Rb.array[n - n1],
/home/modules/software/GPAW/22.8.0-intel-2022a/lib/python3.10/site-packages/gpaw/eigensolvers/rmmdiis.py:127: RuntimeWarning: invalid value encountered in double_scalars
  errors_x[n - n1] = weight * integrate(Rb.array[n - n1],
/home/modules/software/GPAW/22.8.0-intel-2022a/lib/python3.10/site-packages/gpaw/eigensolvers/rmmdiis.py:127: RuntimeWarning: invalid value encountered in double_scalars
  errors_x[n - n1] = weight * integrate(Rb.array[n - n1],
/home/modules/software/GPAW/22.8.0-intel-2022a/lib/python3.10/site-packages/gpaw/eigensolvers/rmmdiis.py:127: RuntimeWarning: invalid value encountered in double_scalars
  errors_x[n - n1] = weight * integrate(Rb.array[n - n1],
/home/modules/software/GPAW/22.8.0-intel-2022a/lib/python3.10/site-packages/gpaw/eigensolvers/rmmdiis.py:127: RuntimeWarning: invalid value encountered in double_scalars
  errors_x[n - n1] = weight * integrate(Rb.array[n - n1],
/home/modules/software/GPAW/22.8.0-intel-2022a/lib/python3.10/site-packages/gpaw/eigensolvers/rmmdiis.py:127: RuntimeWarning: invalid value encountered in double_scalars
  errors_x[n - n1] = weight * integrate(Rb.array[n - n1],
/home/modules/software/GPAW/22.8.0-intel-2022a/lib/python3.10/site-packages/gpaw/eigensolvers/rmmdiis.py:127: RuntimeWarning: invalid value encountered in double_scalars
  errors_x[n - n1] = weight * integrate(Rb.array[n - n1],
/home/modules/software/GPAW/22.8.0-intel-2022a/lib/python3.10/site-packages/gpaw/eigensolvers/rmmdiis.py:127: RuntimeWarning: invalid value encountered in double_scalars
  errors_x[n - n1] = weight * integrate(Rb.array[n - n1],
/home/modules/software/GPAW/22.8.0-intel-2022a/lib/python3.10/site-packages/gpaw/eigensolvers/rmmdiis.py:127: RuntimeWarning: invalid value encountered in double_scalars
  errors_x[n - n1] = weight * integrate(Rb.array[n - n1],
/home/modules/software/GPAW/22.8.0-intel-2022a/lib/python3.10/site-packages/gpaw/eigensolvers/rmmdiis.py:127: RuntimeWarning: invalid value encountered in double_scalars
  errors_x[n - n1] = weight * integrate(Rb.array[n - n1],
/home/modules/software/GPAW/22.8.0-intel-2022a/lib/python3.10/site-packages/gpaw/eigensolvers/rmmdiis.py:127: RuntimeWarning: invalid value encountered in double_scalars
  errors_x[n - n1] = weight * integrate(Rb.array[n - n1],
/home/modules/software/GPAW/22.8.0-intel-2022a/lib/python3.10/site-packages/gpaw/eigensolvers/rmmdiis.py:127: RuntimeWarning: invalid value encountered in double_scalars
  errors_x[n - n1] = weight * integrate(Rb.array[n - n1],
/home/modules/software/GPAW/22.8.0-intel-2022a/lib/python3.10/site-packages/gpaw/eigensolvers/rmmdiis.py:127: RuntimeWarning: invalid value encountered in double_scalars
  errors_x[n - n1] = weight * integrate(Rb.array[n - n1],
/home/modules/software/GPAW/22.8.0-intel-2022a/lib/python3.10/site-packages/gpaw/eigensolvers/rmmdiis.py:127: RuntimeWarning: invalid value encountered in double_scalars
  errors_x[n - n1] = weight * integrate(Rb.array[n - n1],
/home/modules/software/GPAW/22.8.0-intel-2022a/lib/python3.10/site-packages/gpaw/eigensolvers/rmmdiis.py:127: RuntimeWarning: invalid value encountered in double_scalars
  errors_x[n - n1] = weight * integrate(Rb.array[n - n1],
/home/modules/software/GPAW/22.8.0-intel-2022a/lib/python3.10/site-packages/gpaw/eigensolvers/rmmdiis.py:127: RuntimeWarning: invalid value encountered in double_scalars
  errors_x[n - n1] = weight * integrate(Rb.array[n - n1],
/home/modules/software/GPAW/22.8.0-intel-2022a/lib/python3.10/site-packages/gpaw/eigensolvers/rmmdiis.py:127: RuntimeWarning: invalid value encountered in double_scalars
  errors_x[n - n1] = weight * integrate(Rb.array[n - n1],
/home/modules/software/GPAW/22.8.0-intel-2022a/lib/python3.10/site-packages/gpaw/eigensolvers/rmmdiis.py:127: RuntimeWarning: invalid value encountered in double_scalars
  errors_x[n - n1] = weight * integrate(Rb.array[n - n1],
... initialized

Initializing position-dependent things.

Density initialized from atomic densities
Creating initial wave functions:
  12 bands from LCAO basis set

             .------------------------------------------------.  
            /|                                                |  
           / |                                                |  
          /  |                                                |  
         /   |                                                |  
        /    |                                                |  
       /     |                                                |  
      /      |                                                |  
     /       |                                                |  
    /        |                                                |  
   /         |                                                |  
  /          |                                                |  
 *           |                                                |  
 |           |                                                |  
 |           |                                                |  
 |           |                                                |  
 |           |                                                |  
 |           |                                                |  
 |           |                                                |  
 |           |                 O  C  O                        |  
 |           |                                                |  
 |           |                                                |  
 |           |                                                |  
 |           |                                                |  
 |           |                                                |  
 |           .------------------------------------------------.  
 |          /                                                /   
 |         /                                                /    
 |        /                                                /     
 |       /                                                /      
 |      /                                                /       
 |     /                                                /        
 |    /                                                /         
 |   /                                                /          
 |  /                                                /           
 | /                                                /            
 |/                                                /             
 *------------------------------------------------*              

Positions:
   0 O      9.990310   10.000000   10.000000    ( 0.0000,  0.0000,  0.0000)
   1 C     11.161433   10.000000   10.000000    ( 0.0000,  0.0000,  0.0000)
   2 O     12.332582   10.000000   10.000000    ( 0.0000,  0.0000,  0.0000)

Unit cell:
           periodic     x           y           z      points  spacing
  1. axis:    no    20.000000    0.000000    0.000000   112     0.1786
  2. axis:    no     0.000000   20.000000    0.000000   112     0.1786
  3. axis:    no     0.000000    0.000000   20.000000   112     0.1786

  Lengths:  20.000000  20.000000  20.000000
  Angles:   90.000000  90.000000  90.000000

Effective grid spacing dv^(1/3) = 0.1786

     iter     time        total  log10-change:
                         energy  eigst   dens
iter:   1 02:59:40   -50.613053   +nan
iter:   2 02:59:52   -55.331651  +0.31  -0.93
iter:   3 03:00:03   -54.711242  -0.35c -1.00
iter:   4 03:00:15   -54.717529  -0.64c -1.24
iter:   5 03:00:27   -54.767974  -0.81c -1.39
iter:   6 03:00:39   -54.773195  -1.46c -1.70
iter:   7 03:00:50   -54.773601c -2.10c -2.08
iter:   8 03:01:02   -54.773808c -2.85c -2.11
iter:   9 03:01:14   -54.765231  -1.57c -2.15
iter:  10 03:01:26   -54.768242  -2.09c -2.35
iter:  11 03:01:37   -54.768937c -2.83c -2.53
iter:  12 03:01:49   -54.769107c -2.61c -2.66
iter:  13 03:02:01   -54.769092c -1.83c -2.66
iter:  14 03:02:13   -54.769334c -2.66c -2.72
iter:  15 03:02:24   -54.769497c -3.23c -2.93
iter:  16 03:02:36   -54.769071c -2.16c -2.94
iter:  17 03:02:48   -54.769299c -2.93c -3.08
iter:  18 03:03:00   -54.769109c -2.54c -3.17
iter:  19 03:03:12   -54.769041c -2.10c -3.19
iter:  20 03:03:23   -54.769114c -2.43c -3.06
iter:  21 03:03:35   -54.769164c -2.80c -3.31
iter:  22 03:03:47   -54.769036c -2.03c -3.37
iter:  23 03:03:59   -54.769189c -2.33c -3.42
iter:  24 03:04:10   -54.769262c -2.77c -3.64
iter:  25 03:04:22   -54.769282c -3.37c -3.99
iter:  26 03:04:34   -54.768871c -1.76c -4.01
iter:  27 03:04:46   -54.769141c -2.32c -3.77
iter:  28 03:04:57   -54.769317c -2.74c -3.95
iter:  29 03:05:09   -54.769305c -3.36c -3.96
iter:  30 03:05:21   -54.769217c -2.84c -4.01
iter:  31 03:05:33   -54.769127c -2.48c -4.09
iter:  32 03:05:45   -54.843338  -2.77c -4.45
iter:  33 03:05:56   -54.768802  +2.53  -0.87
iter:  34 03:06:08   -54.769620  -3.08c -4.37
iter:  35 03:06:20   -54.769177c -2.26c -4.43
iter:  36 03:06:32   -54.768761c -2.13c -4.43
iter:  37 03:06:43   -54.769265c -2.37c -4.44
iter:  38 03:06:55   -54.769438c -2.69c -4.36
iter:  39 03:07:07   -54.769471c -3.16c -4.33
iter:  40 03:07:19   -54.769479c -4.17c -4.42
iter:  41 03:07:30   -54.769435c -3.16c -4.43
iter:  42 03:07:42   -54.769445c -3.52c -4.48
iter:  43 03:07:54   -54.769437c -3.43c -4.52
iter:  44 03:08:06   -54.769426c -3.38c -4.69
iter:  45 03:08:17   -54.769357c -3.09c -4.85
iter:  46 03:08:29   -54.769380c -4.10c -4.90
iter:  47 03:08:41   -54.769356c -3.37c -4.89
iter:  48 03:08:53   -54.769381c -3.32c -4.84
iter:  49 03:09:04   -54.769376c -2.94c -4.91
iter:  50 03:09:16   -54.769356c -3.24c -4.94
iter:  51 03:09:28   -54.769157c -2.71c -4.99
iter:  52 03:09:40   -54.768984c -3.09c -5.21
iter:  53 03:09:51   -54.767586c -2.45c -4.43
iter:  54 03:10:03   -54.762781c -0.84c -3.47
iter:  55 03:10:15   -54.979391  +1.77  -2.80
iter:  56 03:10:27   -54.768075  +2.42  -0.76
iter:  57 03:10:38   -54.769344  -3.34c -4.97
iter:  58 03:10:50   -54.769366c -4.21c -5.06
iter:  59 03:11:02   -54.769366c -4.91c -5.11
iter:  60 03:11:14   -54.769359c -4.36c -5.13
iter:  61 03:11:25   -54.769235c -2.98c -5.15
iter:  62 03:11:37   -54.769243c -3.81c -5.36c

Converged after 62 iterations.

Dipole moment: (-0.000034, -0.000000, -0.000000) |e|*Ang

Energy contributions relative to reference atoms: (reference = -5109.332718)

Kinetic:        +35.743977
Potential:      -39.146414
External:        +0.000000
XC:             -52.339226
Entropy (-ST):   -0.000000
Local:           +0.972421
--------------------------
Free energy:    -54.769243
Extrapolated:   -54.769243

 Band  Eigenvalues  Occupancy
    0    -29.52261    2.00000
    1    -28.49854    2.00000
    2    -14.24320    2.00000
    3    -13.06172    2.00000
    4    -12.95955    2.00000
    5    -12.95955    2.00000
    6     -9.42443    2.00000
    7     -9.42443    2.00000
    8     -5.58616    0.00000
    9     -5.58616    0.00000
   10     -5.48469    0.00000
   11     19.74010    0.00000

Fermi level: -7.51323

Gap: 3.838 eV
Transition (v -> c):
  (s=0, k=0, n=7, [0.00, 0.00, 0.00]) -> (s=0, k=0, n=8, [0.00, 0.00, 0.00])

Forces in eV/Ang:
  0 O     0.32276    0.00000    0.00000
  1 C    -0.00193    0.00000    0.00000
  2 O    -0.33453   -0.00000    0.00000

      Step     Time          Energy         fmax
BFGS:    0 03:11:37      -54.769243        0.3345
System changes: positions 

Initializing position-dependent things.

Density initialized from wave functions
             .------------------------------------------------.  
            /|                                                |  
           / |                                                |  
          /  |                                                |  
         /   |                                                |  
        /    |                                                |  
       /     |                                                |  
      /      |                                                |  
     /       |                                                |  
    /        |                                                |  
   /         |                                                |  
  /          |                                                |  
 *           |                                                |  
 |           |                                                |  
 |           |                                                |  
 |           |                                                |  
 |           |                                                |  
 |           |                                                |  
 |           |                                                |  
 |           |                 O  C  O                        |  
 |           |                                                |  
 |           |                                                |  
 |           |                                                |  
 |           |                                                |  
 |           |                                                |  
 |           .------------------------------------------------.  
 |          /                                                /   
 |         /                                                /    
 |        /                                                /     
 |       /                                                /      
 |      /                                                /       
 |     /                                                /        
 |    /                                                /         
 |   /                                                /          
 |  /                                                /           
 | /                                                /            
 |/                                                /             
 *------------------------------------------------*              

Positions:
   0 O      9.994921   10.000000   10.000000    ( 0.0000,  0.0000,  0.0000)
   1 C     11.161406   10.000000   10.000000    ( 0.0000,  0.0000,  0.0000)
   2 O     12.327803   10.000000   10.000000    ( 0.0000,  0.0000,  0.0000)

Unit cell:
           periodic     x           y           z      points  spacing
  1. axis:    no    20.000000    0.000000    0.000000   112     0.1786
  2. axis:    no     0.000000   20.000000    0.000000   112     0.1786
  3. axis:    no     0.000000    0.000000   20.000000   112     0.1786

  Lengths:  20.000000  20.000000  20.000000
  Angles:   90.000000  90.000000  90.000000

Effective grid spacing dv^(1/3) = 0.1786

     iter     time        total  log10-change:
                         energy  eigst   dens
iter:   1 03:11:49   -54.768237  -1.46c
iter:   2 03:12:01   -54.770436  -2.70c -2.71
iter:   3 03:12:13   -54.770611c -1.82c -2.67
iter:   4 03:12:24   -54.769135c -2.20c -2.50
iter:   5 03:12:36   -54.769588c -2.79c -3.01
iter:   6 03:12:48   -54.757618  -2.72c -3.26
iter:   7 03:13:00   -54.769963  +0.86  -2.36
iter:   8 03:13:11   -54.770169  -3.84c -3.09
iter:   9 03:13:23   -54.770229c -3.34c -3.06
iter:  10 03:13:35   -54.770229c -4.03c -3.15
iter:  11 03:13:47   -54.770250c -3.40c -3.17
iter:  12 03:13:58   -54.770201c -3.76c -3.06
iter:  13 03:14:10   -54.770060c -3.19c -3.02
iter:  14 03:14:22   -54.769954c -3.10c -3.22
iter:  15 03:14:34   -54.770175c -3.24c -3.25
iter:  16 03:14:45   -54.770236c -3.64c -3.11
iter:  17 03:14:57   -54.770283c -3.31c -3.27
iter:  18 03:15:09   -54.770210c -3.98c -3.62
iter:  19 03:15:21   -54.770113c -3.92c -3.73
iter:  20 03:15:33   -54.770189c -3.93c -3.83
iter:  21 03:15:44   -54.770030c -3.03c -3.76
iter:  22 03:15:56   -54.770020c -2.99c -3.95
iter:  23 03:16:08   -54.769950c -2.67c -4.04
iter:  24 03:16:20   -54.770052c -4.23c -4.19
iter:  25 03:16:31   -54.769965c -2.81c -4.20
iter:  26 03:16:43   -54.770054c -3.58c -4.24
iter:  27 03:16:55   -54.769806c -2.41c -4.15
iter:  28 03:17:07   -54.769970c -3.73c -4.32
iter:  29 03:17:18   -54.769939c -3.74c -4.46
iter:  30 03:17:30   -54.769874c -2.50c -4.52
iter:  31 03:17:42   -54.770047c -3.41c -4.56
iter:  32 03:17:54   -54.769755c -2.32c -4.52
iter:  33 03:18:05   -54.769881c -2.76c -4.58
iter:  34 03:18:17   -54.769654c -2.01c -4.64
iter:  35 03:18:29   -54.769830c -2.28c -4.74
iter:  36 03:18:41   -54.769859c -2.46c -4.96
iter:  37 03:18:53   -54.769892c -2.80c -4.90
iter:  38 03:19:04   -54.721887  -2.82c -4.84
iter:  39 03:19:16   -54.769660  +1.80  -1.37
iter:  40 03:19:28   -54.769905  -2.97c -4.89
iter:  41 03:19:40   -54.769901c -2.80c -4.88
iter:  42 03:19:51   -54.769839c -2.64c -4.93
iter:  43 03:20:03   -54.769718c -2.30c -4.95
iter:  44 03:20:15   -54.769957c -3.01c -5.03
iter:  45 03:20:27   -54.770003c -3.82c -4.95
iter:  46 03:20:38   -54.769992c -3.13c -4.86
iter:  47 03:20:50   -54.769969c -3.49c -4.93
iter:  48 03:21:02   -54.769836c -3.11c -5.07
iter:  49 03:21:14   -54.769908c -3.38c -5.30
iter:  50 03:21:25   -54.769818c -4.16c -5.31c

Converged after 50 iterations.

Dipole moment: (-0.000020, 0.000000, -0.000000) |e|*Ang

Energy contributions relative to reference atoms: (reference = -5109.332718)

Kinetic:        +36.947398
Potential:      -40.088052
External:        +0.000000
XC:             -52.600213
Entropy (-ST):   -0.000220
Local:           +0.971159
--------------------------
Free energy:    -54.769928
Extrapolated:   -54.769818

 Band  Eigenvalues  Occupancy
    0    -29.57716    2.00000
    1    -28.55402    2.00000
    2    -14.21723    2.00000
    3    -13.06120    2.00000
    4    -13.00048    2.00000
    5    -13.00048    2.00000
    6     -9.42702    1.99995
    7     -9.42702    1.99995
    8     -7.28660    0.00004
    9     -7.28660    0.00004
   10     -7.10164    0.00001
   11     18.64474    0.00000

Fermi level: -8.36060

Gap: 2.140 eV
Transition (v -> c):
  (s=0, k=0, n=7, [0.00, 0.00, 0.00]) -> (s=0, k=0, n=8, [0.00, 0.00, 0.00])

Forces in eV/Ang:
  0 O    -0.17926    0.00000    0.00000
  1 C    -0.01180    0.00000    0.00000
  2 O     0.18296    0.00000    0.00000

BFGS:    1 03:21:25      -54.769818        0.1830
System changes: positions 

Initializing position-dependent things.

Density initialized from wave functions
             .------------------------------------------------.  
            /|                                                |  
           / |                                                |  
          /  |                                                |  
         /   |                                                |  
        /    |                                                |  
       /     |                                                |  
      /      |                                                |  
     /       |                                                |  
    /        |                                                |  
   /         |                                                |  
  /          |                                                |  
 *           |                                                |  
 |           |                                                |  
 |           |                                                |  
 |           |                                                |  
 |           |                                                |  
 |           |                                                |  
 |           |                                                |  
 |           |                 O  C  O                        |  
 |           |                                                |  
 |           |                                                |  
 |           |                                                |  
 |           |                                                |  
 |           |                                                |  
 |           .------------------------------------------------.  
 |          /                                                /   
 |         /                                                /    
 |        /                                                /     
 |       /                                                /      
 |      /                                                /       
 |     /                                                /        
 |    /                                                /         
 |   /                                                /          
 |  /                                                /           
 | /                                                /            
 |/                                                /             
 *------------------------------------------------*              

Positions:
   0 O      9.993271   10.000000   10.000000    ( 0.0000,  0.0000,  0.0000)
   1 C     11.161297   10.000000   10.000000    ( 0.0000,  0.0000,  0.0000)
   2 O     12.329487   10.000000   10.000000    ( 0.0000,  0.0000,  0.0000)

Unit cell:
           periodic     x           y           z      points  spacing
  1. axis:    no    20.000000    0.000000    0.000000   112     0.1786
  2. axis:    no     0.000000   20.000000    0.000000   112     0.1786
  3. axis:    no     0.000000    0.000000   20.000000   112     0.1786

  Lengths:  20.000000  20.000000  20.000000
  Angles:   90.000000  90.000000  90.000000

Effective grid spacing dv^(1/3) = 0.1786

     iter     time        total  log10-change:
                         energy  eigst   dens
iter:   1 03:21:37   -54.770062  -1.58c
iter:   2 03:21:49   -54.770426  -3.42c -3.15
iter:   3 03:22:01   -54.770398c -2.46c -3.11
iter:   4 03:22:13   -54.770138c -2.55c -2.95
iter:   5 03:22:24   -54.763867c -3.19c -3.46
iter:   6 03:22:36   -54.770416c +0.40  -2.75
iter:   7 03:22:48   -54.770604c -2.99c -3.52
iter:   8 03:23:00   -54.770662c -2.74c -3.57
iter:   9 03:23:11   -54.770783c -3.01c -3.61
iter:  10 03:23:23   -54.770815c -3.21c -3.52
iter:  11 03:23:35   -54.770838c -4.13c -3.57
iter:  12 03:23:47   -54.770836c -4.04c -3.57
iter:  13 03:23:59   -54.770839c -4.31c -3.73
iter:  14 03:24:10   -54.770840c -3.83c -3.74
iter:  15 03:24:22   -54.770839c -4.22c -3.70
iter:  16 03:24:34   -54.770722c -3.05c -3.74
iter:  17 03:24:46   -54.770799c -3.11c -3.70
iter:  18 03:24:57   -54.770823c -4.29c -3.83
iter:  19 03:25:09   -54.770676c -3.02c -3.75
iter:  20 03:25:21   -54.770735c -3.38c -4.11
iter:  21 03:25:33   -54.770756c -3.99c -4.10
iter:  22 03:25:45   -54.770681c -4.45c -4.09
iter:  23 03:25:56   -54.770902c -1.81c -4.11
iter:  24 03:26:08   -54.770958c -3.97c -4.14
iter:  25 03:26:20   -54.770834c -3.57c -4.11
iter:  26 03:26:32   -54.770752c -4.27c -4.13
iter:  27 03:26:43   -54.770811c -2.89c -4.14
iter:  28 03:26:55   -54.770605c -2.94c -4.38
iter:  29 03:27:07   -54.770445c -2.87c -4.76
iter:  30 03:27:19   -54.770165c -3.77c -4.85
iter:  31 03:27:31   -54.770586c -1.82c -4.28
iter:  32 03:27:42   -54.770439c -2.42c -4.77
iter:  33 03:27:54   -54.770479c -2.48c -4.67
iter:  34 03:28:06   -54.770646c -3.31c -4.74
iter:  35 03:28:18   -54.770391c -2.38c -4.72
iter:  36 03:28:29   -54.770451c -3.07c -4.95
iter:  37 03:28:41   -54.770465c -3.12c -5.05
iter:  38 03:28:53   -54.770444c -3.27c -5.05
iter:  39 03:29:05   -54.770339c -2.65c -5.05
iter:  40 03:29:16   -54.770408c -3.43c -5.19
iter:  41 03:29:28   -54.770422c -4.37c -5.19
iter:  42 03:29:40   -54.770446c -3.48c -5.19
iter:  43 03:29:52   -54.770426c -3.22c -5.19
iter:  44 03:30:04   -54.770406c -3.75c -5.19
iter:  45 03:30:15   -54.770398c -4.42c -5.22
iter:  46 03:30:27   -54.770295c -2.84c -5.24
iter:  47 03:30:39   -54.770240c -3.05c -5.36c

Converged after 47 iterations.

Dipole moment: (-0.000263, -0.000000, -0.000000) |e|*Ang

Energy contributions relative to reference atoms: (reference = -5109.332718)

Kinetic:        +36.515537
Potential:      -39.750470
External:        +0.000000
XC:             -52.506779
Entropy (-ST):   -0.000001
Local:           +0.971472
--------------------------
Free energy:    -54.770240
Extrapolated:   -54.770240

 Band  Eigenvalues  Occupancy
    0    -29.55811    2.00000
    1    -28.53462    2.00000
    2    -14.22678    2.00000
    3    -13.06172    2.00000
    4    -12.98621    2.00000
    5    -12.98621    2.00000
    6     -9.42643    2.00000
    7     -9.42643    2.00000
    8     -6.10752    0.00000
    9     -6.01401    0.00000
   10     -6.01401    0.00000
   11      6.79404    0.00000

Fermi level: -7.76129

Gap: 3.319 eV
Transition (v -> c):
  (s=0, k=0, n=7, [0.00, 0.00, 0.00]) -> (s=0, k=0, n=8, [0.00, 0.00, 0.00])

Forces in eV/Ang:
  0 O    -0.00972    0.00000    0.00000
  1 C     0.01155   -0.00000    0.00000
  2 O    -0.01116   -0.00000    0.00000

BFGS:    2 03:30:39      -54.770240        0.0116
System changes: numbers, positions 

Initialize ...

species:
  H:
    name: Hydrogen
    id: d65de229564ff8ea4db303e23b6d1ecf
    Z: 1.0
    valence: 1
    core: 0
    charge: 0.0
    file: /home/modules/software/GPAW-setups/0.9.20000/H.PBE.gz
    compensation charges: {type: gauss,
                           rc: 0.15,
                           lmax: 2}
    cutoffs: {filter: 0.85,
              core: 0.53}
    valence states:
      #              energy  rcut
      - 1s(1.00)    -6.494   0.476
      -  s          20.717   0.476
      -  p           0.000   0.476
  
    # LCAO basis set for H:
    #   Name: dzp
    #   File: /home/modules/software/GPAW-setups/0.9.20000/H.dzp.basis.gz
    #   Number of radial functions: 3
    #   Number of spherical harmonics: 5
    #     l=0, rc=6.4219 Bohr: 1s-sz confined orbital
    #     l=0, rc=3.6094 Bohr: 1s-dz split-valence wave
    #     l=1, rc=6.4219 Bohr: p-type Gaussian polarization
    #   Number of RI-basis functions 0

Reference energy: -24.980324  # eV

Spin-paired calculation

Convergence criteria:
 Maximum [total energy] change in last 3 cyles: 0.0005 eV / electron
 Maximum integral of absolute [dens]ity change: 0.0001 electrons / valence electron
 Maximum integral of absolute [eigenst]ate change: 1e-06 eV^2 / valence electron
 Maximum number of scf [iter]ations: 333
 (Square brackets indicate name in SCF output, whereas a 'c' in
 the SCF output indicates the quantity has converged.)

Symmetries present (total): 8

  ( 1  0  0)  ( 1  0  0)  ( 1  0  0)  ( 1  0  0)  ( 1  0  0)  ( 1  0  0)
  ( 0  1  0)  ( 0  1  0)  ( 0  0  1)  ( 0  0  1)  ( 0  0 -1)  ( 0  0 -1)
  ( 0  0  1)  ( 0  0 -1)  ( 0  1  0)  ( 0 -1  0)  ( 0  1  0)  ( 0 -1  0)

  ( 1  0  0)  ( 1  0  0)
  ( 0 -1  0)  ( 0 -1  0)
  ( 0  0  1)  ( 0  0 -1)

1 k-point (Gamma)
1 k-point in the irreducible part of the Brillouin zone
       k-points in crystal coordinates                weights
   0:     0.00000000    0.00000000    0.00000000          1/1

Wave functions: Uniform real-space grid
  Kinetic energy operator: 6*3+1=19 point O(h^6) finite-difference Laplacian
  ScaLapack parameters: grid=1x1, blocksize=None
  Wavefunction extrapolation:
    Improved wavefunction reuse through dual PAW basis 

Occupation numbers: # Zero width 

Eigensolver
   Davidson(niter=2) 

Densities:
  Coarse grid: 112*112*112 grid
  Fine grid: 224*224*224 grid
  Total Charge: 0.000000 

Density mixing:
  Method: separate
  Backend: pulay
  Linear mixing parameter: 0.25
  old densities: 3
  Damping of long wavelength oscillations: 1  # (no daming) 

Hamiltonian:
  XC and Coulomb potentials evaluated on a 224*224*224 grid
  Using the PBE Exchange-Correlation functional
  Interpolation: tri-quintic (5. degree polynomial)
  Poisson solver: FastPoissonSolver using
    Stencil: 6*3+1=19 point O(h^6) finite-difference Laplacian
    FFT axes: []
    FST axes: [0, 1, 2]
 

XC parameters: PBE with 2 nearest neighbor stencil

Memory estimate:
  Process memory now: 2684.07 MiB
  Calculator: 14.75 MiB
    Density: 8.16 MiB
      Arrays: 6.65 MiB
      Localized functions: 0.02 MiB
      Mixer: 1.50 MiB
    Hamiltonian: 4.35 MiB
      Arrays: 4.35 MiB
      XC: 0.00 MiB
      Poisson: 0.00 MiB
      vbar: 0.00 MiB
    Wavefunctions: 2.24 MiB
      Arrays psit_nG: 0.50 MiB
      Eigensolver: 1.75 MiB
      Projections: 0.00 MiB
      Projectors: 0.00 MiB

Total number of cores used: 40
Domain decomposition: 5 x 4 x 2

Number of atoms: 2
Number of atomic orbitals: 10
Number of bands in calculation: 2
Number of valence electrons: 2
Bands to converge: occupied

... initialized

Initializing position-dependent things.

Density initialized from atomic densities
Creating initial wave functions:
  2 bands from LCAO basis set

             .------------------------------------------------.  
            /|                                                |  
           / |                                                |  
          /  |                                                |  
         /   |                                                |  
        /    |                                                |  
       /     |                                                |  
      /      |                                                |  
     /       |                                                |  
    /        |                                                |  
   /         |                                                |  
  /          |                                                |  
 *           |                                                |  
 |           |                                                |  
 |           |                                                |  
 |           |                                                |  
 |           |                                                |  
 |           |                                                |  
 |           |                                                |  
 |           |                 H H                            |  
 |           |                                                |  
 |           |                                                |  
 |           |                                                |  
 |           |                                                |  
 |           |                                                |  
 |           .------------------------------------------------.  
 |          /                                                /   
 |         /                                                /    
 |        /                                                /     
 |       /                                                /      
 |      /                                                /       
 |     /                                                /        
 |    /                                                /         
 |   /                                                /          
 |  /                                                /           
 | /                                                /            
 |/                                                /             
 *------------------------------------------------*              

Positions:
   0 H     10.000000   10.000000   10.000000    ( 0.0000,  0.0000,  0.0000)
   1 H     10.740000   10.000000   10.000000    ( 0.0000,  0.0000,  0.0000)

Unit cell:
           periodic     x           y           z      points  spacing
  1. axis:    no    20.000000    0.000000    0.000000   112     0.1786
  2. axis:    no     0.000000   20.000000    0.000000   112     0.1786
  3. axis:    no     0.000000    0.000000   20.000000   112     0.1786

  Lengths:  20.000000  20.000000  20.000000
  Angles:   90.000000  90.000000  90.000000

Effective grid spacing dv^(1/3) = 0.1786

     iter     time        total  log10-change:
                         energy  eigst   dens
iter:   1 03:30:40    -7.233908   +nan
iter:   2 03:30:41    -6.993268  -0.21  -0.46
iter:   3 03:30:41    -6.762096  +0.22  -0.61
iter:   4 03:30:42    -6.752552  -0.96  -1.33
iter:   5 03:30:43    -6.752745  -0.84  -1.79
iter:   6 03:30:44    -6.752162c -2.05  -1.93
iter:   7 03:30:45    -6.752133c -3.97  -2.65
iter:   8 03:30:45    -6.752133c -4.25  -3.39
iter:   9 03:30:46    -6.752133c -5.22  -3.62
iter:  10 03:30:47    -6.752133c -5.60  -4.00
iter:  11 03:30:48    -6.752134c -6.10c -4.31c

Converged after 11 iterations.

Dipole moment: (-0.000001, -0.000000, 0.000000) |e|*Ang

Energy contributions relative to reference atoms: (reference = -24.980324)

Kinetic:         +6.853815
Potential:       -8.461886
External:        +0.000000
XC:              -5.127297
Entropy (-ST):   +0.000000
Local:           -0.016766
--------------------------
Free energy:     -6.752134
Extrapolated:    -6.752134

 Band  Eigenvalues  Occupancy
    0    -10.38882    2.00000
    1      0.30294    0.00000

Fermi level: -5.04294

Gap: 10.692 eV
Transition (v -> c):
  (s=0, k=0, n=0, [0.00, 0.00, 0.00]) -> (s=0, k=0, n=1, [0.00, 0.00, 0.00])

Forces in eV/Ang:
  0 H    -0.39084   -0.00000    0.00000
  1 H     0.39384    0.00000    0.00000

      Step     Time          Energy         fmax
BFGS:    0 03:30:48       -6.752134        0.3938
System changes: positions 

Initializing position-dependent things.

Density initialized from wave functions
             .------------------------------------------------.  
            /|                                                |  
           / |                                                |  
          /  |                                                |  
         /   |                                                |  
        /    |                                                |  
       /     |                                                |  
      /      |                                                |  
     /       |                                                |  
    /        |                                                |  
   /         |                                                |  
  /          |                                                |  
 *           |                                                |  
 |           |                                                |  
 |           |                                                |  
 |           |                                                |  
 |           |                                                |  
 |           |                                                |  
 |           |                                                |  
 |           |                 H H                            |  
 |           |                                                |  
 |           |                                                |  
 |           |                                                |  
 |           |                                                |  
 |           |                                                |  
 |           .------------------------------------------------.  
 |          /                                                /   
 |         /                                                /    
 |        /                                                /     
 |       /                                                /      
 |      /                                                /       
 |     /                                                /        
 |    /                                                /         
 |   /                                                /          
 |  /                                                /           
 | /                                                /            
 |/                                                /             
 *------------------------------------------------*              

Positions:
   0 H      9.994417   10.000000   10.000000    ( 0.0000,  0.0000,  0.0000)
   1 H     10.745626   10.000000   10.000000    ( 0.0000,  0.0000,  0.0000)

Unit cell:
[...]
            /|                                                |  
           / |                                                |  
          /  |                                                |  
         /   |                                                |  
        /    |                                                |  
       /     |                                                |  
      /      |                                                |  
     /       |                                                |  
    /        |                                                |  
   /         |                                                |  
  /          |                                                |  
 *           |                                                |  
 |           |                                                |  
 |           |                                                |  
 |           |                                                |  
 |           |                                                |  
 |           |                                                |  
 |           |                                                |  
 |           |                  C  O                          |  
 |           |                                                |  
 |           |                                                |  
 |           |                                                |  
 |           |                                                |  
 |           |                                                |  
 |           .------------------------------------------------.  
 |          /                                                /   
 |         /                                                /    
 |        /                                                /     
 |       /                                                /      
 |      /                                                /       
 |     /                                                /        
 |    /                                                /         
 |   /                                                /          
 |  /                                                /           
 | /                                                /            
 |/                                                /             
 *------------------------------------------------*              

Positions:
   0 C     10.148107   10.000000   10.000000    ( 0.0000,  0.0000,  0.0000)
   1 O     11.282379   10.000000   10.000000    ( 0.0000,  0.0000,  0.0000)

Unit cell:
           periodic     x           y           z      points  spacing
  1. axis:    no    20.000000    0.000000    0.000000   112     0.1786
  2. axis:    no     0.000000   20.000000    0.000000   112     0.1786
  3. axis:    no     0.000000    0.000000   20.000000   112     0.1786

  Lengths:  20.000000  20.000000  20.000000
  Angles:   90.000000  90.000000  90.000000

Effective grid spacing dv^(1/3) = 0.1786

     iter     time        total  log10-change:
                         energy  eigst   dens
iter:   1 10:27:19   -34.804103  -0.75c
iter:   2 10:27:31   -34.805001  -2.83c -2.79
iter:   3 10:27:43   -34.805185c -2.63c -2.78
iter:   4 10:27:54   -34.804623c -2.13c -2.66
iter:   5 10:28:06   -34.804685c -2.22c -3.26
iter:   6 10:28:18   -34.804827c -2.55c -3.34
iter:   7 10:28:30   -34.804450c -1.92c -3.13
iter:   8 10:28:41   -34.781348  -2.62c -3.56
iter:   9 10:28:53   -34.804883  +1.55  -1.74
iter:  10 10:29:05   -34.804695  -2.15c -3.63
iter:  11 10:29:17   -34.804814c -2.79c -3.74
iter:  12 10:29:28   -34.804779c -2.76c -3.82
iter:  13 10:29:40   -34.804619c -2.13c -3.84
iter:  14 10:29:52   -34.804653c -2.28c -3.84
iter:  15 10:30:03   -34.804658c -2.24c -4.17
iter:  16 10:30:15   -40.664885  +2.01  -4.38
iter:  17 10:30:27   -34.804730  -2.21c -0.40
iter:  18 10:30:39   -34.804503  -2.06c -4.22
iter:  19 10:30:50   -34.804629c -1.97c -4.02
iter:  20 10:31:02   -34.804622c -2.29c -4.19
iter:  21 10:31:14   -34.804922c -2.15c -3.94
iter:  22 10:31:25   -34.805052c -3.10c -4.02
iter:  23 10:31:37   -34.804999c -2.96c -4.22
iter:  24 10:31:49   -34.804668c -2.38c -4.28
iter:  25 10:32:01   -34.804856c -3.21c -4.13
iter:  26 10:32:12   -34.804694c -2.51c -4.09
iter:  27 10:32:24   -34.804576c -2.55c -4.41
iter:  28 10:32:36   -34.804623c -2.42c -4.54
iter:  29 10:32:47   -34.804825c -2.80c -4.48
iter:  30 10:32:59   -34.804606c -2.70c -4.40
iter:  31 10:33:11   -34.804660c -2.78c -4.60
iter:  32 10:33:23   -34.804754c -2.92c -4.64
iter:  33 10:33:34   -34.804812c -3.27c -4.64
iter:  34 10:33:46   -34.804549c -3.03c -4.62
iter:  35 10:33:58   -34.804782c -1.09c -4.08
iter:  36 10:34:09   -34.804713c -3.23c -4.65
iter:  37 10:34:21   -34.804725c -3.76c -4.72
iter:  38 10:34:33   -34.804443c -3.49c -4.70
iter:  39 10:34:45   -34.804628c -0.55c -4.01
iter:  40 10:34:56   -34.804671c -3.81c -4.76
iter:  41 10:35:08   -34.804658c -3.64c -4.77
iter:  42 10:35:20   -34.804534c -2.50c -4.79
iter:  43 10:35:31   -34.804577c -2.62c -4.99
iter:  44 10:35:43   -34.804649c -3.07c -5.18
iter:  45 10:35:55   -34.804681c -3.48c -4.98
iter:  46 10:36:07   -34.804673c -2.73c -4.62
iter:  47 10:36:18   -36.542339  +2.30  -4.61
iter:  48 10:36:30   -34.804554  +1.16  -0.41
iter:  49 10:36:42   -34.804592  -2.90c -5.01
iter:  50 10:36:53   -34.804597c -3.26c -5.12
iter:  51 10:37:05   -34.804571c -3.04c -5.17
iter:  52 10:37:17   -34.804543c -2.84c -5.26
iter:  53 10:37:29   -34.804522c -2.78c -5.42c

Converged after 53 iterations.

Dipole moment: (0.026309, 0.000000, 0.000000) |e|*Ang

Energy contributions relative to reference atoms: (reference = -3068.480417)

Kinetic:        +22.512538
Potential:      -26.193027
External:        +0.000000
XC:             -31.627350
Entropy (-ST):   -0.000000
Local:           +0.503317
--------------------------
Free energy:    -34.804522
Extrapolated:   -34.804522

 Band  Eigenvalues  Occupancy
    0    -29.61265    2.00000
    1    -14.48025    2.00000
    2    -12.05118    2.00000
    3    -12.05118    2.00000
    4     -9.43618    2.00000
    5     -4.95198    0.00000
    6     -4.95198    0.00000
    7     26.78138    0.00000

Fermi level: -7.21852

Gap: 4.484 eV
Transition (v -> c):
  (s=0, k=0, n=4, [0.00, 0.00, 0.00]) -> (s=0, k=0, n=5, [0.00, 0.00, 0.00])

Forces in eV/Ang:
  0 C     0.00116    0.00000    0.00000
  1 O    -0.01209   -0.00000    0.00000

BFGS:    2 10:37:29      -34.804522        0.0121
Timing:                                      incl.     excl.
-------------------------------------------------------------------
Density initialized from wave functions:     7.242     0.127   0.0% |
 Symmetrize density:                         7.115     7.115   0.0% |
Forces:                                      0.104     0.104   0.0% |
Hamiltonian:                                 4.399     0.002   0.0% |
 Atomic:                                     0.003     0.003   0.0% |
  XC Correction:                             0.000     0.000   0.0% |
 Calculate atomic Hamiltonians:              0.005     0.005   0.0% |
 Communicate:                                0.451     0.451   0.0% |
 Hartree integrate/restrict:                 0.138     0.138   0.0% |
 Initialize Hamiltonian:                     0.002     0.002   0.0% |
 Poisson:                                    2.043     0.050   0.0% |
  Communicate from 1D:                       0.393     0.393   0.0% |
  Communicate from 2D:                       0.359     0.359   0.0% |
  Communicate to 1D:                         0.340     0.340   0.0% |
  Communicate to 2D:                         0.413     0.413   0.0% |
  FFT 1D:                                    0.152     0.152   0.0% |
  FFT 2D:                                    0.335     0.335   0.0% |
 XC 3D grid:                                 1.544     1.544   0.0% |
 vbar:                                       0.210     0.210   0.0% |
LCAO initialization:                         1.130     1.046   0.0% |
 LCAO eigensolver:                           0.050     0.001   0.0% |
  Calculate projections:                     0.000     0.000   0.0% |
  DenseAtomicCorrection:                     0.000     0.000   0.0% |
  Distribute overlap matrix:                 0.010     0.010   0.0% |
  Orbital Layouts:                           0.039     0.039   0.0% |
  Potential matrix:                          0.000     0.000   0.0% |
 LCAO to grid:                               0.002     0.002   0.0% |
 Set positions (LCAO WFS):                   0.032     0.024   0.0% |
  Basic WFS set positions:                   0.002     0.002   0.0% |
  Basis functions set positions:             0.000     0.000   0.0% |
  P tci:                                     0.001     0.001   0.0% |
  ST tci:                                    0.002     0.002   0.0% |
  mktci:                                     0.003     0.003   0.0% |
Redistribute:                                0.004     0.004   0.0% |
SCF-cycle:                                 137.534     0.122   0.0% |
 Davidson:                                  12.648     4.502   0.0% |
  Apply hamiltonian:                         1.204     1.204   0.0% |
  Subspace diag:                             1.988     0.013   0.0% |
   calc_h_matrix:                            1.345     0.195   0.0% |
    Apply hamiltonian:                       1.150     1.150   0.0% |
   diagonalize:                              0.118     0.118   0.0% |
   rotate_psi:                               0.512     0.512   0.0% |
  calc. matrices:                            3.869     1.404   0.0% |
   Apply hamiltonian:                        2.465     2.465   0.0% |
  diagonalize:                               0.056     0.056   0.0% |
  rotate_psi:                                1.028     1.028   0.0% |
 Density:                                   85.260     0.003   0.0% |
  Atomic density matrices:                   0.085     0.085   0.0% |
  Mix:                                       1.433     1.433   0.0% |
  Multipole moments:                         0.016     0.016   0.0% |
  Pseudo density:                           83.722     0.094   0.0% |
   Symmetrize density:                      83.628    83.628   0.3% |
 Hamiltonian:                               39.423     0.018   0.0% |
  Atomic:                                    0.030     0.030   0.0% |
   XC Correction:                            0.000     0.000   0.0% |
  Calculate atomic Hamiltonians:             0.049     0.049   0.0% |
  Communicate:                               4.270     4.270   0.0% |
  Hartree integrate/restrict:                1.294     1.294   0.0% |
  Poisson:                                  19.126     0.458   0.0% |
   Communicate from 1D:                      3.668     3.668   0.0% |
   Communicate from 2D:                      3.321     3.321   0.0% |
   Communicate to 1D:                        3.235     3.235   0.0% |
   Communicate to 2D:                        3.807     3.807   0.0% |
   FFT 1D:                                   1.435     1.435   0.0% |
   FFT 2D:                                   3.203     3.203   0.0% |
  XC 3D grid:                               14.337    14.337   0.1% |
  vbar:                                      0.299     0.299   0.0% |
 Orthonormalize:                             0.081     0.001   0.0% |
  calc_s_matrix:                             0.013     0.013   0.0% |
  inverse-cholesky:                          0.028     0.028   0.0% |
  projections:                               0.000     0.000   0.0% |
  rotate_psi_s:                              0.038     0.038   0.0% |
Set symmetry:                                0.012     0.012   0.0% |
Other:                                   27382.064 27382.064  99.5% |---------------------------------------|
-------------------------------------------------------------------
Total:                                             27532.488 100.0%

Memory usage: 2.64 GiB
Date: Thu Oct  5 10:37:29 2023
Timing:                                      incl.     excl.
-------------------------------------------------------------------
Density initialized from wave functions:     3.457     0.064   0.0% |
 Symmetrize density:                         3.394     3.394   0.0% |
Forces:                                      0.061     0.061   0.0% |
Hamiltonian:                               142.578     0.001   0.0% |
 Atomic:                                     0.002     0.002   0.0% |
  XC Correction:                             0.000     0.000   0.0% |
 Calculate atomic Hamiltonians:              0.003     0.003   0.0% |
 Communicate:                                0.514     0.514   0.0% |
 Hartree integrate/restrict:                 0.082     0.082   0.0% |
 Initialize Hamiltonian:                     0.003     0.003   0.0% |
 Poisson:                                    1.257     0.034   0.0% |
  Communicate from 1D:                       0.243     0.243   0.0% |
  Communicate from 2D:                       0.218     0.218   0.0% |
  Communicate to 1D:                         0.211     0.211   0.0% |
  Communicate to 2D:                         0.255     0.255   0.0% |
  FFT 1D:                                    0.090     0.090   0.0% |
  FFT 2D:                                    0.207     0.207   0.0% |
 XC 3D grid:                               140.696     7.736   0.0% |
  VdW-DF integral:                         132.960     1.400   0.0% |
   Convolution:                             14.849    14.849   0.1% |
   FFT:                                     10.593    10.593   0.0% |
   gather:                                  29.599    29.599   0.1% |
   hmm1:                                     2.894     2.894   0.0% |
   hmm2:                                     5.369     5.369   0.0% |
   iFFT:                                     9.793     9.793   0.0% |
   potential:                               37.540     0.666   0.0% |
    collect:                                 3.752     3.752   0.0% |
    p1:                                     21.885    21.885   0.1% |
    p2:                                      8.114     8.114   0.0% |
    sum:                                     3.122     3.122   0.0% |
   splines:                                 20.924    20.924   0.1% |
 vbar:                                       0.019     0.019   0.0% |
LCAO initialization:                         0.604     0.570   0.0% |
 LCAO eigensolver:                           0.010     0.000   0.0% |
  Calculate projections:                     0.000     0.000   0.0% |
  DenseAtomicCorrection:                     0.000     0.000   0.0% |
  Distribute overlap matrix:                 0.008     0.008   0.0% |
  Orbital Layouts:                           0.001     0.001   0.0% |
  Potential matrix:                          0.000     0.000   0.0% |
 LCAO to grid:                               0.002     0.002   0.0% |
 Set positions (LCAO WFS):                   0.023     0.014   0.0% |
  Basic WFS set positions:                   0.002     0.002   0.0% |
  Basis functions set positions:             0.000     0.000   0.0% |
  P tci:                                     0.001     0.001   0.0% |
  ST tci:                                    0.001     0.001   0.0% |
  mktci:                                     0.004     0.004   0.0% |
Redistribute:                                0.003     0.003   0.0% |
SCF-cycle:                               27228.142     2.288   0.0% |
 Density:                                  824.715     0.042   0.0% |
  Atomic density matrices:                   1.116     1.116   0.0% |
  Mix:                                      23.425    23.425   0.1% |
  Multipole moments:                         0.215     0.215   0.0% |
  Pseudo density:                          799.917     1.084   0.0% |
   Symmetrize density:                     798.833   798.833   2.9% ||
 Hamiltonian:                            26217.322     0.274   0.0% |
  Atomic:                                    0.442     0.435   0.0% |
   XC Correction:                            0.007     0.007   0.0% |
  Calculate atomic Hamiltonians:             0.662     0.662   0.0% |
  Communicate:                             116.933   116.933   0.4% |
  Hartree integrate/restrict:               17.423    17.423   0.1% |
  Poisson:                                 271.659     6.692   0.0% |
   Communicate from 1D:                     52.888    52.888   0.2% |
   Communicate from 2D:                     46.706    46.706   0.2% |
   Communicate to 1D:                       46.279    46.279   0.2% |
   Communicate to 2D:                       55.247    55.247   0.2% |
   FFT 1D:                                  19.814    19.814   0.1% |
   FFT 2D:                                  44.033    44.033   0.2% |
  XC 3D grid:                            25805.809  1674.289   6.1% |-|
   VdW-DF integral:                      24131.520   301.555   1.1% |
    Convolution:                          3198.059  3198.059  11.6% |----|
    FFT:                                  2272.583  2272.583   8.3% |--|
    gather:                               6393.968  6393.968  23.2% |--------|
    hmm1:                                  617.430   617.430   2.2% ||
    hmm2:                                 1139.586  1139.586   4.1% |-|
    iFFT:                                 2108.263  2108.263   7.7% |--|
    potential:                            8100.062   144.606   0.5% |
     collect:                              802.809   802.809   2.9% ||
     p1:                                  4693.700  4693.700  17.0% |------|
     p2:                                  1754.152  1754.152   6.4% |--|
     sum:                                  704.795   704.795   2.6% ||
    splines:                                 0.014     0.014   0.0% |
  vbar:                                      4.120     4.120   0.0% |
 Orthonormalize:                             7.058     0.234   0.0% |
  calc_s_matrix:                             1.377     1.377   0.0% |
  inverse-cholesky:                          1.769     1.769   0.0% |
  projections:                               0.107     0.107   0.0% |
  rotate_psi_s:                              3.571     3.571   0.0% |
 RMM-DIIS:                                 156.240    11.854   0.0% |
  Apply hamiltonian:                        12.612    12.612   0.0% |
  Calculate residuals:                       3.675     3.675   0.0% |
  DIIS step:                                72.635    14.237   0.1% |
   Calculate residuals:                     15.374     2.060   0.0% |
    Apply hamiltonian:                      13.314    13.314   0.0% |
   Construct matrix:                        11.324    11.324   0.0% |
   Linear solve:                             0.495     0.495   0.0% |
   Update trial vectors:                     8.571     8.571   0.0% |
   precondition:                            22.634    22.634   0.1% |
  Find lambda:                               4.980     4.980   0.0% |
  Update psi:                                5.265     5.265   0.0% |
  precondition:                             45.077    45.077   0.2% |
  projections:                               0.141     0.141   0.0% |
 Subspace diag:                             20.520     0.181   0.0% |
  calc_h_matrix:                            14.042     2.108   0.0% |
   Apply hamiltonian:                       11.934    11.934   0.0% |
  diagonalize:                               1.529     1.529   0.0% |
  rotate_psi:                                4.769     4.769   0.0% |
Set symmetry:                                0.010     0.010   0.0% |
Other:                                     157.633   157.633   0.6% |
-------------------------------------------------------------------
Total:                                             27532.487 100.0%

Memory usage: 2.64 GiB
Date: Thu Oct  5 10:37:29 2023
