
  ___ ___ ___ _ _ _  
 |   |   |_  | | | | 
 | | | | | . | | | | 
 |__ |  _|___|_____|  22.8.0
 |___|_|             

User:   s204775@a124.nifl.fysik.dtu.dk
Date:   Wed Sep 27 23:52:16 2023
Arch:   x86_64
Pid:    223790
CWD:    /home/cat/s204775/projects/Bachelor_project/C_missing_features
Python: 3.10.4
gpaw:   /home/modules/software/GPAW/22.8.0-intel-2022a/lib/python3.10/site-packages/gpaw
_gpaw:  /home/modules/software/GPAW/22.8.0-intel-2022a/lib/python3.10/site-packages/
        _gpaw.cpython-310-x86_64-linux-gnu.so
ase:    /home/modules/software/ASE/3.22.1-intel-2022a/lib/python3.10/site-packages/ase (version 3.22.1)
numpy:  /home/modules/software/SciPy-bundle/2022.05-intel-2022a/lib/python3.10/site-packages/numpy (version 1.22.3)
scipy:  /home/modules/software/SciPy-bundle/2022.05-intel-2022a/lib/python3.10/site-packages/scipy (version 1.8.1)
libxc:  5.2.3
units:  Angstrom and eV
cores: 40
OpenMP: False
OMP_NUM_THREADS: 1

Input parameters:
  basis: dzp
  h: 0.18
  kpts: {size: (4, 4, 1)}
  xc: BEEF-vdW

System changes: positions, numbers, cell, pbc, initial_charges, initial_magmoms 

Initialize ...

species:
  Ag:
    name: Silver
    id: 33ddeab48f408598355e2011f1241e14
    Z: 47.0
    valence: 17
    core: 30
    charge: 0.0
    file: /home/modules/software/GPAW-setups/0.9.20000/Ag.PBE.gz
    compensation charges: {type: gauss,
                           rc: 0.40,
                           lmax: 2}
    cutoffs: {filter: 2.35,
              core: 2.19}
    valence states:
      #              energy  rcut
      - 5s(1.00)    -4.401   1.286
      - 4p(6.00)   -58.577   1.328
      - 5p(0.00)    -0.738   1.328
      - 4d(10.00)    -7.446   1.180
      -  s          22.811   1.286
      -  d          19.766   1.180
  
    # LCAO basis set for Ag:
    #   Name: dzp
    #   File: /home/modules/software/GPAW-setups/0.9.20000/Ag.dzp.basis.gz
    #   Number of radial functions: 9
    #   Number of spherical harmonics: 27
    #     l=0, rc=9.2812 Bohr: 5s-sz confined orbital
    #     l=1, rc=3.3750 Bohr: 4p-sz confined orbital
    #     l=1, rc=14.2344 Bohr: 5p-sz confined orbital
    #     l=2, rc=5.4531 Bohr: 4d-sz confined orbital
    #     l=0, rc=5.5156 Bohr: 5s-dz split-valence wave
    #     l=1, rc=2.3281 Bohr: 4p-dz split-valence wave
    #     l=1, rc=8.7656 Bohr: 5p-dz split-valence wave
    #     l=2, rc=3.2656 Bohr: 4d-dz split-valence wave
    #     l=1, rc=9.2812 Bohr: p-type Gaussian polarization
    #   Number of RI-basis functions 0

  C:
    name: Carbon
    id: 4aa54d4b901d75f77cc0ea3eec22967b
    Z: 6.0
    valence: 4
    core: 2
    charge: 0.0
    file: /home/modules/software/GPAW-setups/0.9.20000/C.PBE.gz
    compensation charges: {type: gauss,
                           rc: 0.20,
                           lmax: 2}
    cutoffs: {filter: 1.14,
              core: 1.14}
    valence states:
      #              energy  rcut
      - 2s(2.00)   -13.751   0.635
      - 2p(2.00)    -5.284   0.635
      -  s          13.461   0.635
      -  p          21.927   0.635
      -  d           0.000   0.635
  
    # LCAO basis set for C:
    #   Name: dzp
    #   File: /home/modules/software/GPAW-setups/0.9.20000/C.dzp.basis.gz
    #   Number of radial functions: 5
    #   Number of spherical harmonics: 13
    #     l=0, rc=5.5469 Bohr: 2s-sz confined orbital
    #     l=1, rc=6.6719 Bohr: 2p-sz confined orbital
    #     l=0, rc=3.0312 Bohr: 2s-dz split-valence wave
    #     l=1, rc=3.7500 Bohr: 2p-dz split-valence wave
    #     l=2, rc=6.6719 Bohr: d-type Gaussian polarization
    #   Number of RI-basis functions 0

Reference energy: -5206549.376850  # eV

Spin-paired calculation

Convergence criteria:
 Maximum [total energy] change in last 3 cyles: 0.0005 eV / electron
 Maximum integral of absolute [dens]ity change: 0.0001 electrons / valence electron
 Maximum integral of absolute [eigenst]ate change: 4e-08 eV^2 / valence electron
 Maximum number of scf [iter]ations: 333
 (Square brackets indicate name in SCF output, whereas a 'c' in
 the SCF output indicates the quantity has converged.)

Symmetries present (total): 2

  ( 1  0  0)  (-1  0  0)
  ( 0  1  0)  ( 1  1  0)
  ( 0  0  1)  ( 0  0  1)
Note: your k-points are not as symmetric as your crystal!

16 k-points: 4 x 4 x 1 Monkhorst-Pack grid
8 k-points in the irreducible part of the Brillouin zone
       k-points in crystal coordinates                weights
   0:     0.12500000   -0.37500000    0.00000000          2/16
   1:     0.12500000   -0.12500000    0.00000000          2/16
   2:     0.12500000    0.12500000    0.00000000          2/16
   3:     0.12500000    0.37500000    0.00000000          2/16
   4:     0.37500000   -0.37500000    0.00000000          2/16
   5:     0.37500000   -0.12500000    0.00000000          2/16
   6:     0.37500000    0.12500000    0.00000000          2/16
   7:     0.37500000    0.37500000    0.00000000          2/16

Wave functions: Uniform real-space grid
  Kinetic energy operator: 8*3+1=25 point O(h^6) finite-difference Laplacian
  ScaLapack parameters: grid=1x1, blocksize=None
  Wavefunction extrapolation:
    Improved wavefunction reuse through dual PAW basis 

Occupation numbers: Fermi-Dirac:
  width: 0.1000  # eV
 

Eigensolver
   Davidson(niter=2) 

Densities:
  Coarse grid: 44*44*152 grid
  Fine grid: 88*88*304 grid
  Total Charge: 0.000000 

Density mixing:
  Method: separate
  Backend: pulay
  Linear mixing parameter: 0.05
  old densities: 5
  Damping of long wavelength oscillations: 50 

Hamiltonian:
  XC and Coulomb potentials evaluated on a 88*88*304 grid
  Using the BEEF-vdW Exchange-Correlation functional
  Interpolation: tri-quintic (5. degree polynomial)
  Poisson solver: FastPoissonSolver using
    Stencil: 8*3+1=25 point O(h^6) finite-difference Laplacian
    FFT axes: [0, 1]
    FST axes: [2]
 

XC parameters: BEEF-vdW with 2 nearest neighbor stencil

Memory estimate:
  Process memory now: 206.47 MiB
  Calculator: 773.36 MiB
    Density: 64.39 MiB
      Arrays: 11.52 MiB
      Localized functions: 48.44 MiB
      Mixer: 4.43 MiB
    Hamiltonian: 11.23 MiB
      Arrays: 7.53 MiB
      XC: 0.00 MiB
      Poisson: 0.00 MiB
      vbar: 3.69 MiB
    Wavefunctions: 697.74 MiB
      Arrays psit_nG: 331.45 MiB
      Eigensolver: 357.24 MiB
      Projections: 0.75 MiB
      Projectors: 8.30 MiB

Total number of cores used: 40
Parallelization over k-points: 8
Domain decomposition: 1 x 1 x 5

Number of atoms: 37
Number of atomic orbitals: 985
Number of bands in calculation: 374
Number of valence electrons: 616
Bands to converge: occupied

... initialized

Initializing position-dependent things.

Density initialized from atomic densities
Creating initial wave functions:
  374 bands from LCAO basis set

                                                  
                                                  
                                                  
                                                  
                                                  
                            C                     
                  Ag     Ag     Ag                
                                                  
            Ag     AAg    AAg     Ag              
              Ag     AAg    AAg     Ag            
                                                  
               AAg    AAg    AAg                  
                                                  
                 Ag     Ag     Ag                 
                                                  
           Ag     AAg    AAg     Ag               
                                                  
            Ag      Ag     Ag                     
              Ag      Ag     Ag                   
                                                  
                                                  
                                                  
                                                  

Positions:
   0 Ag    -0.000000    0.000000    9.999999    ( 0.0000,  0.0000,  0.0000)
   1 Ag     1.496122    0.863786   12.443156    ( 0.0000,  0.0000,  0.0000)
   2 Ag    -0.000000    1.721500   14.879470    ( 0.0000,  0.0000,  0.0000)
   3 Ag     2.990772    0.000104   17.332927    ( 0.0000,  0.0000,  0.0000)
   4 Ag    -1.496122    2.591359    9.999999    ( 0.0000,  0.0000,  0.0000)
   5 Ag     0.000000    3.455145   12.443156    ( 0.0000,  0.0000,  0.0000)
   6 Ag    -1.490401    4.322235   14.880555    ( 0.0000,  0.0000,  0.0000)
   7 Ag     1.495476    2.590033   17.332927    ( 0.0000,  0.0000,  0.0000)
   8 Ag    -2.992244    5.182718    9.999999    ( 0.0000,  0.0000,  0.0000)
   9 Ag    -1.496122    6.046505   12.443156    ( 0.0000,  0.0000,  0.0000)
  10 Ag    -2.997503    6.913327   14.879470    ( 0.0000,  0.0000,  0.0000)
  11 Ag     0.000000    5.182718   17.332986    ( 0.0000,  0.0000,  0.0000)
  12 Ag     2.992244    0.000000    9.999999    ( 0.0000,  0.0000,  0.0000)
  13 Ag     4.488366    0.863786   12.443156    ( 0.0000,  0.0000,  0.0000)
  14 Ag     2.995517    1.729463   14.878053    ( 0.0000,  0.0000,  0.0000)
  15 Ag     5.985960    0.000104   17.332927    ( 0.0000,  0.0000,  0.0000)
  16 Ag     1.496122    2.591359    9.999999    ( 0.0000,  0.0000,  0.0000)
  17 Ag     2.992244    3.455145   12.443156    ( 0.0000,  0.0000,  0.0000)
  18 Ag     1.490401    4.322235   14.880555    ( 0.0000,  0.0000,  0.0000)
  19 Ag     4.488366    2.591359   17.331088    ( 0.0000,  0.0000,  0.0000)
  20 Ag     0.000000    5.182718    9.999999    ( 0.0000,  0.0000,  0.0000)
  21 Ag     1.496122    6.046505   12.443156    ( 0.0000,  0.0000,  0.0000)
  22 Ag     0.000000    6.903685   14.880555    ( 0.0000,  0.0000,  0.0000)
  23 Ag     2.993069    5.183941   17.332927    ( 0.0000,  0.0000,  0.0000)
  24 Ag     5.984488    0.000000    9.999999    ( 0.0000,  0.0000,  0.0000)
  25 Ag     7.480609    0.863786   12.443156    ( 0.0000,  0.0000,  0.0000)
  26 Ag     5.981214    1.729463   14.878053    ( 0.0000,  0.0000,  0.0000)
  27 Ag     8.976731   -0.000000   17.337351    ( 0.0000,  0.0000,  0.0000)
  28 Ag     4.488366    2.591359    9.999999    ( 0.0000,  0.0000,  0.0000)
  29 Ag     5.984488    3.455145   12.443156    ( 0.0000,  0.0000,  0.0000)
  30 Ag     4.488366    4.315152   14.878053    ( 0.0000,  0.0000,  0.0000)
  31 Ag     7.481256    2.590033   17.332927    ( 0.0000,  0.0000,  0.0000)
  32 Ag     2.992244    5.182718    9.999999    ( 0.0000,  0.0000,  0.0000)
  33 Ag     4.488366    6.046505   12.443156    ( 0.0000,  0.0000,  0.0000)
  34 Ag     2.997503    6.913327   14.879470    ( 0.0000,  0.0000,  0.0000)
  35 Ag     5.983662    5.183941   17.332927    ( 0.0000,  0.0000,  0.0000)
  36 C      4.488366    4.319305   18.195062    ( 0.0000,  0.0000,  0.0000)

Unit cell:
           periodic     x           y           z      points  spacing
  1. axis:    yes    8.976731    0.000000    0.000000    44     0.1767
  2. axis:    yes   -4.488366    7.774077    0.000000    44     0.1767
  3. axis:    no     0.000000    0.000000   27.329469   152     0.1798

  Lengths:   8.976731   8.976731  27.329469
  Angles:   90.000000  90.000000 120.000000

Effective grid spacing dv^(1/3) = 0.1864

     iter     time        total  log10-change:
                         energy  eigst   dens
iter:   1 23:53:59 -5354.919868
iter:   2 23:54:45 -5353.340274  -1.11  -1.51
iter:   3 23:55:30 -5352.612400  -2.02  -1.54
iter:   4 23:56:15 -5350.511706  -1.31  -1.56
iter:   5 23:57:01 -5350.785735  -1.72  -1.80
iter:   6 23:57:46 -5350.810025c -2.56  -2.06
iter:   7 23:58:32 -5350.260864  -1.94  -2.15
iter:   8 23:59:17 -5350.251864  -2.87  -2.55
iter:   9 00:00:02 -5350.169782c -3.18  -2.75
iter:  10 00:00:48 -5350.155809c -3.29  -2.94
iter:  11 00:01:33 -5350.155580c -3.75  -3.07
iter:  12 00:02:18 -5350.154756c -4.37  -3.27
iter:  13 00:03:04 -5350.153519c -4.44  -3.30
iter:  14 00:03:50 -5350.154290c -4.64  -3.38
iter:  15 00:04:35 -5350.154454c -5.23  -3.63
iter:  16 00:05:21 -5350.154238c -5.55  -3.68
iter:  17 00:06:06 -5350.154296c -5.04  -3.77
iter:  18 00:06:51 -5350.154258c -5.98  -3.96
iter:  19 00:07:37 -5350.154241c -6.40  -3.98
iter:  20 00:08:22 -5350.154258c -6.53  -4.02c
iter:  21 00:09:07 -5350.154271c -6.25  -4.09c
iter:  22 00:09:53 -5350.154232c -6.27  -4.24c
iter:  23 00:10:38 -5350.154236c -6.92  -4.33c
iter:  24 00:11:23 -5350.154224c -6.75  -4.39c
iter:  25 00:12:09 -5350.154222c -7.03  -4.48c
iter:  26 00:12:54 -5350.154218c -6.81  -4.74c
iter:  27 00:13:39 -5350.154220c -8.00c -4.78c

Converged after 27 iterations.

Dipole moment: (-4.501982, -7.656164, -0.178251) |e|*Ang

Energy contributions relative to reference atoms: (reference = -5206549.376850)

Kinetic:       +876.409911
Potential:     -855.635583
External:        +0.000000
XC:            -5374.636829
Entropy (-ST):   -0.385752
Local:           +3.901157
--------------------------
Free energy:   -5350.347096
Extrapolated:  -5350.154220

Showing only first 2 kpts
 Kpt  Band  Eigenvalues  Occupancy
  0   306     -5.05728    1.92239
  0   307     -4.90027    1.67494
  0   308     -4.66209    0.64501
  0   309     -4.60918    0.43802

  1   306     -5.48868    1.99892
  1   307     -5.20828    1.98232
  1   308     -4.95675    1.80127
  1   309     -4.89555    1.66188


Fermi level: -4.73632

No gap

Forces in eV/Ang:
  0 Ag    0.00000    0.01446   -0.03359
  1 Ag   -0.02815   -0.00576    0.02454
  2 Ag    0.00000    0.01039    0.01565
  3 Ag    0.04280   -0.02508   -0.03178
  4 Ag    0.02584   -0.01424   -0.03754
  5 Ag    0.00000    0.01257    0.04681
  6 Ag    0.02784    0.03608   -0.03273
  7 Ag   -0.11312   -0.06668   -0.01185
  8 Ag   -0.00225    0.01180   -0.02045
  9 Ag    0.02796   -0.00349    0.03154
 10 Ag    0.04512   -0.00696   -0.03009
 11 Ag    0.00000    0.05204   -0.02358
 12 Ag    0.00006   -0.00831   -0.02211
 13 Ag    0.00000    0.03468    0.02424
 14 Ag    0.02347   -0.03044   -0.02800
 15 Ag   -0.04280   -0.02508   -0.03178
 16 Ag   -0.02584   -0.01424   -0.03754
 17 Ag    0.04919   -0.01634    0.02207
 18 Ag   -0.02784    0.03608   -0.03273
 19 Ag    0.00000   -2.14983   -0.66193
 20 Ag    0.00000    0.00710   -0.02213
 21 Ag   -0.02796   -0.00349    0.03154
 22 Ag    0.00000   -0.00956    0.04860
 23 Ag   -1.87770    1.08715   -0.67020
 24 Ag   -0.00006   -0.00831   -0.02211
 25 Ag    0.02815   -0.00576    0.02454
 26 Ag   -0.02347   -0.03044   -0.02800
 27 Ag    0.00000    0.12342   -0.00022
 28 Ag    0.00000   -0.00164   -0.01374
 29 Ag   -0.04919   -0.01634    0.02207
 30 Ag    0.00000   -0.00392   -0.28800
 31 Ag    0.11312   -0.06668   -0.01185
 32 Ag    0.00225    0.01180   -0.02045
 33 Ag    0.00000    0.01212    0.00509
 34 Ag   -0.04512   -0.00696   -0.03009
 35 Ag    1.87770    1.08715   -0.67020
 36 C     0.00000   -0.01055    2.51297

      Step     Time          Energy         fmax
BFGS:    0 00:14:02    -5350.154220        2.5130
System changes: positions 

Initializing position-dependent things.

Density initialized from wave functions
                                                  
                                                  
                                                  
                                                  
                                                  
                            C                     
                  Ag     Ag     Ag                
                                                  
            Ag     AAg    AAg     Ag              
                      Ag     Ag     Ag            
              Ag     Ag     Ag                    
               AAg    AAg    AAg                  
                                                  
                 Ag     Ag     Ag                 
                                                  
           Ag     AAg    AAg     Ag               
                                                  
            Ag      Ag     Ag                     
              Ag      Ag     Ag                   
                                                  
                                                  
                                                  
                                                  

Positions:
   0 Ag    -0.000000    0.000000    9.999999    ( 0.0000,  0.0000,  0.0000)
   1 Ag     1.496122    0.863786   12.443156    ( 0.0000,  0.0000,  0.0000)
   2 Ag    -0.000000    1.721649   14.879693    ( 0.0000,  0.0000,  0.0000)
   3 Ag     2.991383   -0.000255   17.332473    ( 0.0000,  0.0000,  0.0000)
   4 Ag    -1.496122    2.591359    9.999999    ( 0.0000,  0.0000,  0.0000)
   5 Ag     0.000000    3.455145   12.443156    ( 0.0000,  0.0000,  0.0000)
   6 Ag    -1.490003    4.322750   14.880088    ( 0.0000,  0.0000,  0.0000)
   7 Ag     1.493860    2.589080   17.332758    ( 0.0000,  0.0000,  0.0000)
   8 Ag    -2.992244    5.182718    9.999999    ( 0.0000,  0.0000,  0.0000)
   9 Ag    -1.496122    6.046505   12.443156    ( 0.0000,  0.0000,  0.0000)
  10 Ag    -2.996858    6.913228   14.879040    ( 0.0000,  0.0000,  0.0000)
  11 Ag     0.000000    5.183462   17.332649    ( 0.0000,  0.0000,  0.0000)
  12 Ag     2.992244    0.000000    9.999999    ( 0.0000,  0.0000,  0.0000)
  13 Ag     4.488366    0.863786   12.443156    ( 0.0000,  0.0000,  0.0000)
  14 Ag     2.995852    1.729028   14.877653    ( 0.0000,  0.0000,  0.0000)
  15 Ag     5.985348   -0.000255   17.332473    ( 0.0000,  0.0000,  0.0000)
  16 Ag     1.496122    2.591359    9.999999    ( 0.0000,  0.0000,  0.0000)
  17 Ag     2.992244    3.455145   12.443156    ( 0.0000,  0.0000,  0.0000)
  18 Ag     1.490003    4.322750   14.880088    ( 0.0000,  0.0000,  0.0000)
  19 Ag     4.488366    2.560647   17.321632    ( 0.0000,  0.0000,  0.0000)
  20 Ag     0.000000    5.182718    9.999999    ( 0.0000,  0.0000,  0.0000)
  21 Ag     1.496122    6.046505   12.443156    ( 0.0000,  0.0000,  0.0000)
  22 Ag     0.000000    6.903548   14.881250    ( 0.0000,  0.0000,  0.0000)
  23 Ag     2.966245    5.199472   17.323353    ( 0.0000,  0.0000,  0.0000)
  24 Ag     5.984488    0.000000    9.999999    ( 0.0000,  0.0000,  0.0000)
  25 Ag     7.480609    0.863786   12.443156    ( 0.0000,  0.0000,  0.0000)
  26 Ag     5.980879    1.729028   14.877653    ( 0.0000,  0.0000,  0.0000)
  27 Ag     8.976731    0.001763   17.337348    ( 0.0000,  0.0000,  0.0000)
  28 Ag     4.488366    2.591359    9.999999    ( 0.0000,  0.0000,  0.0000)
  29 Ag     5.984488    3.455145   12.443156    ( 0.0000,  0.0000,  0.0000)
  30 Ag     4.488366    4.315096   14.873939    ( 0.0000,  0.0000,  0.0000)
  31 Ag     7.482872    2.589080   17.332758    ( 0.0000,  0.0000,  0.0000)
  32 Ag     2.992244    5.182718    9.999999    ( 0.0000,  0.0000,  0.0000)
  33 Ag     4.488366    6.046505   12.443156    ( 0.0000,  0.0000,  0.0000)
  34 Ag     2.996858    6.913228   14.879040    ( 0.0000,  0.0000,  0.0000)
  35 Ag     6.010486    5.199472   17.323353    ( 0.0000,  0.0000,  0.0000)
  36 C      4.488366    4.319155   18.230961    ( 0.0000,  0.0000,  0.0000)

Unit cell:
           periodic     x           y           z      points  spacing
  1. axis:    yes    8.976731    0.000000    0.000000    44     0.1767
  2. axis:    yes   -4.488366    7.774077    0.000000    44     0.1767
  3. axis:    no     0.000000    0.000000   27.329469   152     0.1798

  Lengths:   8.976731   8.976731  27.329469
  Angles:   90.000000  90.000000 120.000000

Effective grid spacing dv^(1/3) = 0.1864

     iter     time        total  log10-change:
                         energy  eigst   dens
iter:   1 00:15:46 -5351.076070  -1.96
iter:   2 00:16:32 -5350.535359  -2.78  -2.39
iter:   3 00:17:19 -5350.442787  -3.44  -2.64
iter:   4 00:18:05 -5350.415707c -3.66  -3.00
iter:   5 00:18:51 -5350.409746c -4.07  -3.30
iter:   6 00:19:38 -5350.408848c -4.24  -3.50
iter:   7 00:20:24 -5350.407566c -4.61  -3.54
iter:   8 00:21:10 -5350.407368c -5.33  -3.76
iter:   9 00:21:56 -5350.407305c -5.18  -3.91
iter:  10 00:22:43 -5350.407372c -5.82  -4.12c
iter:  11 00:23:29 -5350.407252c -6.27  -4.12c
iter:  12 00:24:15 -5350.407218c -6.45  -4.29c
iter:  13 00:25:01 -5350.407188c -6.21  -4.33c
iter:  14 00:25:48 -5350.407195c -6.73  -4.57c
iter:  15 00:26:34 -5350.407194c -7.28  -4.64c
iter:  16 00:27:20 -5350.407200c -7.29  -4.77c
iter:  17 00:28:07 -5350.407195c -7.25  -4.83c
iter:  18 00:28:53 -5350.407197c -7.92c -5.16c

Converged after 18 iterations.

Dipole moment: (-6.056688, -7.708188, -0.193628) |e|*Ang

Energy contributions relative to reference atoms: (reference = -5206549.376850)

Kinetic:       +871.307186
Potential:     -851.297192
External:        +0.000000
XC:            -5374.130648
Entropy (-ST):   -0.385093
Local:           +3.906003
--------------------------
Free energy:   -5350.599743
Extrapolated:  -5350.407197

Showing only first 2 kpts
 Kpt  Band  Eigenvalues  Occupancy
  0   306     -5.06927    1.92232
  0   307     -4.91302    1.67677
  0   308     -4.67667    0.65601
  0   309     -4.62066    0.43603

  1   306     -5.49758    1.99889
  1   307     -5.22287    1.98276
  1   308     -4.96822    1.80019
  1   309     -4.91539    1.68315


Fermi level: -4.74839

No gap

Forces in eV/Ang:
  0 Ag    0.00000    0.01512   -0.03265
  1 Ag   -0.02852   -0.00543    0.01937
  2 Ag    0.00000    0.00936    0.01508
  3 Ag    0.03399   -0.01950   -0.02842
  4 Ag    0.02635   -0.01454   -0.03691
  5 Ag    0.00000    0.01201    0.04151
  6 Ag    0.02785    0.02329   -0.03926
  7 Ag   -0.09200   -0.05447   -0.01064
  8 Ag   -0.00220    0.01173   -0.02055
  9 Ag    0.03089   -0.00177    0.02669
 10 Ag    0.03476    0.00201   -0.03672
 11 Ag    0.00000    0.04419   -0.02026
 12 Ag    0.00100   -0.00899   -0.02134
 13 Ag    0.00000    0.03145    0.01961
 14 Ag    0.01231   -0.02769   -0.03511
 15 Ag   -0.03399   -0.01950   -0.02842
 16 Ag   -0.02635   -0.01454   -0.03691
 17 Ag    0.04539   -0.01869    0.01557
 18 Ag   -0.02785    0.02329   -0.03926
 19 Ag    0.00000   -1.40880   -0.36436
 20 Ag    0.00000    0.00834   -0.02132
 21 Ag   -0.03089   -0.00177    0.02669
 22 Ag    0.00000   -0.00806    0.04357
 23 Ag   -1.18334    0.65344   -0.37308
 24 Ag   -0.00100   -0.00899   -0.02134
 25 Ag    0.02852   -0.00543    0.01937
 26 Ag   -0.01231   -0.02769   -0.03511
 27 Ag    0.00000    0.10897    0.00121
 28 Ag    0.00000   -0.00151   -0.01388
 29 Ag   -0.04539   -0.01869    0.01557
 30 Ag    0.00000   -0.00606   -0.20725
 31 Ag    0.09200   -0.05447   -0.01064
 32 Ag    0.00220    0.01173   -0.02055
 33 Ag    0.00000    0.01656   -0.00159
 34 Ag   -0.03476    0.00201   -0.03672
 35 Ag    1.18334    0.65344   -0.37308
 36 C     0.00000   -0.01537    1.61837

BFGS:    1 00:29:15    -5350.407197        1.6184
System changes: positions 

Initializing position-dependent things.

Density initialized from wave functions
                                                  
                                                  
                                                  
                                                  
                                                  
                            C                     
                  Ag     Ag      Ag               
                                                  
            Ag     AAg    AAg     Ag              
                      Ag     Ag     Ag            
              Ag     Ag     Ag                    
               AAg    AAg    AAg                  
                                                  
                 Ag     Ag     Ag                 
                                                  
          Ag      AAg    AAg     Ag               
                                                  
            Ag      Ag     Ag                     
              Ag      Ag     Ag                   
                                                  
                                                  
                                                  
                                                  

Positions:
   0 Ag    -0.000000    0.000000    9.999999    ( 0.0000,  0.0000,  0.0000)
   1 Ag     1.496122    0.863786   12.443156    ( 0.0000,  0.0000,  0.0000)
   2 Ag    -0.000000    1.722014   14.880281    ( 0.0000,  0.0000,  0.0000)
   3 Ag     2.992710   -0.001016   17.331364    ( 0.0000,  0.0000,  0.0000)
   4 Ag    -1.496122    2.591359    9.999999    ( 0.0000,  0.0000,  0.0000)
   5 Ag     0.000000    3.455145   12.443156    ( 0.0000,  0.0000,  0.0000)
   6 Ag    -1.488917    4.323660   14.878557    ( 0.0000,  0.0000,  0.0000)
   7 Ag     1.490269    2.586954   17.332342    ( 0.0000,  0.0000,  0.0000)
   8 Ag    -2.992244    5.182718    9.999999    ( 0.0000,  0.0000,  0.0000)
   9 Ag    -1.496122    6.046505   12.443156    ( 0.0000,  0.0000,  0.0000)
  10 Ag    -2.995501    6.913305   14.877608    ( 0.0000,  0.0000,  0.0000)
  11 Ag     0.000000    5.185186   17.331859    ( 0.0000,  0.0000,  0.0000)
  12 Ag     2.992244    0.000000    9.999999    ( 0.0000,  0.0000,  0.0000)
  13 Ag     4.488366    0.863786   12.443156    ( 0.0000,  0.0000,  0.0000)
  14 Ag     2.996333    1.727947   14.876284    ( 0.0000,  0.0000,  0.0000)
  15 Ag     5.984021   -0.001016   17.331364    ( 0.0000,  0.0000,  0.0000)
  16 Ag     1.496122    2.591359    9.999999    ( 0.0000,  0.0000,  0.0000)
  17 Ag     2.992244    3.455145   12.443156    ( 0.0000,  0.0000,  0.0000)
  18 Ag     1.488917    4.323660   14.878557    ( 0.0000,  0.0000,  0.0000)
  19 Ag     4.488366    2.505621   17.307391    ( 0.0000,  0.0000,  0.0000)
  20 Ag     0.000000    5.182718    9.999999    ( 0.0000,  0.0000,  0.0000)
  21 Ag     1.496122    6.046505   12.443156    ( 0.0000,  0.0000,  0.0000)
  22 Ag     0.000000    6.903234   14.882950    ( 0.0000,  0.0000,  0.0000)
  23 Ag     2.920018    5.225003   17.308771    ( 0.0000,  0.0000,  0.0000)
  24 Ag     5.984488    0.000000    9.999999    ( 0.0000,  0.0000,  0.0000)
  25 Ag     7.480609    0.863786   12.443156    ( 0.0000,  0.0000,  0.0000)
  26 Ag     5.980398    1.727947   14.876284    ( 0.0000,  0.0000,  0.0000)
  27 Ag     8.976731    0.006015   17.337395    ( 0.0000,  0.0000,  0.0000)
  28 Ag     4.488366    2.591359    9.999999    ( 0.0000,  0.0000,  0.0000)
  29 Ag     5.984488    3.455145   12.443156    ( 0.0000,  0.0000,  0.0000)
  30 Ag     4.488366    4.314860   14.865847    ( 0.0000,  0.0000,  0.0000)
  31 Ag     7.486463    2.586954   17.332342    ( 0.0000,  0.0000,  0.0000)
  32 Ag     2.992244    5.182718    9.999999    ( 0.0000,  0.0000,  0.0000)
  33 Ag     4.488366    6.046505   12.443156    ( 0.0000,  0.0000,  0.0000)
  34 Ag     2.995501    6.913305   14.877608    ( 0.0000,  0.0000,  0.0000)
  35 Ag     6.056713    5.225003   17.308771    ( 0.0000,  0.0000,  0.0000)
  36 C      4.488366    4.318556   18.294177    ( 0.0000,  0.0000,  0.0000)

Unit cell:
           periodic     x           y           z      points  spacing
  1. axis:    yes    8.976731    0.000000    0.000000    44     0.1767
  2. axis:    yes   -4.488366    7.774077    0.000000    44     0.1767
  3. axis:    no     0.000000    0.000000   27.329469   152     0.1798

  Lengths:   8.976731   8.976731  27.329469
  Angles:   90.000000  90.000000 120.000000

Effective grid spacing dv^(1/3) = 0.1864

     iter     time        total  log10-change:
                         energy  eigst   dens
iter:   1 00:30:58 -5352.511396  -1.51
iter:   2 00:31:44 -5350.956541  -2.35  -2.16
iter:   3 00:32:31 -5350.713731  -2.99  -2.43
iter:   4 00:33:17 -5350.638117  -3.19  -2.77
iter:   5 00:34:03 -5350.622503c -3.78  -3.04
iter:   6 00:34:49 -5350.614686c -3.65  -3.22
iter:   7 00:35:36 -5350.611407c -4.06  -3.31
iter:   8 00:36:22 -5350.611119c -4.92  -3.51
iter:   9 00:37:08 -5350.610128c -4.95  -3.52
iter:  10 00:37:54 -5350.610238c -4.86  -3.73
iter:  11 00:38:41 -5350.610228c -5.58  -3.93
iter:  12 00:39:27 -5350.610056c -6.04  -3.96
iter:  13 00:40:13 -5350.609917c -5.79  -4.07c
iter:  14 00:40:59 -5350.609902c -5.97  -4.18c
iter:  15 00:41:46 -5350.609893c -6.60  -4.31c
iter:  16 00:42:32 -5350.609864c -6.24  -4.37c
iter:  17 00:43:18 -5350.609874c -7.03  -4.84c
iter:  18 00:44:04 -5350.609873c -7.93c -4.92c

Converged after 18 iterations.

Dipole moment: (-8.541499, -7.830315, -0.218729) |e|*Ang

Energy contributions relative to reference atoms: (reference = -5206549.376850)

Kinetic:       +867.065024
Potential:     -847.814983
External:        +0.000000
XC:            -5373.563770
Entropy (-ST):   -0.384122
Local:           +3.895917
--------------------------
Free energy:   -5350.801934
Extrapolated:  -5350.609873

Showing only first 2 kpts
 Kpt  Band  Eigenvalues  Occupancy
  0   306     -5.08999    1.92254
  0   307     -4.93426    1.67896
  0   308     -4.70070    0.67197
  0   309     -4.64088    0.43532

  1   306     -5.51334    1.99883
  1   307     -5.24809    1.98356
  1   308     -4.98719    1.79755
  1   309     -4.94999    1.71913


Fermi level: -4.76882

No gap

Forces in eV/Ang:
  0 Ag    0.00000    0.01627   -0.02997
  1 Ag   -0.02875   -0.00500    0.01592
  2 Ag    0.00000    0.00697    0.00909
  3 Ag    0.01722   -0.01375   -0.02213
  4 Ag    0.02719   -0.01505   -0.03463
  5 Ag    0.00000    0.01137    0.03755
  6 Ag    0.02769    0.00214   -0.05445
  7 Ag   -0.05002   -0.03126   -0.00806
  8 Ag   -0.00181    0.01178   -0.01788
  9 Ag    0.03431    0.00040    0.02414
 10 Ag    0.01772    0.01752   -0.05221
 11 Ag    0.00000    0.03177   -0.01459
 12 Ag    0.00248   -0.00991   -0.01974
 13 Ag    0.00000    0.02753    0.01745
 14 Ag   -0.00580   -0.02404   -0.05204
 15 Ag   -0.01722   -0.01375   -0.02213
 16 Ag   -0.02719   -0.01505   -0.03463
 17 Ag    0.04119   -0.02153    0.00977
 18 Ag   -0.02769    0.00214   -0.05445
 19 Ag    0.00000   -0.27974    0.03739
 20 Ag    0.00000    0.01017   -0.01973
 21 Ag   -0.03431    0.00040    0.02414
 22 Ag    0.00000   -0.00507    0.02757
 23 Ag   -0.32693    0.13850    0.01987
 24 Ag   -0.00248   -0.00991   -0.01974
 25 Ag    0.02875   -0.00500    0.01592
 26 Ag    0.00580   -0.02404   -0.05204
 27 Ag    0.00000    0.07982    0.00392
 28 Ag    0.00000   -0.00176   -0.01128
 29 Ag   -0.04119   -0.02153    0.00977
 30 Ag    0.00000   -0.01007   -0.07831
 31 Ag    0.05002   -0.03126   -0.00806
 32 Ag    0.00181    0.01178   -0.01788
 33 Ag    0.00000    0.02151   -0.00750
 34 Ag   -0.01772    0.01752   -0.05221
 35 Ag    0.32693    0.13850    0.01987
 36 C     0.00000   -0.01279    0.37914

BFGS:    2 00:44:27    -5350.609873        0.3794
System changes: positions 

Initializing position-dependent things.

Density initialized from wave functions
                                                  
                                                  
                                                  
                                                  
                                                  
                            C                     
                  Ag     Ag      Ag               
                                                  
            Ag     AAg    AAg     Ag              
                      Ag     Ag     Ag            
              Ag     Ag     Ag                    
               AAg    AAg    AAg                  
                                                  
                 Ag     Ag     Ag                 
                                                  
          Ag      AAg    AAg     Ag               
                                                  
            Ag      Ag     Ag                     
              Ag      Ag     Ag                   
                                                  
                                                  
                                                  
                                                  

Positions:
   0 Ag    -0.000000    0.000000    9.999999    ( 0.0000,  0.0000,  0.0000)
   1 Ag     1.496122    0.863786   12.443156    ( 0.0000,  0.0000,  0.0000)
   2 Ag    -0.000000    1.722212   14.880561    ( 0.0000,  0.0000,  0.0000)
   3 Ag     2.993281   -0.001415   17.330744    ( 0.0000,  0.0000,  0.0000)
   4 Ag    -1.496122    2.591359    9.999999    ( 0.0000,  0.0000,  0.0000)
   5 Ag     0.000000    3.455145   12.443156    ( 0.0000,  0.0000,  0.0000)
   6 Ag    -1.488198    4.323873   14.877260    ( 0.0000,  0.0000,  0.0000)
   7 Ag     1.488659    2.585971   17.332114    ( 0.0000,  0.0000,  0.0000)
   8 Ag    -2.992244    5.182718    9.999999    ( 0.0000,  0.0000,  0.0000)
   9 Ag    -1.496122    6.046505   12.443156    ( 0.0000,  0.0000,  0.0000)
  10 Ag    -2.994915    6.913643   14.876371    ( 0.0000,  0.0000,  0.0000)
  11 Ag     0.000000    5.186102   17.331438    ( 0.0000,  0.0000,  0.0000)
  12 Ag     2.992244    0.000000    9.999999    ( 0.0000,  0.0000,  0.0000)
  13 Ag     4.488366    0.863786   12.443156    ( 0.0000,  0.0000,  0.0000)
  14 Ag     2.996319    1.727297   14.875062    ( 0.0000,  0.0000,  0.0000)
  15 Ag     5.983450   -0.001415   17.330744    ( 0.0000,  0.0000,  0.0000)
  16 Ag     1.496122    2.591359    9.999999    ( 0.0000,  0.0000,  0.0000)
  17 Ag     2.992244    3.455145   12.443156    ( 0.0000,  0.0000,  0.0000)
  18 Ag     1.488198    4.323873   14.877260    ( 0.0000,  0.0000,  0.0000)
  19 Ag     4.488366    2.489928   17.305351    ( 0.0000,  0.0000,  0.0000)
  20 Ag     0.000000    5.182718    9.999999    ( 0.0000,  0.0000,  0.0000)
  21 Ag     1.496122    6.046505   12.443156    ( 0.0000,  0.0000,  0.0000)
  22 Ag     0.000000    6.903080   14.883783    ( 0.0000,  0.0000,  0.0000)
  23 Ag     2.905129    5.232452   17.306343    ( 0.0000,  0.0000,  0.0000)
  24 Ag     5.984488    0.000000    9.999999    ( 0.0000,  0.0000,  0.0000)
  25 Ag     7.480609    0.863786   12.443156    ( 0.0000,  0.0000,  0.0000)
  26 Ag     5.980413    1.727297   14.875062    ( 0.0000,  0.0000,  0.0000)
  27 Ag     8.976731    0.008301   17.337477    ( 0.0000,  0.0000,  0.0000)
  28 Ag     4.488366    2.591359    9.999999    ( 0.0000,  0.0000,  0.0000)
  29 Ag     5.984488    3.455145   12.443156    ( 0.0000,  0.0000,  0.0000)
  30 Ag     4.488366    4.314629   14.862854    ( 0.0000,  0.0000,  0.0000)
  31 Ag     7.488072    2.585971   17.332114    ( 0.0000,  0.0000,  0.0000)
  32 Ag     2.992244    5.182718    9.999999    ( 0.0000,  0.0000,  0.0000)
  33 Ag     4.488366    6.046505   12.443156    ( 0.0000,  0.0000,  0.0000)
  34 Ag     2.994915    6.913643   14.876371    ( 0.0000,  0.0000,  0.0000)
  35 Ag     6.071602    5.232452   17.306343    ( 0.0000,  0.0000,  0.0000)
  36 C      4.488366    4.318206   18.313277    ( 0.0000,  0.0000,  0.0000)

Unit cell:
           periodic     x           y           z      points  spacing
  1. axis:    yes    8.976731    0.000000    0.000000    44     0.1767
  2. axis:    yes   -4.488366    7.774077    0.000000    44     0.1767
  3. axis:    no     0.000000    0.000000   27.329469   152     0.1798

  Lengths:   8.976731   8.976731  27.329469
  Angles:   90.000000  90.000000 120.000000

Effective grid spacing dv^(1/3) = 0.1864

     iter     time        total  log10-change:
                         energy  eigst   dens
iter:   1 00:46:10 -5350.788536  -2.60
iter:   2 00:46:56 -5350.660460  -3.34  -2.66
iter:   3 00:47:43 -5350.634277c -4.15  -2.92
iter:   4 00:48:29 -5350.627816c -4.29  -3.29
iter:   5 00:49:15 -5350.625575c -4.41  -3.57
iter:   6 00:50:01 -5350.625417c -4.79  -3.79
iter:   7 00:50:48 -5350.625093c -5.32  -3.88
iter:   8 00:51:34 -5350.625059c -5.61  -4.03c
iter:   9 00:52:20 -5350.625082c -5.97  -4.33c
iter:  10 00:53:06 -5350.625066c -6.89  -4.40c
iter:  11 00:53:52 -5350.625035c -6.39  -4.49c
iter:  12 00:54:38 -5350.625041c -6.69  -4.69c
iter:  13 00:55:25 -5350.625036c -7.56c -4.81c

Converged after 13 iterations.

Dipole moment: (-9.274612, -7.886892, -0.225437) |e|*Ang

Energy contributions relative to reference atoms: (reference = -5206549.376850)

Kinetic:       +866.158377
Potential:     -847.056504
External:        +0.000000
XC:            -5373.426300
Entropy (-ST):   -0.383930
Local:           +3.891356
--------------------------
Free energy:   -5350.817001
Extrapolated:  -5350.625036

Showing only first 2 kpts
 Kpt  Band  Eigenvalues  Occupancy
  0   306     -5.09589    1.92274
  0   307     -4.94007    1.67943
  0   308     -4.70716    0.67564
  0   309     -4.64644    0.43502

  1   306     -5.51823    1.99882
  1   307     -5.25539    1.98382
  1   308     -4.99260    1.79713
  1   309     -4.95968    1.72877


Fermi level: -4.77446

No gap

Forces in eV/Ang:
  0 Ag    0.00000    0.01659   -0.03248
  1 Ag   -0.03097   -0.00408    0.01611
  2 Ag    0.00000    0.00514    0.00716
  3 Ag    0.01380   -0.01111   -0.02122
  4 Ag    0.02743   -0.01534   -0.03753
  5 Ag    0.00000    0.00850    0.03711
  6 Ag    0.02400   -0.00470   -0.05431
  7 Ag   -0.03266   -0.02216   -0.00930
  8 Ag   -0.00360    0.01085   -0.01857
  9 Ag    0.02931   -0.00170    0.02412
 10 Ag    0.01021    0.02053   -0.05310
 11 Ag    0.00000    0.02952   -0.01386
 12 Ag    0.00103   -0.00913   -0.02469
 13 Ag    0.00000    0.03269    0.01748
 14 Ag   -0.00870   -0.02077   -0.05202
 15 Ag   -0.01380   -0.01111   -0.02122
 16 Ag   -0.02743   -0.01534   -0.03753
 17 Ag    0.04472   -0.01977    0.00851
 18 Ag   -0.02400   -0.00470   -0.05431
 19 Ag    0.00000   -0.04396    0.10700
 20 Ag    0.00000    0.00873   -0.02499
 21 Ag   -0.02931   -0.00170    0.02412
 22 Ag    0.00000   -0.00339    0.02607
 23 Ag   -0.08182    0.02391    0.11869
 24 Ag   -0.00103   -0.00913   -0.02469
 25 Ag    0.03097   -0.00408    0.01611
 26 Ag    0.00870   -0.02077   -0.05202
 27 Ag    0.00000    0.06677    0.00234
 28 Ag    0.00000    0.00025   -0.01203
 29 Ag   -0.04472   -0.01977    0.00851
 30 Ag    0.00000   -0.00999   -0.04246
 31 Ag    0.03266   -0.02216   -0.00930
 32 Ag    0.00360    0.01085   -0.01857
 33 Ag    0.00000    0.01800   -0.00827
 34 Ag   -0.01021    0.02053   -0.05310
 35 Ag    0.08182    0.02391    0.11869
 36 C     0.00000    0.00985    0.11474

BFGS:    3 00:55:47    -5350.625036        0.1461
System changes: positions 

Initializing position-dependent things.

Density initialized from wave functions
                                                  
                                                  
                                                  
                                                  
                                                  
                            C                     
                  Ag     Ag      Ag               
                                                  
            Ag     AAg    AAg     Ag              
                      Ag     Ag     Ag            
              Ag     Ag     Ag                    
               AAg    AAg    AAg                  
                                                  
                 Ag     Ag     Ag                 
                                                  
          Ag      AAg    AAg     Ag               
                                                  
            Ag      Ag     Ag                     
              Ag      Ag     Ag                   
                                                  
                                                  
                                                  
                                                  

Positions:
   0 Ag    -0.000000    0.000000    9.999999    ( 0.0000,  0.0000,  0.0000)
   1 Ag     1.496122    0.863786   12.443156    ( 0.0000,  0.0000,  0.0000)
   2 Ag    -0.000000    1.722347   14.880752    ( 0.0000,  0.0000,  0.0000)
   3 Ag     2.993662   -0.001702   17.330228    ( 0.0000,  0.0000,  0.0000)
   4 Ag    -1.496122    2.591359    9.999999    ( 0.0000,  0.0000,  0.0000)
   5 Ag     0.000000    3.455145   12.443156    ( 0.0000,  0.0000,  0.0000)
   6 Ag    -1.487620    4.323848   14.876027    ( 0.0000,  0.0000,  0.0000)
   7 Ag     1.487711    2.585353   17.331896    ( 0.0000,  0.0000,  0.0000)
   8 Ag    -2.992244    5.182718    9.999999    ( 0.0000,  0.0000,  0.0000)
   9 Ag    -1.496122    6.046505   12.443156    ( 0.0000,  0.0000,  0.0000)
  10 Ag    -2.994599    6.914071   14.875172    ( 0.0000,  0.0000,  0.0000)
  11 Ag     0.000000    5.186834   17.331097    ( 0.0000,  0.0000,  0.0000)
  12 Ag     2.992244    0.000000    9.999999    ( 0.0000,  0.0000,  0.0000)
  13 Ag     4.488366    0.863786   12.443156    ( 0.0000,  0.0000,  0.0000)
  14 Ag     2.996174    1.726787   14.873888    ( 0.0000,  0.0000,  0.0000)
  15 Ag     5.983070   -0.001702   17.330228    ( 0.0000,  0.0000,  0.0000)
  16 Ag     1.496122    2.591359    9.999999    ( 0.0000,  0.0000,  0.0000)
  17 Ag     2.992244    3.455145   12.443156    ( 0.0000,  0.0000,  0.0000)
  18 Ag     1.487620    4.323848   14.876027    ( 0.0000,  0.0000,  0.0000)
  19 Ag     4.488366    2.484982   17.306521    ( 0.0000,  0.0000,  0.0000)
  20 Ag     0.000000    5.182718    9.999999    ( 0.0000,  0.0000,  0.0000)
  21 Ag     1.496122    6.046505   12.443156    ( 0.0000,  0.0000,  0.0000)
  22 Ag     0.000000    6.902986   14.884439    ( 0.0000,  0.0000,  0.0000)
  23 Ag     2.899929    5.234839   17.307675    ( 0.0000,  0.0000,  0.0000)
  24 Ag     5.984488    0.000000    9.999999    ( 0.0000,  0.0000,  0.0000)
  25 Ag     7.480609    0.863786   12.443156    ( 0.0000,  0.0000,  0.0000)
  26 Ag     5.980557    1.726787   14.873888    ( 0.0000,  0.0000,  0.0000)
  27 Ag     8.976731    0.009995   17.337532    ( 0.0000,  0.0000,  0.0000)
  28 Ag     4.488366    2.591359    9.999999    ( 0.0000,  0.0000,  0.0000)
  29 Ag     5.984488    3.455145   12.443156    ( 0.0000,  0.0000,  0.0000)
  30 Ag     4.488366    4.314405   14.861373    ( 0.0000,  0.0000,  0.0000)
  31 Ag     7.489020    2.585353   17.331896    ( 0.0000,  0.0000,  0.0000)
  32 Ag     2.992244    5.182718    9.999999    ( 0.0000,  0.0000,  0.0000)
  33 Ag     4.488366    6.046505   12.443156    ( 0.0000,  0.0000,  0.0000)
  34 Ag     2.994599    6.914071   14.875172    ( 0.0000,  0.0000,  0.0000)
  35 Ag     6.076803    5.234839   17.307675    ( 0.0000,  0.0000,  0.0000)
  36 C      4.488366    4.318327   18.320294    ( 0.0000,  0.0000,  0.0000)

Unit cell:
           periodic     x           y           z      points  spacing
  1. axis:    yes    8.976731    0.000000    0.000000    44     0.1767
  2. axis:    yes   -4.488366    7.774077    0.000000    44     0.1767
  3. axis:    no     0.000000    0.000000   27.329469   152     0.1798

  Lengths:   8.976731   8.976731  27.329469
  Angles:   90.000000  90.000000 120.000000

Effective grid spacing dv^(1/3) = 0.1864

     iter     time        total  log10-change:
                         energy  eigst   dens
iter:   1 00:57:31 -5350.649833  -3.51
iter:   2 00:58:17 -5350.632785  -4.18  -3.06
iter:   3 00:59:04 -5350.628533c -5.10  -3.33
iter:   4 00:59:50 -5350.627646c -5.13  -3.70
iter:   5 01:00:36 -5350.627314c -5.17  -3.96
iter:   6 01:01:23 -5350.627284c -5.71  -4.22c
iter:   7 01:02:09 -5350.627240c -6.26  -4.33c
iter:   8 01:02:56 -5350.627244c -6.64  -4.46c
iter:   9 01:03:42 -5350.627258c -6.92  -4.66c
iter:  10 01:04:29 -5350.627258c -7.59c -4.78c

Converged after 10 iterations.

Dipole moment: (-9.531756, -7.924237, -0.228916) |e|*Ang

Energy contributions relative to reference atoms: (reference = -5206549.376850)

Kinetic:       +865.835996
Potential:     -846.786588
External:        +0.000000
XC:            -5373.374408
Entropy (-ST):   -0.383831
Local:           +3.889658
--------------------------
Free energy:   -5350.819174
Extrapolated:  -5350.627258

Showing only first 2 kpts
 Kpt  Band  Eigenvalues  Occupancy
  0   306     -5.09823    1.92288
  0   307     -4.94213    1.67920
  0   308     -4.70946    0.67639
  0   309     -4.64852    0.43483

  1   306     -5.52041    1.99882
  1   307     -5.25827    1.98394
  1   308     -4.99478    1.79721
  1   309     -4.96363    1.73299


Fermi level: -4.77660

No gap

Forces in eV/Ang:
  0 Ag    0.00000    0.01598   -0.02877
  1 Ag   -0.03000   -0.00394    0.01203
  2 Ag    0.00000    0.00538    0.00050
  3 Ag    0.00748   -0.00654   -0.01284
  4 Ag    0.02687   -0.01495   -0.03353
  5 Ag    0.00000    0.00956    0.03330
  6 Ag    0.01936   -0.00499   -0.04760
  7 Ag   -0.01849   -0.01416   -0.00353
  8 Ag   -0.00301    0.01112   -0.01717
  9 Ag    0.03667    0.00196    0.02150
 10 Ag    0.00818    0.01738   -0.04719
 11 Ag    0.00000    0.02293   -0.00659
 12 Ag    0.00180   -0.00955   -0.01953
 13 Ag    0.00000    0.02480    0.01474
 14 Ag   -0.00519   -0.01771   -0.04563
 15 Ag   -0.00748   -0.00654   -0.01284
 16 Ag   -0.02687   -0.01495   -0.03353
 17 Ag    0.03971   -0.02269    0.00031
 18 Ag   -0.01936   -0.00499   -0.04760
 19 Ag    0.00000    0.03418    0.12095
 20 Ag    0.00000    0.00953   -0.01971
 21 Ag   -0.03667    0.00196    0.02150
 22 Ag    0.00000   -0.00291    0.01228
 23 Ag    0.00672   -0.01785    0.13807
 24 Ag   -0.00180   -0.00955   -0.01953
 25 Ag    0.03000   -0.00394    0.01203
 26 Ag    0.00519   -0.01771   -0.04563
 27 Ag    0.00000    0.05384    0.00866
 28 Ag    0.00000   -0.00038   -0.01048
 29 Ag   -0.03971   -0.02269    0.00031
 30 Ag    0.00000   -0.00917   -0.00274
 31 Ag    0.01849   -0.01416   -0.00353
 32 Ag    0.00301    0.01112   -0.01717
 33 Ag    0.00000    0.02306   -0.01647
 34 Ag   -0.00818    0.01738   -0.04719
 35 Ag   -0.00672   -0.01785    0.13807
 36 C     0.00000   -0.00321    0.01847

BFGS:    4 01:04:51    -5350.627258        0.1394
System changes: positions 

Initializing position-dependent things.

Density initialized from wave functions
                                                  
                                                  
                                                  
                                                  
                                                  
                            C                     
                  Ag     Ag      Ag               
                                                  
            Ag     AAg    AAg     Ag              
                      Ag     Ag     Ag            
              Ag     Ag     Ag                    
               AAg    AAg    AAg                  
                                                  
                 Ag     Ag     Ag                 
                                                  
          Ag      AAg    AAg     Ag               
                                                  
            Ag      Ag     Ag                     
              Ag      Ag     Ag                   
                                                  
                                                  
                                                  
                                                  

Positions:
   0 Ag    -0.000000    0.000000    9.999999    ( 0.0000,  0.0000,  0.0000)
   1 Ag     1.496122    0.863786   12.443156    ( 0.0000,  0.0000,  0.0000)
   2 Ag    -0.000000    1.722517   14.880851    ( 0.0000,  0.0000,  0.0000)
   3 Ag     2.993987   -0.001967   17.329731    ( 0.0000,  0.0000,  0.0000)
   4 Ag    -1.496122    2.591359    9.999999    ( 0.0000,  0.0000,  0.0000)
   5 Ag     0.000000    3.455145   12.443156    ( 0.0000,  0.0000,  0.0000)
   6 Ag    -1.486960    4.323734   14.874496    ( 0.0000,  0.0000,  0.0000)
   7 Ag     1.486900    2.584782   17.331724    ( 0.0000,  0.0000,  0.0000)
   8 Ag    -2.992244    5.182718    9.999999    ( 0.0000,  0.0000,  0.0000)
   9 Ag    -1.496122    6.046505   12.443156    ( 0.0000,  0.0000,  0.0000)
  10 Ag    -2.994288    6.914620   14.873665    ( 0.0000,  0.0000,  0.0000)
  11 Ag     0.000000    5.187632   17.330806    ( 0.0000,  0.0000,  0.0000)
  12 Ag     2.992244    0.000000    9.999999    ( 0.0000,  0.0000,  0.0000)
  13 Ag     4.488366    0.863786   12.443156    ( 0.0000,  0.0000,  0.0000)
  14 Ag     2.995999    1.726195   14.872423    ( 0.0000,  0.0000,  0.0000)
  15 Ag     5.982745   -0.001967   17.329731    ( 0.0000,  0.0000,  0.0000)
  16 Ag     1.496122    2.591359    9.999999    ( 0.0000,  0.0000,  0.0000)
  17 Ag     2.992244    3.455145   12.443156    ( 0.0000,  0.0000,  0.0000)
  18 Ag     1.486960    4.323734   14.874496    ( 0.0000,  0.0000,  0.0000)
  19 Ag     4.488366    2.483508   17.309544    ( 0.0000,  0.0000,  0.0000)
  20 Ag     0.000000    5.182718    9.999999    ( 0.0000,  0.0000,  0.0000)
  21 Ag     1.496122    6.046505   12.443156    ( 0.0000,  0.0000,  0.0000)
  22 Ag     0.000000    6.902883   14.884989    ( 0.0000,  0.0000,  0.0000)
  23 Ag     2.897708    5.235539   17.311099    ( 0.0000,  0.0000,  0.0000)
  24 Ag     5.984488    0.000000    9.999999    ( 0.0000,  0.0000,  0.0000)
  25 Ag     7.480609    0.863786   12.443156    ( 0.0000,  0.0000,  0.0000)
  26 Ag     5.980732    1.726195   14.872423    ( 0.0000,  0.0000,  0.0000)
  27 Ag     8.976731    0.011862   17.337732    ( 0.0000,  0.0000,  0.0000)
  28 Ag     4.488366    2.591359    9.999999    ( 0.0000,  0.0000,  0.0000)
  29 Ag     5.984488    3.455145   12.443156    ( 0.0000,  0.0000,  0.0000)
  30 Ag     4.488366    4.314116   14.860638    ( 0.0000,  0.0000,  0.0000)
  31 Ag     7.489831    2.584782   17.331724    ( 0.0000,  0.0000,  0.0000)
  32 Ag     2.992244    5.182718    9.999999    ( 0.0000,  0.0000,  0.0000)
  33 Ag     4.488366    6.046505   12.443156    ( 0.0000,  0.0000,  0.0000)
  34 Ag     2.994288    6.914620   14.873665    ( 0.0000,  0.0000,  0.0000)
  35 Ag     6.079023    5.235539   17.311099    ( 0.0000,  0.0000,  0.0000)
  36 C      4.488366    4.318311   18.323782    ( 0.0000,  0.0000,  0.0000)

Unit cell:
           periodic     x           y           z      points  spacing
  1. axis:    yes    8.976731    0.000000    0.000000    44     0.1767
  2. axis:    yes   -4.488366    7.774077    0.000000    44     0.1767
  3. axis:    no     0.000000    0.000000   27.329469   152     0.1798

  Lengths:   8.976731   8.976731  27.329469
  Angles:   90.000000  90.000000 120.000000

Effective grid spacing dv^(1/3) = 0.1864

     iter     time        total  log10-change:
                         energy  eigst   dens
iter:   1 01:06:34 -5350.636578  -3.85
iter:   2 01:07:21 -5350.631131  -4.57  -3.24
iter:   3 01:08:07 -5350.629539c -5.69  -3.55
iter:   4 01:08:53 -5350.629183c -5.37  -3.89
iter:   5 01:09:40 -5350.629137c -5.88  -4.24c
iter:   6 01:10:26 -5350.629125c -6.56  -4.42c
iter:   7 01:11:12 -5350.629122c -6.56  -4.49c
iter:   8 01:11:58 -5350.629124c -7.03  -4.73c
iter:   9 01:12:45 -5350.629129c -7.57c -4.86c

Converged after 9 iterations.

Dipole moment: (-9.647290, -7.966517, -0.230053) |e|*Ang

Energy contributions relative to reference atoms: (reference = -5206549.376850)

Kinetic:       +865.683551
Potential:     -846.662963
External:        +0.000000
XC:            -5373.349846
Entropy (-ST):   -0.383758
Local:           +3.892008
--------------------------
Free energy:   -5350.821008
Extrapolated:  -5350.629129

Showing only first 2 kpts
 Kpt  Band  Eigenvalues  Occupancy
  0   306     -5.09919    1.92307
  0   307     -4.94289    1.67932
  0   308     -4.71008    0.67594
  0   309     -4.64895    0.43383

  1   306     -5.52195    1.99883
  1   307     -5.25956    1.98403
  1   308     -4.99602    1.79815
  1   309     -4.96490    1.73427


Fermi level: -4.77732

No gap

Forces in eV/Ang:
  0 Ag    0.00000    0.01597   -0.02879
  1 Ag   -0.03151   -0.00320    0.00921
  2 Ag    0.00000    0.00414   -0.00007
  3 Ag    0.00312   -0.00325   -0.01513
  4 Ag    0.02687   -0.01500   -0.03358
  5 Ag    0.00000    0.00774    0.03004
  6 Ag    0.00875   -0.00536   -0.03507
  7 Ag   -0.01105   -0.00989   -0.00901
  8 Ag   -0.00344    0.01094   -0.01680
  9 Ag    0.03598    0.00182    0.01946
 10 Ag    0.00245    0.01036   -0.03636
 11 Ag    0.00000    0.01897   -0.00960
 12 Ag    0.00160   -0.00950   -0.01978
 13 Ag    0.00000    0.02520    0.01256
 14 Ag    0.00025   -0.01039   -0.03435
 15 Ag   -0.00312   -0.00325   -0.01513
 16 Ag   -0.02687   -0.01500   -0.03358
 17 Ag    0.04074   -0.02211   -0.00006
 18 Ag   -0.00875   -0.00536   -0.03507
 19 Ag    0.00000    0.04650    0.11370
 20 Ag    0.00000    0.00939   -0.01999
 21 Ag   -0.03598    0.00182    0.01946
 22 Ag    0.00000   -0.00222    0.01115
 23 Ag    0.02797   -0.02364    0.12656
 24 Ag   -0.00160   -0.00950   -0.01978
 25 Ag    0.03151   -0.00320    0.00921
 26 Ag   -0.00025   -0.01039   -0.03435
 27 Ag    0.00000    0.04782    0.00299
 28 Ag    0.00000    0.00010   -0.01014
 29 Ag   -0.04074   -0.02211   -0.00006
 30 Ag    0.00000   -0.00696    0.00736
 31 Ag    0.01105   -0.00989   -0.00901
 32 Ag    0.00344    0.01094   -0.01680
 33 Ag    0.00000    0.02185   -0.01630
 34 Ag   -0.00245    0.01036   -0.03636
 35 Ag   -0.02797   -0.02364    0.12656
 36 C     0.00000   -0.00415   -0.00198

BFGS:    5 01:13:07    -5350.629129        0.1317
System changes: positions 

Initializing position-dependent things.

Density initialized from wave functions
                                                  
                                                  
                                                  
                                                  
                                                  
                            C                     
                  Ag     Ag      Ag               
                                                  
            Ag     AAg    AAg     Ag              
                      Ag     Ag     Ag            
              Ag     Ag     Ag                    
               AAg    AAg    AAg                  
                                                  
                 Ag     Ag     Ag                 
                                                  
          Ag      AAg    AAg     Ag               
                                                  
            Ag      Ag     Ag                     
              Ag      Ag     Ag                   
                                                  
                                                  
                                                  
                                                  

Positions:
   0 Ag    -0.000000    0.000000    9.999999    ( 0.0000,  0.0000,  0.0000)
   1 Ag     1.496122    0.863786   12.443156    ( 0.0000,  0.0000,  0.0000)
   2 Ag    -0.000000    1.723133   14.881182    ( 0.0000,  0.0000,  0.0000)
   3 Ag     2.994994   -0.002820   17.327602    ( 0.0000,  0.0000,  0.0000)
   4 Ag    -1.496122    2.591359    9.999999    ( 0.0000,  0.0000,  0.0000)
   5 Ag     0.000000    3.455145   12.443156    ( 0.0000,  0.0000,  0.0000)
   6 Ag    -1.484917    4.323182   14.868957    ( 0.0000,  0.0000,  0.0000)
   7 Ag     1.484205    2.582800   17.330716    ( 0.0000,  0.0000,  0.0000)
   8 Ag    -2.992244    5.182718    9.999999    ( 0.0000,  0.0000,  0.0000)
   9 Ag    -1.496122    6.046505   12.443156    ( 0.0000,  0.0000,  0.0000)
  10 Ag    -2.993420    6.916485   14.868118    ( 0.0000,  0.0000,  0.0000)
  11 Ag     0.000000    5.190616   17.329475    ( 0.0000,  0.0000,  0.0000)
  12 Ag     2.992244    0.000000    9.999999    ( 0.0000,  0.0000,  0.0000)
  13 Ag     4.488366    0.863786   12.443156    ( 0.0000,  0.0000,  0.0000)
  14 Ag     2.995575    1.724227   14.867077    ( 0.0000,  0.0000,  0.0000)
  15 Ag     5.981737   -0.002820   17.327602    ( 0.0000,  0.0000,  0.0000)
  16 Ag     1.496122    2.591359    9.999999    ( 0.0000,  0.0000,  0.0000)
  17 Ag     2.992244    3.455145   12.443156    ( 0.0000,  0.0000,  0.0000)
  18 Ag     1.484917    4.323182   14.868957    ( 0.0000,  0.0000,  0.0000)
  19 Ag     4.488366    2.481435   17.322564    ( 0.0000,  0.0000,  0.0000)
  20 Ag     0.000000    5.182718    9.999999    ( 0.0000,  0.0000,  0.0000)
  21 Ag     1.496122    6.046505   12.443156    ( 0.0000,  0.0000,  0.0000)
  22 Ag     0.000000    6.902518   14.887089    ( 0.0000,  0.0000,  0.0000)
  23 Ag     2.892641    5.236538   17.325607    ( 0.0000,  0.0000,  0.0000)
  24 Ag     5.984488    0.000000    9.999999    ( 0.0000,  0.0000,  0.0000)
  25 Ag     7.480609    0.863786   12.443156    ( 0.0000,  0.0000,  0.0000)
  26 Ag     5.981156    1.724227   14.867077    ( 0.0000,  0.0000,  0.0000)
  27 Ag     8.976731    0.019012   17.338237    ( 0.0000,  0.0000,  0.0000)
  28 Ag     4.488366    2.591359    9.999999    ( 0.0000,  0.0000,  0.0000)
  29 Ag     5.984488    3.455145   12.443156    ( 0.0000,  0.0000,  0.0000)
  30 Ag     4.488366    4.313058   14.858734    ( 0.0000,  0.0000,  0.0000)
  31 Ag     7.492526    2.582800   17.330716    ( 0.0000,  0.0000,  0.0000)
  32 Ag     2.992244    5.182718    9.999999    ( 0.0000,  0.0000,  0.0000)
  33 Ag     4.488366    6.046505   12.443156    ( 0.0000,  0.0000,  0.0000)
  34 Ag     2.993420    6.916485   14.868118    ( 0.0000,  0.0000,  0.0000)
  35 Ag     6.084091    5.236538   17.325607    ( 0.0000,  0.0000,  0.0000)
  36 C      4.488366    4.318220   18.333254    ( 0.0000,  0.0000,  0.0000)

Unit cell:
           periodic     x           y           z      points  spacing
  1. axis:    yes    8.976731    0.000000    0.000000    44     0.1767
  2. axis:    yes   -4.488366    7.774077    0.000000    44     0.1767
  3. axis:    no     0.000000    0.000000   27.329469   152     0.1798

  Lengths:   8.976731   8.976731  27.329469
  Angles:   90.000000  90.000000 120.000000

Effective grid spacing dv^(1/3) = 0.1864

     iter     time        total  log10-change:
                         energy  eigst   dens
iter:   1 01:14:50 -5350.707664  -2.72
iter:   2 01:15:37 -5350.652267  -3.56  -2.75
iter:   3 01:16:23 -5350.639793c -4.67  -3.04
iter:   4 01:17:10 -5350.634171c -4.08  -3.30
iter:   5 01:17:56 -5350.634100c -5.13  -3.80
iter:   6 01:18:43 -5350.634065c -5.83  -3.89
iter:   7 01:19:29 -5350.634029c -5.43  -3.94
iter:   8 01:20:15 -5350.634075c -6.08  -4.28c
iter:   9 01:21:02 -5350.634072c -6.42  -4.28c
iter:  10 01:21:48 -5350.634020c -6.27  -4.37c
iter:  11 01:22:35 -5350.634015c -7.06  -4.75c
iter:  12 01:23:21 -5350.634006c -7.30  -4.79c
iter:  13 01:24:07 -5350.634005c -7.53c -4.95c

Converged after 13 iterations.

Dipole moment: (-9.923016, -8.145627, -0.232833) |e|*Ang

Energy contributions relative to reference atoms: (reference = -5206549.376850)

Kinetic:       +865.326285
Potential:     -846.382974
External:        +0.000000
XC:            -5373.277882
Entropy (-ST):   -0.383547
Local:           +3.892340
--------------------------
Free energy:   -5350.825778
Extrapolated:  -5350.634005

Showing only first 2 kpts
 Kpt  Band  Eigenvalues  Occupancy
  0   306     -5.10239    1.92363
  0   307     -4.94529    1.67922
  0   308     -4.71195    0.67339
  0   309     -4.65047    0.43074

  1   306     -5.52726    1.99887
  1   307     -5.26360    1.98429
  1   308     -5.00015    1.80121
  1   309     -4.96884    1.73770


Fermi level: -4.77976

No gap

Forces in eV/Ang:
  0 Ag    0.00000    0.01768   -0.03366
  1 Ag   -0.03536   -0.00023   -0.00145
  2 Ag    0.00000    0.00171   -0.00475
  3 Ag   -0.00579    0.00535   -0.01247
  4 Ag    0.02828   -0.01549   -0.03846
  5 Ag    0.00000    0.00310    0.01771
  6 Ag   -0.01519   -0.00301    0.00453
  7 Ag    0.01131    0.00392   -0.01330
  8 Ag   -0.00186    0.01136   -0.02037
  9 Ag    0.03923    0.00334    0.01219
 10 Ag   -0.00604   -0.00621   -0.00331
 11 Ag    0.00000    0.01058   -0.00935
 12 Ag    0.00197   -0.00956   -0.02449
 13 Ag    0.00000    0.02137    0.00444
 14 Ag    0.01627    0.00373   -0.00017
 15 Ag    0.00579    0.00535   -0.01247
 16 Ag   -0.02828   -0.01549   -0.03846
 17 Ag    0.04192   -0.02151   -0.00690
 18 Ag    0.01519   -0.00301    0.00453
 19 Ag    0.00000    0.05200    0.09871
 20 Ag    0.00000    0.00935   -0.02470
 21 Ag   -0.03923    0.00334    0.01219
 22 Ag    0.00000   -0.00076   -0.00060
 23 Ag    0.06076   -0.02285    0.09200
 24 Ag   -0.00197   -0.00956   -0.02449
 25 Ag    0.03536   -0.00023   -0.00145
 26 Ag   -0.01627    0.00373   -0.00017
 27 Ag    0.00000    0.02711   -0.00025
 28 Ag    0.00000   -0.00133   -0.01379
 29 Ag   -0.04192   -0.02151   -0.00690
 30 Ag    0.00000   -0.00083    0.04099
 31 Ag   -0.01131    0.00392   -0.01330
 32 Ag    0.00186    0.01136   -0.02037
 33 Ag    0.00000    0.01935   -0.02223
 34 Ag    0.00604   -0.00621   -0.00331
 35 Ag   -0.06076   -0.02285    0.09200
 36 C     0.00000    0.01339   -0.03206

BFGS:    6 01:24:30    -5350.634005        0.1126
System changes: positions 

Initializing position-dependent things.

Density initialized from wave functions
                                                  
                                                  
                                                  
                                                  
                                                  
                            C                     
                  Ag     Ag      Ag               
                                                  
            Ag     AAg    AAg     Ag              
                      Ag     Ag     Ag            
              Ag     Ag     Ag                    
               AAg    AAg    AAg                  
                                                  
                 Ag     Ag     Ag                 
                                                  
          Ag      AAg    AAg     Ag               
                                                  
            Ag      Ag     Ag                     
              Ag      Ag     Ag                   
                                                  
                                                  
                                                  
                                                  

Positions:
   0 Ag    -0.000000    0.000000    9.999999    ( 0.0000,  0.0000,  0.0000)
   1 Ag     1.496122    0.863786   12.443156    ( 0.0000,  0.0000,  0.0000)
   2 Ag    -0.000000    1.723660   14.881342    ( 0.0000,  0.0000,  0.0000)
   3 Ag     2.995676   -0.003390   17.325640    ( 0.0000,  0.0000,  0.0000)
   4 Ag    -1.496122    2.591359    9.999999    ( 0.0000,  0.0000,  0.0000)
   5 Ag     0.000000    3.455145   12.443156    ( 0.0000,  0.0000,  0.0000)
   6 Ag    -1.483595    4.322653   14.864613    ( 0.0000,  0.0000,  0.0000)
   7 Ag     1.482337    2.581325   17.329637    ( 0.0000,  0.0000,  0.0000)
   8 Ag    -2.992244    5.182718    9.999999    ( 0.0000,  0.0000,  0.0000)
   9 Ag    -1.496122    6.046505   12.443156    ( 0.0000,  0.0000,  0.0000)
  10 Ag    -2.992860    6.917878   14.863590    ( 0.0000,  0.0000,  0.0000)
  11 Ag    -0.000000    5.193243   17.328219    ( 0.0000,  0.0000,  0.0000)
  12 Ag     2.992244    0.000000    9.999999    ( 0.0000,  0.0000,  0.0000)
  13 Ag     4.488366    0.863786   12.443156    ( 0.0000,  0.0000,  0.0000)
  14 Ag     2.995563    1.722718   14.862775    ( 0.0000,  0.0000,  0.0000)
  15 Ag     5.981055   -0.003390   17.325640    ( 0.0000,  0.0000,  0.0000)
  16 Ag     1.496122    2.591359    9.999999    ( 0.0000,  0.0000,  0.0000)
  17 Ag     2.992244    3.455145   12.443156    ( 0.0000,  0.0000,  0.0000)
  18 Ag     1.483595    4.322653   14.864613    ( 0.0000,  0.0000,  0.0000)
  19 Ag     4.488366    2.482216   17.335668    ( 0.0000,  0.0000,  0.0000)
  20 Ag     0.000000    5.182718    9.999999    ( 0.0000,  0.0000,  0.0000)
  21 Ag     1.496122    6.046505   12.443156    ( 0.0000,  0.0000,  0.0000)
  22 Ag     0.000000    6.902212   14.888745    ( 0.0000,  0.0000,  0.0000)
  23 Ag     2.890888    5.236270   17.339733    ( 0.0000,  0.0000,  0.0000)
  24 Ag     5.984488    0.000000    9.999999    ( 0.0000,  0.0000,  0.0000)
  25 Ag     7.480609    0.863786   12.443156    ( 0.0000,  0.0000,  0.0000)
  26 Ag     5.981169    1.722718   14.862775    ( 0.0000,  0.0000,  0.0000)
  27 Ag     8.976731    0.025294   17.338657    ( 0.0000,  0.0000,  0.0000)
  28 Ag     4.488366    2.591359    9.999999    ( 0.0000,  0.0000,  0.0000)
  29 Ag     5.984488    3.455145   12.443156    ( 0.0000,  0.0000,  0.0000)
  30 Ag     4.488366    4.312188   14.858211    ( 0.0000,  0.0000,  0.0000)
  31 Ag     7.494394    2.581325   17.329637    ( 0.0000,  0.0000,  0.0000)
  32 Ag     2.992244    5.182718    9.999999    ( 0.0000,  0.0000,  0.0000)
  33 Ag     4.488366    6.046505   12.443156    ( 0.0000,  0.0000,  0.0000)
  34 Ag     2.992860    6.917878   14.863590    ( 0.0000,  0.0000,  0.0000)
  35 Ag     6.085843    5.236270   17.339733    ( 0.0000,  0.0000,  0.0000)
  36 C      4.488366    4.318582   18.338707    ( 0.0000,  0.0000,  0.0000)

Unit cell:
           periodic     x           y           z      points  spacing
  1. axis:    yes    8.976731    0.000000    0.000000    44     0.1767
  2. axis:    yes   -4.488366    7.774077    0.000000    44     0.1767
  3. axis:    no     0.000000    0.000000   27.329469   152     0.1798

  Lengths:   8.976731   8.976731  27.329469
  Angles:   90.000000  90.000000 120.000000

Effective grid spacing dv^(1/3) = 0.1864

     iter     time        total  log10-change:
                         energy  eigst   dens
iter:   1 01:26:13 -5350.669156  -2.83
iter:   2 01:27:00 -5350.645344  -3.81  -2.91
iter:   3 01:27:46 -5350.640280c -4.82  -3.19
iter:   4 01:28:33 -5350.636548c -4.55  -3.34
iter:   5 01:29:19 -5350.636059c -4.88  -3.70
iter:   6 01:30:05 -5350.636045c -5.61  -3.97
iter:   7 01:30:51 -5350.636071c -5.95  -4.00
iter:   8 01:31:38 -5350.636049c -5.86  -4.11c
iter:   9 01:32:24 -5350.636027c -6.60  -4.37c
iter:  10 01:33:10 -5350.636032c -6.75  -4.46c
iter:  11 01:33:56 -5350.636017c -7.10  -4.62c
iter:  12 01:34:43 -5350.636024c -7.34  -4.78c
iter:  13 01:35:29 -5350.636020c -7.88c -4.93c

Converged after 13 iterations.

Dipole moment: (-10.036937, -8.322225, -0.234678) |e|*Ang

Energy contributions relative to reference atoms: (reference = -5206549.376850)

Kinetic:       +865.036679
Potential:     -846.145924
External:        +0.000000
XC:            -5373.228403
Entropy (-ST):   -0.383369
Local:           +3.893312
--------------------------
Free energy:   -5350.827705
Extrapolated:  -5350.636020

Showing only first 2 kpts
 Kpt  Band  Eigenvalues  Occupancy
  0   306     -5.10382    1.92428
  0   307     -4.94582    1.67920
  0   308     -4.71177    0.67019
  0   309     -4.65018    0.42797

  1   306     -5.53055    1.99890
  1   307     -5.26534    1.98447
  1   308     -5.00225    1.80399
  1   309     -4.97003    1.73919


Fermi level: -4.78029

No gap

Forces in eV/Ang:
  0 Ag    0.00000    0.01535   -0.03181
  1 Ag   -0.03768    0.00109   -0.00939
  2 Ag    0.00000   -0.00043   -0.01103
  3 Ag   -0.01359    0.01160   -0.01219
  4 Ag    0.02648   -0.01474   -0.03672
  5 Ag    0.00000    0.00029    0.00936
  6 Ag   -0.03603    0.00136    0.03765
  7 Ag    0.02997    0.01688   -0.01834
  8 Ag   -0.00398    0.01077   -0.01840
  9 Ag    0.04104    0.00481    0.00665
 10 Ag   -0.01313   -0.02447    0.02682
 11 Ag    0.00000    0.00252   -0.01108
 12 Ag    0.00167   -0.00979   -0.02263
 13 Ag    0.00000    0.01806   -0.00240
 14 Ag    0.03023    0.01648    0.02882
 15 Ag    0.01359    0.01160   -0.01219
 16 Ag   -0.02648   -0.01474   -0.03672
 17 Ag    0.04431   -0.02006   -0.01350
 18 Ag    0.03603    0.00136    0.03765
 19 Ag    0.00000    0.03313    0.05870
 20 Ag    0.00000    0.00966   -0.02305
 21 Ag   -0.04104    0.00481    0.00665
 22 Ag    0.00000   -0.00032   -0.01252
 23 Ag    0.05433   -0.00419    0.04567
 24 Ag   -0.00167   -0.00979   -0.02263
 25 Ag    0.03768    0.00109   -0.00939
 26 Ag   -0.03023    0.01648    0.02882
 27 Ag    0.00000   -0.00252   -0.00534
 28 Ag    0.00000    0.00084   -0.01187
 29 Ag   -0.04431   -0.02006   -0.01350
 30 Ag    0.00000    0.00629    0.06937
 31 Ag   -0.02997    0.01688   -0.01834
 32 Ag    0.00398    0.01077   -0.01840
 33 Ag    0.00000    0.01627   -0.02813
 34 Ag    0.01313   -0.02447    0.02682
 35 Ag   -0.05433   -0.00419    0.04567
 36 C     0.00000    0.02633    0.00266

BFGS:    7 01:35:51    -5350.636020        0.0711
System changes: positions 

Initializing position-dependent things.

Density initialized from wave functions
                                                  
                                                  
                                                  
                                                  
                                                  
                            C                     
                  Ag     Ag      Ag               
                                                  
            Ag     AAg    AAg     Ag              
                      Ag     Ag     Ag            
              Ag     Ag     Ag                    
               AAg    AAg    AAg                  
                                                  
                 Ag     Ag     Ag                 
                                                  
          Ag      AAg    AAg     Ag               
                                                  
            Ag      Ag     Ag                     
              Ag      Ag     Ag                   
                                                  
                                                  
                                                  
                                                  

Positions:
   0 Ag    -0.000000    0.000000    9.999999    ( 0.0000,  0.0000,  0.0000)
   1 Ag     1.496122    0.863786   12.443156    ( 0.0000,  0.0000,  0.0000)
   2 Ag    -0.000000    1.723770   14.881185    ( 0.0000,  0.0000,  0.0000)
   3 Ag     2.995597   -0.003325   17.325009    ( 0.0000,  0.0000,  0.0000)
   4 Ag    -1.496122    2.591359    9.999999    ( 0.0000,  0.0000,  0.0000)
   5 Ag     0.000000    3.455145   12.443156    ( 0.0000,  0.0000,  0.0000)
   6 Ag    -1.483879    4.322538   14.864232    ( 0.0000,  0.0000,  0.0000)
   7 Ag     1.482454    2.581296   17.329105    ( 0.0000,  0.0000,  0.0000)
   8 Ag    -2.992244    5.182718    9.999999    ( 0.0000,  0.0000,  0.0000)
   9 Ag    -1.496122    6.046505   12.443156    ( 0.0000,  0.0000,  0.0000)
  10 Ag    -2.992959    6.917809   14.862990    ( 0.0000,  0.0000,  0.0000)
  11 Ag    -0.000000    5.193870   17.327765    ( 0.0000,  0.0000,  0.0000)
  12 Ag     2.992244    0.000000    9.999999    ( 0.0000,  0.0000,  0.0000)
  13 Ag     4.488366    0.863786   12.443156    ( 0.0000,  0.0000,  0.0000)
  14 Ag     2.996036    1.722643   14.862257    ( 0.0000,  0.0000,  0.0000)
  15 Ag     5.981135   -0.003325   17.325009    ( 0.0000,  0.0000,  0.0000)
  16 Ag     1.496122    2.591359    9.999999    ( 0.0000,  0.0000,  0.0000)
  17 Ag     2.992244    3.455145   12.443156    ( 0.0000,  0.0000,  0.0000)
  18 Ag     1.483879    4.322538   14.864232    ( 0.0000,  0.0000,  0.0000)
  19 Ag     4.488366    2.484023   17.339965    ( 0.0000,  0.0000,  0.0000)
  20 Ag     0.000000    5.182718    9.999999    ( 0.0000,  0.0000,  0.0000)
  21 Ag     1.496122    6.046505   12.443156    ( 0.0000,  0.0000,  0.0000)
  22 Ag     0.000000    6.902140   14.888891    ( 0.0000,  0.0000,  0.0000)
  23 Ag     2.892247    5.235650   17.344082    ( 0.0000,  0.0000,  0.0000)
  24 Ag     5.984488    0.000000    9.999999    ( 0.0000,  0.0000,  0.0000)
  25 Ag     7.480609    0.863786   12.443156    ( 0.0000,  0.0000,  0.0000)
  26 Ag     5.980695    1.722643   14.862257    ( 0.0000,  0.0000,  0.0000)
  27 Ag     8.976731    0.026621   17.338677    ( 0.0000,  0.0000,  0.0000)
  28 Ag     4.488366    2.591359    9.999999    ( 0.0000,  0.0000,  0.0000)
  29 Ag     5.984488    3.455145   12.443156    ( 0.0000,  0.0000,  0.0000)
  30 Ag     4.488366    4.312093   14.859369    ( 0.0000,  0.0000,  0.0000)
  31 Ag     7.494277    2.581296   17.329105    ( 0.0000,  0.0000,  0.0000)
  32 Ag     2.992244    5.182718    9.999999    ( 0.0000,  0.0000,  0.0000)
  33 Ag     4.488366    6.046505   12.443156    ( 0.0000,  0.0000,  0.0000)
  34 Ag     2.992959    6.917809   14.862990    ( 0.0000,  0.0000,  0.0000)
  35 Ag     6.084485    5.235650   17.344082    ( 0.0000,  0.0000,  0.0000)
  36 C      4.488366    4.319141   18.338829    ( 0.0000,  0.0000,  0.0000)

Unit cell:
           periodic     x           y           z      points  spacing
  1. axis:    yes    8.976731    0.000000    0.000000    44     0.1767
  2. axis:    yes   -4.488366    7.774077    0.000000    44     0.1767
  3. axis:    no     0.000000    0.000000   27.329469   152     0.1798

  Lengths:   8.976731   8.976731  27.329469
  Angles:   90.000000  90.000000 120.000000

Effective grid spacing dv^(1/3) = 0.1864

     iter     time        total  log10-change:
                         energy  eigst   dens
iter:   1 01:37:34 -5350.638161  -3.87
iter:   2 01:38:20 -5350.637042  -4.94  -3.65
iter:   3 01:39:06 -5350.636844c -5.46  -3.90
iter:   4 01:39:52 -5350.636779c -6.07  -4.15c
iter:   5 01:40:39 -5350.636732c -6.32  -4.27c
iter:   6 01:41:25 -5350.636735c -6.58  -4.52c
iter:   7 01:42:11 -5350.636743c -7.02  -4.63c
iter:   8 01:42:57 -5350.636743c -7.39  -4.79c
iter:   9 01:43:44 -5350.636731c -7.51c -4.87c

Converged after 9 iterations.

Dipole moment: (-9.974611, -8.383539, -0.234992) |e|*Ang

Energy contributions relative to reference atoms: (reference = -5206549.376850)

Kinetic:       +865.084215
Potential:     -846.194012
External:        +0.000000
XC:            -5373.229862
Entropy (-ST):   -0.383334
Local:           +3.894596
--------------------------
Free energy:   -5350.828398
Extrapolated:  -5350.636731

Showing only first 2 kpts
 Kpt  Band  Eigenvalues  Occupancy
  0   306     -5.10408    1.92447
  0   307     -4.94569    1.67882
  0   308     -4.71152    0.66906
  0   309     -4.65014    0.42780

  1   306     -5.53095    1.99890
  1   307     -5.26539    1.98448
  1   308     -5.00250    1.80440
  1   309     -4.97013    1.73939


Fermi level: -4.78030

No gap

Forces in eV/Ang:
  0 Ag    0.00000    0.01684   -0.03171
  1 Ag   -0.03813    0.00185   -0.01171
  2 Ag    0.00000   -0.00123   -0.00872
  3 Ag   -0.01405    0.01199   -0.01131
  4 Ag    0.02755   -0.01541   -0.03630
  5 Ag    0.00000   -0.00012    0.00740
  6 Ag   -0.03620    0.00341    0.04546
  7 Ag    0.02816    0.01709   -0.01876
  8 Ag   -0.00285    0.01124   -0.01853
  9 Ag    0.04163    0.00471    0.00495
 10 Ag   -0.01325   -0.02627    0.03554
 11 Ag    0.00000    0.00182   -0.01110
 12 Ag    0.00180   -0.00956   -0.02211
 13 Ag    0.00000    0.01762   -0.00468
 14 Ag    0.02980    0.01756    0.03672
 15 Ag    0.01405    0.01199   -0.01131
 16 Ag   -0.02755   -0.01541   -0.03630
 17 Ag    0.04374   -0.02058   -0.01298
 18 Ag    0.03620    0.00341    0.04546
 19 Ag    0.00000    0.00576    0.03695
 20 Ag    0.00000    0.00955   -0.02253
 21 Ag   -0.04163    0.00471    0.00495
 22 Ag    0.00000   -0.00079   -0.01190
 23 Ag    0.02191    0.01486    0.02198
 24 Ag   -0.00180   -0.00956   -0.02211
 25 Ag    0.03813    0.00185   -0.01171
 26 Ag   -0.02980    0.01756    0.03672
 27 Ag    0.00000   -0.00553   -0.00712
 28 Ag    0.00000   -0.00058   -0.01184
 29 Ag   -0.04374   -0.02058   -0.01298
 30 Ag    0.00000    0.00763    0.06438
 31 Ag   -0.02816    0.01709   -0.01876
 32 Ag    0.00285    0.01124   -0.01853
 33 Ag    0.00000    0.01651   -0.02765
 34 Ag    0.01325   -0.02627    0.03554
 35 Ag   -0.02191    0.01486    0.02198
 36 C     0.00000    0.02148    0.04202

BFGS:    8 01:44:06    -5350.636731        0.0648
System changes: positions 

Initializing position-dependent things.

Density initialized from wave functions
                                                  
                                                  
                                                  
                                                  
                                                  
                            C                     
                  Ag     Ag      Ag               
                                                  
            Ag     AAg    AAg     Ag              
                      Ag     Ag     Ag            
              Ag     Ag     Ag                    
               AAg    AAg    AAg                  
                                                  
                 Ag     Ag     Ag                 
                                                  
          Ag      AAg    AAg     Ag               
                                                  
            Ag      Ag     Ag                     
              Ag      Ag     Ag                   
                                                  
                                                  
                                                  
                                                  

Positions:
   0 Ag    -0.000000    0.000000    9.999999    ( 0.0000,  0.0000,  0.0000)
   1 Ag     1.496122    0.863786   12.443156    ( 0.0000,  0.0000,  0.0000)
   2 Ag    -0.000000    1.723809   14.880812    ( 0.0000,  0.0000,  0.0000)
   3 Ag     2.995124   -0.002926   17.324271    ( 0.0000,  0.0000,  0.0000)
   4 Ag    -1.496122    2.591359    9.999999    ( 0.0000,  0.0000,  0.0000)
   5 Ag     0.000000    3.455145   12.443156    ( 0.0000,  0.0000,  0.0000)
   6 Ag    -1.485121    4.322542   14.865280    ( 0.0000,  0.0000,  0.0000)
   7 Ag     1.483397    2.581796   17.328216    ( 0.0000,  0.0000,  0.0000)
   8 Ag    -2.992244    5.182718    9.999999    ( 0.0000,  0.0000,  0.0000)
   9 Ag    -1.496122    6.046505   12.443156    ( 0.0000,  0.0000,  0.0000)
  10 Ag    -2.993418    6.917018   14.863597    ( 0.0000,  0.0000,  0.0000)
  11 Ag    -0.000000    5.194342   17.327154    ( 0.0000,  0.0000,  0.0000)
  12 Ag     2.992244    0.000000    9.999999    ( 0.0000,  0.0000,  0.0000)
  13 Ag     4.488366    0.863786   12.443156    ( 0.0000,  0.0000,  0.0000)
  14 Ag     2.997213    1.723099   14.862955    ( 0.0000,  0.0000,  0.0000)
  15 Ag     5.981607   -0.002926   17.324271    ( 0.0000,  0.0000,  0.0000)
  16 Ag     1.496122    2.591359    9.999999    ( 0.0000,  0.0000,  0.0000)
  17 Ag     2.992244    3.455145   12.443156    ( 0.0000,  0.0000,  0.0000)
  18 Ag     1.485121    4.322542   14.865280    ( 0.0000,  0.0000,  0.0000)
  19 Ag     4.488366    2.486226   17.344273    ( 0.0000,  0.0000,  0.0000)
  20 Ag     0.000000    5.182718    9.999999    ( 0.0000,  0.0000,  0.0000)
  21 Ag     1.496122    6.046505   12.443156    ( 0.0000,  0.0000,  0.0000)
  22 Ag     0.000000    6.902072   14.888619    ( 0.0000,  0.0000,  0.0000)
  23 Ag     2.894515    5.235270   17.348003    ( 0.0000,  0.0000,  0.0000)
  24 Ag     5.984488    0.000000    9.999999    ( 0.0000,  0.0000,  0.0000)
  25 Ag     7.480609    0.863786   12.443156    ( 0.0000,  0.0000,  0.0000)
  26 Ag     5.979518    1.723099   14.862955    ( 0.0000,  0.0000,  0.0000)
  27 Ag     8.976731    0.027343   17.338505    ( 0.0000,  0.0000,  0.0000)
  28 Ag     4.488366    2.591359    9.999999    ( 0.0000,  0.0000,  0.0000)
  29 Ag     5.984488    3.455145   12.443156    ( 0.0000,  0.0000,  0.0000)
  30 Ag     4.488366    4.312244   14.862153    ( 0.0000,  0.0000,  0.0000)
  31 Ag     7.493334    2.581796   17.328216    ( 0.0000,  0.0000,  0.0000)
  32 Ag     2.992244    5.182718    9.999999    ( 0.0000,  0.0000,  0.0000)
  33 Ag     4.488366    6.046505   12.443156    ( 0.0000,  0.0000,  0.0000)
  34 Ag     2.993418    6.917018   14.863597    ( 0.0000,  0.0000,  0.0000)
  35 Ag     6.082216    5.235270   17.348003    ( 0.0000,  0.0000,  0.0000)
  36 C      4.488366    4.320177   18.339193    ( 0.0000,  0.0000,  0.0000)

Unit cell:
           periodic     x           y           z      points  spacing
  1. axis:    yes    8.976731    0.000000    0.000000    44     0.1767
  2. axis:    yes   -4.488366    7.774077    0.000000    44     0.1767
  3. axis:    no     0.000000    0.000000   27.329469   152     0.1798

  Lengths:   8.976731   8.976731  27.329469
  Angles:   90.000000  90.000000 120.000000

Effective grid spacing dv^(1/3) = 0.1864

     iter     time        total  log10-change:
                         energy  eigst   dens
iter:   1 01:45:49 -5350.645600  -3.74
[...]
  11 Ag    -0.000000    5.200119   17.321076    ( 0.0000,  0.0000,  0.0000)
  12 Ag     2.992244    0.000000    9.999999    ( 0.0000,  0.0000,  0.0000)
  13 Ag     4.488366    0.863786   12.443156    ( 0.0000,  0.0000,  0.0000)
  14 Ag     3.007331    1.726467   14.870135    ( 0.0000,  0.0000,  0.0000)
  15 Ag     5.985353    0.001022   17.316834    ( 0.0000,  0.0000,  0.0000)
  16 Ag     1.496122    2.591359    9.999999    ( 0.0000,  0.0000,  0.0000)
  17 Ag     2.992244    3.455145   12.443156    ( 0.0000,  0.0000,  0.0000)
  18 Ag     1.495393    4.324619   14.875593    ( 0.0000,  0.0000,  0.0000)
  19 Ag     4.488366    2.487925   17.380888    ( 0.0000,  0.0000,  0.0000)
  20 Ag     0.000000    5.182718    9.999999    ( 0.0000,  0.0000,  0.0000)
  21 Ag     1.496122    6.046505   12.443156    ( 0.0000,  0.0000,  0.0000)
  22 Ag     0.000000    6.900811   14.885040    ( 0.0000,  0.0000,  0.0000)
  23 Ag     2.895854    5.243123   17.380006    ( 0.0000,  0.0000,  0.0000)
  24 Ag     5.984488    0.000000    9.999999    ( 0.0000,  0.0000,  0.0000)
  25 Ag     7.480609    0.863786   12.443156    ( 0.0000,  0.0000,  0.0000)
  26 Ag     5.969400    1.726467   14.870135    ( 0.0000,  0.0000,  0.0000)
  27 Ag     8.976731    0.035706   17.336804    ( 0.0000,  0.0000,  0.0000)
  28 Ag     4.488366    2.591359    9.999999    ( 0.0000,  0.0000,  0.0000)
  29 Ag     5.984488    3.455145   12.443156    ( 0.0000,  0.0000,  0.0000)
  30 Ag     4.488366    4.314380   14.887739    ( 0.0000,  0.0000,  0.0000)
  31 Ag     7.486552    2.586892   17.319526    ( 0.0000,  0.0000,  0.0000)
  32 Ag     2.992244    5.182718    9.999999    ( 0.0000,  0.0000,  0.0000)
  33 Ag     4.488366    6.046505   12.443156    ( 0.0000,  0.0000,  0.0000)
  34 Ag     2.997406    6.908789   14.870490    ( 0.0000,  0.0000,  0.0000)
  35 Ag     6.080877    5.243123   17.380006    ( 0.0000,  0.0000,  0.0000)
  36 C      4.488366    4.328474   18.372104    ( 0.0000,  0.0000,  0.0000)

Unit cell:
           periodic     x           y           z      points  spacing
  1. axis:    yes    8.976731    0.000000    0.000000    44     0.1767
  2. axis:    yes   -4.488366    7.774077    0.000000    44     0.1767
  3. axis:    no     0.000000    0.000000   27.329469   152     0.1798

  Lengths:   8.976731   8.976731  27.329469
  Angles:   90.000000  90.000000 120.000000

Effective grid spacing dv^(1/3) = 0.1864

     iter     time        total  log10-change:
                         energy  eigst   dens
iter:   1 02:24:16 -5350.644978  -4.08
iter:   2 02:25:03 -5350.643678  -5.12  -3.62
iter:   3 02:25:49 -5350.643184c -5.39  -3.83
iter:   4 02:26:35 -5350.643192c -5.88  -4.12c
iter:   5 02:27:22 -5350.643175c -6.26  -4.31c
iter:   6 02:28:08 -5350.643174c -6.29  -4.45c
iter:   7 02:28:54 -5350.643157c -7.08  -4.66c
iter:   8 02:29:40 -5350.643154c -7.61c -4.78c

Converged after 8 iterations.

Dipole moment: (-9.685756, -9.368199, -0.240142) |e|*Ang

Energy contributions relative to reference atoms: (reference = -5206549.376850)

Kinetic:       +864.344588
Potential:     -845.607642
External:        +0.000000
XC:            -5373.077635
Entropy (-ST):   -0.382875
Local:           +3.888972
--------------------------
Free energy:   -5350.834591
Extrapolated:  -5350.643154

Showing only first 2 kpts
 Kpt  Band  Eigenvalues  Occupancy
  0   306     -5.11262    1.92707
  0   307     -4.94952    1.67595
  0   308     -4.71572    0.66595
  0   309     -4.65650    0.43276

  1   306     -5.53178    1.99886
  1   307     -5.26970    1.98439
  1   308     -5.00462    1.79947
  1   309     -4.98125    1.75319


Fermi level: -4.78519

No gap

Forces in eV/Ang:
  0 Ag    0.00000    0.01639   -0.03371
  1 Ag   -0.02930   -0.00171    0.01102
  2 Ag    0.00000    0.00005   -0.00612
  3 Ag    0.00760    0.00716    0.00874
  4 Ag    0.02765   -0.01524   -0.03832
  5 Ag    0.00000    0.01237    0.03586
  6 Ag    0.02482    0.01491   -0.00265
  7 Ag   -0.01831    0.00975    0.01151
  8 Ag   -0.00316    0.01143   -0.01647
  9 Ag    0.03681   -0.00029    0.01576
 10 Ag    0.00211    0.00197    0.01485
 11 Ag    0.00000    0.00339    0.00958
 12 Ag    0.00165   -0.00953   -0.02369
 13 Ag    0.00000    0.02143   -0.00037
 14 Ag   -0.03355   -0.01138    0.00514
 15 Ag   -0.00760    0.00716    0.00874
 16 Ag   -0.02765   -0.01524   -0.03832
 17 Ag    0.05448   -0.01502    0.02078
 18 Ag   -0.02482    0.01491   -0.00265
 19 Ag    0.00000    0.01419    0.00070
 20 Ag    0.00000    0.00917   -0.02418
 21 Ag   -0.03681   -0.00029    0.01576
 22 Ag    0.00000   -0.00053   -0.02276
 23 Ag   -0.00222   -0.00282   -0.01520
 24 Ag   -0.00165   -0.00953   -0.02369
 25 Ag    0.02930   -0.00171    0.01102
 26 Ag    0.03355   -0.01138    0.00514
 27 Ag    0.00000   -0.01088    0.00518
 28 Ag    0.00000   -0.00052   -0.01003
 29 Ag   -0.05448   -0.01502    0.02078
 30 Ag    0.00000    0.00290    0.00852
 31 Ag    0.01831    0.00975    0.01151
 32 Ag    0.00316    0.01143   -0.01647
 33 Ag    0.00000    0.00352   -0.00406
 34 Ag   -0.00211    0.00197    0.01485
 35 Ag    0.00222   -0.00282   -0.01520
 36 C     0.00000   -0.01343    0.05354

BFGS:   13 02:30:02    -5350.643154        0.0552
System changes: positions 

Initializing position-dependent things.

Density initialized from wave functions
                                                  
                                                  
                                                  
                                                  
                                                  
                            C                     
                  Ag     Ag      Ag               
                                                  
            Ag     AAg    AAg     Ag              
                      Ag     Ag     Ag            
              Ag     Ag     Ag                    
               AAg    AAg    AAg                  
                                                  
                 Ag     Ag     Ag                 
                                                  
           Ag     AAg    AAg     Ag               
                                                  
            Ag      Ag     Ag                     
              Ag      Ag     Ag                   
                                                  
                                                  
                                                  
                                                  

Positions:
   0 Ag    -0.000000    0.000000    9.999999    ( 0.0000,  0.0000,  0.0000)
   1 Ag     1.496122    0.863786   12.443156    ( 0.0000,  0.0000,  0.0000)
   2 Ag    -0.000000    1.724192   14.876521    ( 0.0000,  0.0000,  0.0000)
   3 Ag     2.991651    0.001139   17.317531    ( 0.0000,  0.0000,  0.0000)
   4 Ag    -1.496122    2.591359    9.999999    ( 0.0000,  0.0000,  0.0000)
   5 Ag     0.000000    3.455145   12.443156    ( 0.0000,  0.0000,  0.0000)
   6 Ag    -1.494536    4.325098   14.875773    ( 0.0000,  0.0000,  0.0000)
   7 Ag     1.489634    2.587165   17.320229    ( 0.0000,  0.0000,  0.0000)
   8 Ag    -2.992244    5.182718    9.999999    ( 0.0000,  0.0000,  0.0000)
   9 Ag    -1.496122    6.046505   12.443156    ( 0.0000,  0.0000,  0.0000)
  10 Ag    -2.997270    6.908893   14.871277    ( 0.0000,  0.0000,  0.0000)
  11 Ag    -0.000000    5.199746   17.321665    ( 0.0000,  0.0000,  0.0000)
  12 Ag     2.992244    0.000000    9.999999    ( 0.0000,  0.0000,  0.0000)
  13 Ag     4.488366    0.863786   12.443156    ( 0.0000,  0.0000,  0.0000)
  14 Ag     3.006117    1.726207   14.870615    ( 0.0000,  0.0000,  0.0000)
  15 Ag     5.985080    0.001139   17.317531    ( 0.0000,  0.0000,  0.0000)
  16 Ag     1.496122    2.591359    9.999999    ( 0.0000,  0.0000,  0.0000)
  17 Ag     2.992244    3.455145   12.443156    ( 0.0000,  0.0000,  0.0000)
  18 Ag     1.494536    4.325098   14.875773    ( 0.0000,  0.0000,  0.0000)
  19 Ag     4.488366    2.486982   17.377761    ( 0.0000,  0.0000,  0.0000)
  20 Ag     0.000000    5.182718    9.999999    ( 0.0000,  0.0000,  0.0000)
  21 Ag     1.496122    6.046505   12.443156    ( 0.0000,  0.0000,  0.0000)
  22 Ag     0.000000    6.900845   14.884358    ( 0.0000,  0.0000,  0.0000)
  23 Ag     2.894904    5.243442   17.376440    ( 0.0000,  0.0000,  0.0000)
  24 Ag     5.984488    0.000000    9.999999    ( 0.0000,  0.0000,  0.0000)
  25 Ag     7.480609    0.863786   12.443156    ( 0.0000,  0.0000,  0.0000)
  26 Ag     5.970614    1.726207   14.870615    ( 0.0000,  0.0000,  0.0000)
  27 Ag     8.976731    0.034427   17.336929    ( 0.0000,  0.0000,  0.0000)
  28 Ag     4.488366    2.591359    9.999999    ( 0.0000,  0.0000,  0.0000)
  29 Ag     5.984488    3.455145   12.443156    ( 0.0000,  0.0000,  0.0000)
  30 Ag     4.488366    4.314541   14.887124    ( 0.0000,  0.0000,  0.0000)
  31 Ag     7.487098    2.587165   17.320229    ( 0.0000,  0.0000,  0.0000)
  32 Ag     2.992244    5.182718    9.999999    ( 0.0000,  0.0000,  0.0000)
  33 Ag     4.488366    6.046505   12.443156    ( 0.0000,  0.0000,  0.0000)
  34 Ag     2.997270    6.908893   14.871277    ( 0.0000,  0.0000,  0.0000)
  35 Ag     6.081827    5.243442   17.376440    ( 0.0000,  0.0000,  0.0000)
  36 C      4.488366    4.327738   18.373111    ( 0.0000,  0.0000,  0.0000)

Unit cell:
           periodic     x           y           z      points  spacing
  1. axis:    yes    8.976731    0.000000    0.000000    44     0.1767
  2. axis:    yes   -4.488366    7.774077    0.000000    44     0.1767
  3. axis:    no     0.000000    0.000000   27.329469   152     0.1798

  Lengths:   8.976731   8.976731  27.329469
  Angles:   90.000000  90.000000 120.000000

Effective grid spacing dv^(1/3) = 0.1864

     iter     time        total  log10-change:
                         energy  eigst   dens
iter:   1 02:31:45 -5350.644494  -4.00
iter:   2 02:32:31 -5350.643741  -5.05  -3.72
iter:   3 02:33:17 -5350.643475c -5.64  -3.96
iter:   4 02:34:03 -5350.643474c -6.16  -4.22c
iter:   5 02:34:50 -5350.643459c -6.25  -4.36c
iter:   6 02:35:36 -5350.643460c -6.59  -4.61c
iter:   7 02:36:22 -5350.643446c -7.05  -4.70c
iter:   8 02:37:08 -5350.643447c -7.52c -4.85c

Converged after 8 iterations.

Dipole moment: (-9.732363, -9.325054, -0.240442) |e|*Ang

Energy contributions relative to reference atoms: (reference = -5206549.376850)

Kinetic:       +864.272053
Potential:     -845.539989
External:        +0.000000
XC:            -5373.073158
Entropy (-ST):   -0.382878
Local:           +3.889086
--------------------------
Free energy:   -5350.834887
Extrapolated:  -5350.643447

Showing only first 2 kpts
 Kpt  Band  Eigenvalues  Occupancy
  0   306     -5.11282    1.92683
  0   307     -4.95004    1.67589
  0   308     -4.71652    0.66708
  0   309     -4.65713    0.43301

  1   306     -5.53192    1.99885
  1   307     -5.27036    1.98441
  1   308     -5.00510    1.79934
  1   309     -4.98207    1.75378


Fermi level: -4.78574

No gap

Forces in eV/Ang:
  0 Ag    0.00000    0.01624   -0.03465
  1 Ag   -0.02957   -0.00352    0.01103
  2 Ag    0.00000   -0.00007   -0.00398
  3 Ag    0.00910    0.00369    0.00802
  4 Ag    0.02844   -0.01468   -0.03979
  5 Ag    0.00000    0.01393    0.03514
  6 Ag    0.02227    0.01406   -0.00378
  7 Ag   -0.01528    0.00945    0.01068
  8 Ag   -0.00250    0.01183   -0.01788
  9 Ag    0.03619   -0.00067    0.01653
 10 Ag    0.00363    0.00180    0.01175
 11 Ag    0.00000    0.00835    0.00955
 12 Ag    0.00145   -0.01047   -0.02496
 13 Ag    0.00000    0.02119    0.00199
 14 Ag   -0.02657   -0.01063    0.00422
 15 Ag   -0.00910    0.00369    0.00802
 16 Ag   -0.02844   -0.01468   -0.03979
 17 Ag    0.05366   -0.01379    0.02221
 18 Ag   -0.02227    0.01406   -0.00378
 19 Ag    0.00000    0.02924    0.01121
 20 Ag    0.00000    0.00899   -0.02505
 21 Ag   -0.03619   -0.00067    0.01653
 22 Ag    0.00000    0.00015   -0.01621
 23 Ag    0.01750   -0.01095    0.00481
 24 Ag   -0.00145   -0.01047   -0.02496
 25 Ag    0.02957   -0.00352    0.01103
 26 Ag    0.02657   -0.01063    0.00422
 27 Ag    0.00000   -0.00792    0.00660
 28 Ag    0.00000   -0.00024   -0.01222
 29 Ag   -0.05366   -0.01379    0.02221
 30 Ag    0.00000    0.00181    0.00644
 31 Ag    0.01528    0.00945    0.01068
 32 Ag    0.00250    0.01183   -0.01788
 33 Ag    0.00000    0.00446   -0.00236
 34 Ag   -0.00363    0.00180    0.01175
 35 Ag   -0.01750   -0.01095    0.00481
 36 C     0.00000   -0.00178    0.01619

BFGS:   14 02:37:31    -5350.643447        0.0313
Timing:                                      incl.     excl.
-------------------------------------------------------------------
Density initialized from wave functions:     1.493     1.024   0.0% |
 Symmetrize density:                         0.469     0.469   0.0% |
Forces:                                    334.413   334.413   3.4% ||
Hamiltonian:                                51.640     0.002   0.0% |
 Atomic:                                     0.003     0.003   0.0% |
  XC Correction:                             0.000     0.000   0.0% |
 Calculate atomic Hamiltonians:              0.004     0.004   0.0% |
 Communicate:                                2.415     2.415   0.0% |
 Hartree integrate/restrict:                 0.182     0.182   0.0% |
 Initialize Hamiltonian:                     0.001     0.001   0.0% |
 Poisson:                                    2.600     0.117   0.0% |
  Communicate from 1D:                       0.241     0.241   0.0% |
  Communicate from 2D:                       0.435     0.435   0.0% |
  Communicate to 1D:                         0.118     0.118   0.0% |
  Communicate to 2D:                         0.520     0.520   0.0% |
  FFT 1D:                                    0.612     0.612   0.0% |
  FFT 2D:                                    0.558     0.558   0.0% |
 XC 3D grid:                                46.394    12.184   0.1% |
  VdW-DF integral:                          34.210     2.234   0.0% |
   Convolution:                              3.702     3.702   0.0% |
   FFT:                                      2.200     2.200   0.0% |
   gather:                                   7.792     7.792   0.1% |
   hmm1:                                     0.669     0.669   0.0% |
   hmm2:                                     1.501     1.501   0.0% |
   iFFT:                                     2.119     2.119   0.0% |
   potential:                               10.343     0.266   0.0% |
    collect:                                 0.825     0.825   0.0% |
    p1:                                      6.300     6.300   0.1% |
    p2:                                      2.239     2.239   0.0% |
    sum:                                     0.712     0.712   0.0% |
   splines:                                  3.650     3.650   0.0% |
 vbar:                                       0.038     0.038   0.0% |
LCAO initialization:                        42.459     0.950   0.0% |
 LCAO eigensolver:                          27.223     0.004   0.0% |
  Calculate projections:                     0.000     0.000   0.0% |
  DenseAtomicCorrection:                     0.000     0.000   0.0% |
  Distribute overlap matrix:                26.450    26.450   0.3% |
  Orbital Layouts:                           0.588     0.588   0.0% |
  Potential matrix:                          0.057     0.057   0.0% |
  Sum over cells:                            0.122     0.122   0.0% |
 LCAO to grid:                              12.789    12.789   0.1% |
 Set positions (LCAO WFS):                   1.497     1.045   0.0% |
  Basic WFS set positions:                   0.002     0.002   0.0% |
  Basis functions set positions:             0.000     0.000   0.0% |
  P tci:                                     0.000     0.000   0.0% |
  ST tci:                                    0.369     0.369   0.0% |
  mktci:                                     0.081     0.081   0.0% |
Redistribute:                                0.007     0.007   0.0% |
SCF-cycle:                                8776.911    51.842   0.5% |
 Davidson:                                8057.601  2563.674  25.9% |---------|
  Apply hamiltonian:                       166.512   166.512   1.7% ||
  Subspace diag:                           784.750     0.022   0.0% |
   calc_h_matrix:                          374.999   222.345   2.2% ||
    Apply hamiltonian:                     152.654   152.654   1.5% ||
   diagonalize:                             14.968    14.968   0.2% |
   rotate_psi:                             394.761   394.761   4.0% |-|
  calc. matrices:                         3669.809  1449.965  14.6% |-----|
   Apply hamiltonian:                     2219.844  2219.844  22.4% |--------|
  diagonalize:                             103.809   103.809   1.0% |
  rotate_psi:                              769.047   769.047   7.8% |--|
 Density:                                   19.920     0.004   0.0% |
  Atomic density matrices:                   0.825     0.825   0.0% |
  Mix:                                       2.949     2.949   0.0% |
  Multipole moments:                         0.064     0.064   0.0% |
  Pseudo density:                           16.078    10.917   0.1% |
   Symmetrize density:                       5.161     5.161   0.1% |
 Hamiltonian:                              550.032     0.021   0.0% |
  Atomic:                                    0.035     0.034   0.0% |
   XC Correction:                            0.001     0.001   0.0% |
  Calculate atomic Hamiltonians:             0.046     0.046   0.0% |
  Communicate:                              27.860    27.860   0.3% |
  Hartree integrate/restrict:                2.105     2.105   0.0% |
  Poisson:                                  30.304     1.357   0.0% |
   Communicate from 1D:                      2.796     2.796   0.0% |
   Communicate from 2D:                      5.071     5.071   0.1% |
   Communicate to 1D:                        1.407     1.407   0.0% |
   Communicate to 2D:                        6.061     6.061   0.1% |
   FFT 1D:                                   7.112     7.112   0.1% |
   FFT 2D:                                   6.501     6.501   0.1% |
  XC 3D grid:                              489.293   134.672   1.4% ||
   VdW-DF integral:                        354.621    25.817   0.3% |
    Convolution:                            42.964    42.964   0.4% |
    FFT:                                    25.502    25.502   0.3% |
    gather:                                 91.298    91.298   0.9% |
    hmm1:                                    7.782     7.782   0.1% |
    hmm2:                                   17.210    17.210   0.2% |
    iFFT:                                   24.551    24.551   0.2% |
    potential:                             119.497     3.116   0.0% |
     collect:                                9.439     9.439   0.1% |
     p1:                                    72.820    72.820   0.7% |
     p2:                                    25.900    25.900   0.3% |
     sum:                                    8.222     8.222   0.1% |
    splines:                                 0.001     0.001   0.0% |
  vbar:                                      0.369     0.369   0.0% |
 Orthonormalize:                            97.516     0.003   0.0% |
  calc_s_matrix:                             7.261     7.261   0.1% |
  inverse-cholesky:                         74.651    74.651   0.8% |
  projections:                               0.001     0.001   0.0% |
  rotate_psi_s:                             15.600    15.600   0.2% |
Set symmetry:                                0.001     0.001   0.0% |
Other:                                     707.362   707.362   7.1% |--|
-------------------------------------------------------------------
Total:                                              9914.286 100.0%

Memory usage: 1.88 GiB
Date: Thu Sep 28 02:37:31 2023
