
  ___ ___ ___ _ _ _  
 |   |   |_  | | | | 
 | | | | | . | | | | 
 |__ |  _|___|_____|  22.8.0
 |___|_|             

User:   s204775@a060.nifl.fysik.dtu.dk
Date:   Thu Sep 28 00:06:28 2023
Arch:   x86_64
Pid:    17452
CWD:    /home/cat/s204775/projects/Bachelor_project/C_missing_features
Python: 3.10.4
gpaw:   /home/modules/software/GPAW/22.8.0-intel-2022a/lib/python3.10/site-packages/gpaw
_gpaw:  /home/modules/software/GPAW/22.8.0-intel-2022a/lib/python3.10/site-packages/
        _gpaw.cpython-310-x86_64-linux-gnu.so
ase:    /home/modules/software/ASE/3.22.1-intel-2022a/lib/python3.10/site-packages/ase (version 3.22.1)
numpy:  /home/modules/software/SciPy-bundle/2022.05-intel-2022a/lib/python3.10/site-packages/numpy (version 1.22.3)
scipy:  /home/modules/software/SciPy-bundle/2022.05-intel-2022a/lib/python3.10/site-packages/scipy (version 1.8.1)
libxc:  5.2.3
units:  Angstrom and eV
cores: 40
OpenMP: False
OMP_NUM_THREADS: 1

Input parameters:
  basis: dzp
  h: 0.18
  kpts: {size: (4, 4, 1)}
  xc: BEEF-vdW

System changes: positions, numbers, cell, pbc, initial_charges, initial_magmoms 

Initialize ...

species:
  Au:
    name: Gold
    id: b12133f335f6ca0d89c4b1ccaa844e9a
    Z: 79.0
    valence: 11
    core: 68
    charge: 0.0
    file: /home/modules/software/GPAW-setups/0.9.20000/Au.PBE.gz
    compensation charges: {type: gauss,
                           rc: 0.42,
                           lmax: 2}
    cutoffs: {filter: 2.33,
              core: 2.81}
    valence states:
      #              energy  rcut
      - 6s(1.00)    -5.728   1.323
      - 6p(0.00)    -0.775   1.323
      - 5d(10.00)    -6.891   1.323
      -  s          21.484   1.323
      -  p          26.436   1.323
      -  d          20.321   1.323
  
    # LCAO basis set for Au:
    #   Name: dzp
    #   File: /home/modules/software/GPAW-setups/0.9.20000/Au.dzp.basis.gz
    #   Number of radial functions: 5
    #   Number of spherical harmonics: 15
    #     l=0, rc=8.5938 Bohr: 6s-sz confined orbital
    #     l=2, rc=5.9219 Bohr: 5d-sz confined orbital
    #     l=0, rc=4.9844 Bohr: 6s-dz split-valence wave
    #     l=2, rc=3.5156 Bohr: 5d-dz split-valence wave
    #     l=1, rc=8.5938 Bohr: p-type Gaussian polarization
    #   Number of RI-basis functions 0

  C:
    name: Carbon
    id: 4aa54d4b901d75f77cc0ea3eec22967b
    Z: 6.0
    valence: 4
    core: 2
    charge: 0.0
    file: /home/modules/software/GPAW-setups/0.9.20000/C.PBE.gz
    compensation charges: {type: gauss,
                           rc: 0.20,
                           lmax: 2}
    cutoffs: {filter: 1.14,
              core: 1.14}
    valence states:
      #              energy  rcut
      - 2s(2.00)   -13.751   0.635
      - 2p(2.00)    -5.284   0.635
      -  s          13.461   0.635
      -  p          21.927   0.635
      -  d           0.000   0.635
  
    # LCAO basis set for C:
    #   Name: dzp
    #   File: /home/modules/software/GPAW-setups/0.9.20000/C.dzp.basis.gz
    #   Number of radial functions: 5
    #   Number of spherical harmonics: 13
    #     l=0, rc=5.5469 Bohr: 2s-sz confined orbital
    #     l=1, rc=6.6719 Bohr: 2p-sz confined orbital
    #     l=0, rc=3.0312 Bohr: 2s-dz split-valence wave
    #     l=1, rc=3.7500 Bohr: 2p-dz split-valence wave
    #     l=2, rc=6.6719 Bohr: d-type Gaussian polarization
    #   Number of RI-basis functions 0

Reference energy: -18598565.388050  # eV

Spin-paired calculation

Convergence criteria:
 Maximum [total energy] change in last 3 cyles: 0.0005 eV / electron
 Maximum integral of absolute [dens]ity change: 0.0001 electrons / valence electron
 Maximum integral of absolute [eigenst]ate change: 4e-08 eV^2 / valence electron
 Maximum number of scf [iter]ations: 333
 (Square brackets indicate name in SCF output, whereas a 'c' in
 the SCF output indicates the quantity has converged.)

Symmetries present (total): 1

  ( 1  0  0)
  ( 0  1  0)
  ( 0  0  1)

16 k-points: 4 x 4 x 1 Monkhorst-Pack grid
8 k-points in the irreducible part of the Brillouin zone
       k-points in crystal coordinates                weights
   0:     0.12500000   -0.37500000    0.00000000          2/16
   1:     0.12500000   -0.12500000    0.00000000          2/16
   2:     0.12500000    0.12500000    0.00000000          2/16
   3:     0.12500000    0.37500000    0.00000000          2/16
   4:     0.37500000   -0.37500000    0.00000000          2/16
   5:     0.37500000   -0.12500000    0.00000000          2/16
   6:     0.37500000    0.12500000    0.00000000          2/16
   7:     0.37500000    0.37500000    0.00000000          2/16

Wave functions: Uniform real-space grid
  Kinetic energy operator: 8*3+1=25 point O(h^6) finite-difference Laplacian
  ScaLapack parameters: grid=1x1, blocksize=None
  Wavefunction extrapolation:
    Improved wavefunction reuse through dual PAW basis 

Occupation numbers: Fermi-Dirac:
  width: 0.1000  # eV
 

Eigensolver
   Davidson(niter=2) 

Densities:
  Coarse grid: 44*44*152 grid
  Fine grid: 88*88*304 grid
  Total Charge: 0.000000 

Density mixing:
  Method: separate
  Backend: pulay
  Linear mixing parameter: 0.05
  old densities: 5
  Damping of long wavelength oscillations: 50 

Hamiltonian:
  XC and Coulomb potentials evaluated on a 88*88*304 grid
  Using the BEEF-vdW Exchange-Correlation functional
  Interpolation: tri-quintic (5. degree polynomial)
  Poisson solver: FastPoissonSolver using
    Stencil: 8*3+1=25 point O(h^6) finite-difference Laplacian
    FFT axes: [0, 1]
    FST axes: [2]
 

XC parameters: BEEF-vdW with 2 nearest neighbor stencil

Memory estimate:
  Process memory now: 208.62 MiB
  Calculator: 529.88 MiB
    Density: 64.18 MiB
      Arrays: 11.52 MiB
      Localized functions: 48.23 MiB
      Mixer: 4.43 MiB
    Hamiltonian: 11.13 MiB
      Arrays: 7.53 MiB
      XC: 0.00 MiB
      Poisson: 0.00 MiB
      vbar: 3.59 MiB
    Wavefunctions: 454.57 MiB
      Arrays psit_nG: 216.24 MiB
      Eigensolver: 229.76 MiB
      Projections: 0.49 MiB
      Projectors: 8.08 MiB

Total number of cores used: 40
Parallelization over k-points: 8
Domain decomposition: 1 x 1 x 5

Number of atoms: 37
Number of atomic orbitals: 553
Number of bands in calculation: 244
Number of valence electrons: 400
Bands to converge: occupied

... initialized

Initializing position-dependent things.

Density initialized from atomic densities
Creating initial wave functions:
  244 bands from LCAO basis set

                                               
                                               
                                               
                                               
                                               
                     C                         
           Au     Au     Au                    
                                               
            AAu    AAu     AAu                 
               Au     Au     AAu               
              Au     Au                        
               AAu    AAu     AAu              
                                               
                 Au     Au      Au             
                                               
           Au     AAu    AAu      Au           
                                               
             Au     Au      Au                 
               Au     Au      Au               
                                               
                                               
                                               
                                               

Positions:
   0 Au     0.000000    0.000000    9.999999    ( 0.0000,  0.0000,  0.0000)
   1 Au     1.496891    0.864230   12.444412    ( 0.0000,  0.0000,  0.0000)
   2 Au    -0.000000    1.740301   14.871092    ( 0.0000,  0.0000,  0.0000)
   3 Au    -0.000000    0.000000   17.354004    ( 0.0000,  0.0000,  0.0000)
   4 Au    -1.496891    2.592691    9.999999    ( 0.0000,  0.0000,  0.0000)
   5 Au    -0.000000    3.456922   12.444412    ( 0.0000,  0.0000,  0.0000)
   6 Au    -1.501435    4.318529   14.890878    ( 0.0000,  0.0000,  0.0000)
   7 Au    -1.494007    2.589800   17.376551    ( 0.0000,  0.0000,  0.0000)
   8 Au    -2.993782    5.185383    9.999999    ( 0.0000,  0.0000,  0.0000)
   9 Au    -1.496891    6.049613   12.444412    ( 0.0000,  0.0000,  0.0000)
  10 Au    -2.983528    6.907923   14.871092    ( 0.0000,  0.0000,  0.0000)
  11 Au    -2.994844    5.189326   17.376551    ( 0.0000,  0.0000,  0.0000)
  12 Au     2.993782    0.000000    9.999999    ( 0.0000,  0.0000,  0.0000)
  13 Au     4.490673    0.864230   12.444412    ( 0.0000,  0.0000,  0.0000)
  14 Au     2.992384    1.727654   14.893737    ( 0.0000,  0.0000,  0.0000)
  15 Au     2.989836   -0.001052   17.376551    ( 0.0000,  0.0000,  0.0000)
  16 Au     1.496891    2.592691    9.999999    ( 0.0000,  0.0000,  0.0000)
  17 Au     2.993782    3.456922   12.444412    ( 0.0000,  0.0000,  0.0000)
  18 Au     1.501435    4.318529   14.890878    ( 0.0000,  0.0000,  0.0000)
  19 Au     1.494007    2.589800   17.376551    ( 0.0000,  0.0000,  0.0000)
  20 Au    -0.000000    5.185383    9.999999    ( 0.0000,  0.0000,  0.0000)
  21 Au     1.496891    6.049613   12.444412    ( 0.0000,  0.0000,  0.0000)
  22 Au    -0.000000    6.919091   14.890878    ( 0.0000,  0.0000,  0.0000)
  23 Au    -0.000000    5.185383   17.386406    ( 0.0000,  0.0000,  0.0000)
  24 Au     5.987564    0.000000    9.999999    ( 0.0000,  0.0000,  0.0000)
  25 Au     7.484455    0.864230   12.444412    ( 0.0000,  0.0000,  0.0000)
  26 Au     5.988962    1.727654   14.893737    ( 0.0000,  0.0000,  0.0000)
  27 Au     5.991510   -0.001052   17.376551    ( 0.0000,  0.0000,  0.0000)
  28 Au     4.490673    2.592691    9.999999    ( 0.0000,  0.0000,  0.0000)
  29 Au     5.987564    3.456922   12.444412    ( 0.0000,  0.0000,  0.0000)
  30 Au     4.490673    4.322767   14.893737    ( 0.0000,  0.0000,  0.0000)
  31 Au     4.490673    2.592691   17.388532    ( 0.0000,  0.0000,  0.0000)
  32 Au     2.993782    5.185383    9.999999    ( 0.0000,  0.0000,  0.0000)
  33 Au     4.490673    6.049613   12.444412    ( 0.0000,  0.0000,  0.0000)
  34 Au     2.983528    6.907923   14.871092    ( 0.0000,  0.0000,  0.0000)
  35 Au     2.994844    5.189326   17.376551    ( 0.0000,  0.0000,  0.0000)
  36 C      1.494007    4.318885   18.241093    ( 0.0000,  0.0000,  0.0000)

Unit cell:
           periodic     x           y           z      points  spacing
  1. axis:    yes    8.981346    0.000000    0.000000    44     0.1768
  2. axis:    yes   -4.490673    7.778074    0.000000    44     0.1768
  3. axis:    no     0.000000    0.000000   27.333237   152     0.1798

  Lengths:   8.981346   8.981346  27.333237
  Angles:   90.000000  90.000000 120.000000

Effective grid spacing dv^(1/3) = 0.1865

     iter     time        total  log10-change:
                         energy  eigst   dens
iter:   1 00:07:13 -12049.888657
iter:   2 00:07:41 -12047.964304  -0.61  -1.29
iter:   3 00:08:08 -12045.764750  -1.00  -1.31
iter:   4 00:08:35 -12042.693222  -1.14  -1.37
iter:   5 00:09:03 -12041.795178  -1.04  -1.50
iter:   6 00:09:30 -12041.838099  -1.99  -1.78
iter:   7 00:09:58 -12044.176602  -1.20  -1.77
iter:   8 00:10:25 -12042.912054  -2.06  -1.78
iter:   9 00:10:52 -12042.571371  -2.47  -1.87
iter:  10 00:11:20 -12042.616184  -3.24  -1.93
iter:  11 00:11:47 -12041.946250  -2.18  -1.92
iter:  12 00:12:15 -12041.888727  -2.67  -2.11
iter:  13 00:12:42 -12041.824712c -2.77  -2.16
iter:  14 00:13:09 -12041.692665c -2.38  -2.24
iter:  15 00:13:37 -12041.684846c -2.87  -2.40
iter:  16 00:14:04 -12041.670614c -2.80  -2.45
iter:  17 00:14:31 -12041.672533c -3.05  -2.66
iter:  18 00:14:59 -12041.665397c -3.56  -2.90
iter:  19 00:15:26 -12041.659904c -4.08  -2.90
iter:  20 00:15:53 -12041.655858c -4.02  -2.91
iter:  21 00:16:21 -12041.657324c -3.86  -2.94
iter:  22 00:16:48 -12041.656948c -4.47  -3.25
iter:  23 00:17:15 -12041.656345c -4.81  -3.31
iter:  24 00:17:43 -12041.656284c -4.77  -3.46
iter:  25 00:18:10 -12041.656377c -5.23  -3.56
iter:  26 00:18:37 -12041.656216c -5.54  -3.60
iter:  27 00:19:05 -12041.656129c -5.63  -3.77
iter:  28 00:19:32 -12041.656131c -6.08  -3.98
iter:  29 00:19:59 -12041.656125c -6.73  -4.08c
iter:  30 00:20:27 -12041.656131c -6.37  -4.10c
iter:  31 00:20:54 -12041.656148c -6.47  -4.29c
iter:  32 00:21:21 -12041.656145c -7.04  -4.53c
iter:  33 00:21:49 -12041.656142c -7.39  -4.67c
iter:  34 00:22:16 -12041.656129c -7.10  -4.74c
iter:  35 00:22:43 -12041.656129c -7.68c -5.01c

Converged after 35 iterations.

Dipole moment: (-4.254725, -7.141754, -0.057263) |e|*Ang

Energy contributions relative to reference atoms: (reference = -18598565.388050)

Kinetic:       +691.522346
Potential:     -695.654034
External:        +0.000000
XC:            -12041.924940
Entropy (-ST):   -0.364678
Local:           +4.582838
--------------------------
Free energy:   -12041.838468
Extrapolated:  -12041.656129

Showing only first 2 kpts
 Kpt  Band  Eigenvalues  Occupancy
  0   198     -5.72277    1.92598
  0   199     -5.62149    1.80862
  0   200     -5.42579    1.14351
  0   201     -5.18227    0.20939

  1   198     -6.25259    1.99962
  1   199     -6.00461    1.99542
  1   200     -5.81198    1.96899
  1   201     -5.61435    1.79589


Fermi level: -5.39689

No gap

Forces in eV/Ang:
  0 Au    0.01204   -0.00707   -0.15683
  1 Au    0.00394   -0.01804    0.13237
  2 Au    0.02283   -0.02331   -0.02448
  3 Au    0.05130   -0.03129   -0.03287
  4 Au   -0.01788   -0.02031   -0.14093
  5 Au    0.00459    0.00946    0.05143
  6 Au   -0.01251    0.02693   -0.03329
  7 Au   -0.27036   -0.16245   -0.03082
  8 Au    0.00508    0.02261   -0.14360
  9 Au   -0.01230    0.00703    0.07346
 10 Au   -0.00220    0.00134    0.01297
 11 Au   -0.00989    0.07106   -0.02217
 12 Au   -0.01688   -0.01571   -0.14375
 13 Au    0.01221   -0.02125    0.13212
 14 Au   -0.01956   -0.02300   -0.02815
 15 Au   -0.06591   -0.02805   -0.02248
 16 Au   -0.00415   -0.00595   -0.12810
 17 Au   -0.02478    0.01438    0.10534
 18 Au    0.00136   -0.00053   -0.49782
 19 Au   -0.02397   -2.57019   -0.46396
 20 Au   -0.00592    0.00329   -0.08164
 21 Au   -0.00579   -0.00873    0.05175
 22 Au   -0.02972   -0.00268   -0.03297
 23 Au   -2.30343    1.33668   -0.50300
 24 Au    0.00861    0.02575   -0.14096
 25 Au   -0.01978    0.01138    0.13656
 26 Au   -0.00561    0.00330   -0.01683
 27 Au    0.00617    0.31333   -0.03072
 28 Au    0.02862   -0.01663   -0.10296
 29 Au    0.02452    0.00013    0.13221
 30 Au    0.01016    0.02793   -0.02783
 31 Au    0.28396   -0.16328   -0.03107
 32 Au    0.00326    0.00657   -0.12813
 33 Au    0.01755    0.00556    0.13255
 34 Au    0.03142   -0.00783   -0.02385
 35 Au    2.14222    1.27093   -0.42403
 36 C     0.16004   -0.02250    2.49257

      Step     Time          Energy         fmax
BFGS:    0 00:22:58   -12041.656129        2.7103
System changes: positions 

Initializing position-dependent things.

Density initialized from wave functions
                                               
                                               
                                               
                                               
                                               
                     C                         
           Au     Au      Au                   
                                               
            AAu    AAu     AAu                 
               Au     Au      Au               
              Au     Au      Au                
               AAu    AAu     AAu              
                                               
                 Au     Au      Au             
                                               
           Au     AAu    AAu      Au           
                                               
             Au     Au      Au                 
               Au     Au      Au               
                                               
                                               
                                               
                                               

Positions:
   0 Au     0.000000    0.000000    9.999999    ( 0.0000,  0.0000,  0.0000)
   1 Au     1.496891    0.864230   12.444412    ( 0.0000,  0.0000,  0.0000)
   2 Au     0.000326    1.739968   14.870742    ( 0.0000,  0.0000,  0.0000)
   3 Au     0.000733   -0.000447   17.353534    ( 0.0000,  0.0000,  0.0000)
   4 Au    -1.496891    2.592691    9.999999    ( 0.0000,  0.0000,  0.0000)
   5 Au    -0.000000    3.456922   12.444412    ( 0.0000,  0.0000,  0.0000)
   6 Au    -1.501614    4.318913   14.890402    ( 0.0000,  0.0000,  0.0000)
   7 Au    -1.497870    2.587479   17.376111    ( 0.0000,  0.0000,  0.0000)
   8 Au    -2.993782    5.185383    9.999999    ( 0.0000,  0.0000,  0.0000)
   9 Au    -1.496891    6.049613   12.444412    ( 0.0000,  0.0000,  0.0000)
  10 Au    -2.983559    6.907942   14.871277    ( 0.0000,  0.0000,  0.0000)
  11 Au    -2.994986    5.190341   17.376234    ( 0.0000,  0.0000,  0.0000)
  12 Au     2.993782    0.000000    9.999999    ( 0.0000,  0.0000,  0.0000)
  13 Au     4.490673    0.864230   12.444412    ( 0.0000,  0.0000,  0.0000)
  14 Au     2.992104    1.727325   14.893335    ( 0.0000,  0.0000,  0.0000)
  15 Au     2.988894   -0.001452   17.376230    ( 0.0000,  0.0000,  0.0000)
  16 Au     1.496891    2.592691    9.999999    ( 0.0000,  0.0000,  0.0000)
  17 Au     2.993782    3.456922   12.444412    ( 0.0000,  0.0000,  0.0000)
  18 Au     1.501455    4.318521   14.883766    ( 0.0000,  0.0000,  0.0000)
  19 Au     1.493665    2.553083   17.369923    ( 0.0000,  0.0000,  0.0000)
  20 Au    -0.000000    5.185383    9.999999    ( 0.0000,  0.0000,  0.0000)
  21 Au     1.496891    6.049613   12.444412    ( 0.0000,  0.0000,  0.0000)
  22 Au    -0.000425    6.919053   14.890407    ( 0.0000,  0.0000,  0.0000)
  23 Au    -0.032906    5.204478   17.379220    ( 0.0000,  0.0000,  0.0000)
  24 Au     5.987564    0.000000    9.999999    ( 0.0000,  0.0000,  0.0000)
  25 Au     7.484455    0.864230   12.444412    ( 0.0000,  0.0000,  0.0000)
  26 Au     5.988882    1.727701   14.893497    ( 0.0000,  0.0000,  0.0000)
  27 Au     5.991598    0.003424   17.376112    ( 0.0000,  0.0000,  0.0000)
  28 Au     4.490673    2.592691    9.999999    ( 0.0000,  0.0000,  0.0000)
  29 Au     5.987564    3.456922   12.444412    ( 0.0000,  0.0000,  0.0000)
  30 Au     4.490818    4.323166   14.893340    ( 0.0000,  0.0000,  0.0000)
  31 Au     4.494730    2.590359   17.388088    ( 0.0000,  0.0000,  0.0000)
  32 Au     2.993782    5.185383    9.999999    ( 0.0000,  0.0000,  0.0000)
  33 Au     4.490673    6.049613   12.444412    ( 0.0000,  0.0000,  0.0000)
  34 Au     2.983977    6.907811   14.870751    ( 0.0000,  0.0000,  0.0000)
  35 Au     3.025448    5.207482   17.370493    ( 0.0000,  0.0000,  0.0000)
  36 C      1.496293    4.318563   18.276702    ( 0.0000,  0.0000,  0.0000)

Unit cell:
           periodic     x           y           z      points  spacing
  1. axis:    yes    8.981346    0.000000    0.000000    44     0.1768
  2. axis:    yes   -4.490673    7.778074    0.000000    44     0.1768
  3. axis:    no     0.000000    0.000000   27.333237   152     0.1798

  Lengths:   8.981346   8.981346  27.333237
  Angles:   90.000000  90.000000 120.000000

Effective grid spacing dv^(1/3) = 0.1865

     iter     time        total  log10-change:
                         energy  eigst   dens
iter:   1 00:23:54 -12042.844773  -1.55
iter:   2 00:24:21 -12042.168779  -2.35  -2.15
iter:   3 00:24:49 -12042.016949  -2.84  -2.38
iter:   4 00:25:17 -12041.964394  -2.98  -2.70
iter:   5 00:25:45 -12041.959843c -3.46  -3.05
iter:   6 00:26:12 -12041.958130c -3.72  -3.20
iter:   7 00:26:40 -12041.957078c -4.00  -3.27
iter:   8 00:27:08 -12041.956897c -4.88  -3.48
iter:   9 00:27:35 -12041.956679c -4.57  -3.54
iter:  10 00:28:03 -12041.956830c -5.16  -3.75
iter:  11 00:28:31 -12041.956676c -5.07  -3.84
iter:  12 00:28:58 -12041.956649c -5.76  -4.00
iter:  13 00:29:26 -12041.956608c -5.89  -4.26c
iter:  14 00:29:54 -12041.956610c -6.41  -4.32c
iter:  15 00:30:21 -12041.956594c -6.42  -4.41c
iter:  16 00:30:49 -12041.956593c -6.92  -4.52c
iter:  17 00:31:17 -12041.956596c -7.48c -4.61c

Converged after 17 iterations.

Dipole moment: (-3.976862, -7.298638, -0.075110) |e|*Ang

Energy contributions relative to reference atoms: (reference = -18598565.388050)

Kinetic:       +683.933396
Potential:     -689.147481
External:        +0.000000
XC:            -12041.125775
Entropy (-ST):   -0.364636
Local:           +4.565581
--------------------------
Free energy:   -12042.138914
Extrapolated:  -12041.956596

Showing only first 2 kpts
 Kpt  Band  Eigenvalues  Occupancy
  0   198     -5.74469    1.93087
  0   199     -5.63531    1.80686
  0   200     -5.44189    1.14972
  0   201     -5.20014    0.21515

  1   198     -6.26410    1.99960
  1   199     -6.01902    1.99540
  1   200     -5.82375    1.96804
  1   201     -5.64151    1.81741


Fermi level: -5.41172

No gap

Forces in eV/Ang:
  0 Au    0.01278   -0.00746   -0.15685
  1 Au    0.00405   -0.02031    0.13017
  2 Au    0.00884   -0.01962   -0.03195
  3 Au    0.03949   -0.02533   -0.02763
  4 Au   -0.01835   -0.02068   -0.14021
  5 Au    0.00047    0.00654    0.04590
  6 Au   -0.01580    0.01363   -0.04246
  7 Au   -0.23166   -0.13873   -0.02808
  8 Au    0.00517    0.02333   -0.14346
  9 Au   -0.01453    0.00836    0.07097
 10 Au   -0.00284    0.00153    0.00327
 11 Au   -0.01223    0.06325   -0.01768
 12 Au   -0.01749   -0.01613   -0.14357
 13 Au    0.01171   -0.02108    0.13134
 14 Au   -0.00632   -0.01953   -0.03805
 15 Au   -0.05984   -0.02290   -0.01770
 16 Au   -0.00362   -0.00577   -0.12732
 17 Au   -0.01998    0.01161    0.10038
 18 Au   -0.00506    0.00312   -0.36867
 19 Au   -0.03720   -1.44700   -0.09826
 20 Au   -0.00571    0.00320   -0.08033
 21 Au   -0.00534   -0.00367    0.04612
 22 Au   -0.01985    0.00684   -0.04238
 23 Au   -1.29675    0.75058   -0.12684
 24 Au    0.00869    0.02632   -0.14020
 25 Au   -0.01914    0.01104    0.13543
 26 Au   -0.00562    0.00329   -0.02043
 27 Au    0.00497    0.26889   -0.02788
 28 Au    0.02881   -0.01672   -0.10266
 29 Au    0.02411    0.00044    0.13138
 30 Au    0.01330    0.01534   -0.03699
 31 Au    0.24160   -0.13881   -0.02586
 32 Au    0.00332    0.00602   -0.12731
 33 Au    0.01954    0.00660    0.13034
 34 Au    0.02149    0.00175   -0.03085
 35 Au    1.21290    0.74550   -0.08540
 36 C     0.06697   -0.01406    1.31379

BFGS:    1 00:31:31   -12041.956596        1.5037
System changes: positions 

Initializing position-dependent things.

Density initialized from wave functions
                                               
                                               
                                               
                                               
                                               
                     C                         
           Au     Au      Au                   
                                               
            AAu    AAu     AAu                 
               Au     Au      Au               
              Au     Au      Au                
               AAu    AAu     AAu              
                                               
                 Au     Au      Au             
                                               
           Au     AAu    AAu      Au           
                                               
             Au     Au      Au                 
               Au     Au      Au               
                                               
                                               
                                               
                                               

Positions:
   0 Au     0.000000    0.000000    9.999999    ( 0.0000,  0.0000,  0.0000)
   1 Au     1.496891    0.864230   12.444412    ( 0.0000,  0.0000,  0.0000)
   2 Au     0.000616    1.739333   14.869711    ( 0.0000,  0.0000,  0.0000)
   3 Au     0.002013   -0.001268   17.352639    ( 0.0000,  0.0000,  0.0000)
   4 Au    -1.496891    2.592691    9.999999    ( 0.0000,  0.0000,  0.0000)
   5 Au    -0.000000    3.456922   12.444412    ( 0.0000,  0.0000,  0.0000)
   6 Au    -1.502124    4.319358   14.889032    ( 0.0000,  0.0000,  0.0000)
   7 Au    -1.505372    2.582986   17.375202    ( 0.0000,  0.0000,  0.0000)
   8 Au    -2.993782    5.185383    9.999999    ( 0.0000,  0.0000,  0.0000)
   9 Au    -1.496891    6.049613   12.444412    ( 0.0000,  0.0000,  0.0000)
  10 Au    -2.983651    6.907992   14.871386    ( 0.0000,  0.0000,  0.0000)
  11 Au    -2.995380    5.192389   17.375661    ( 0.0000,  0.0000,  0.0000)
  12 Au     2.993782    0.000000    9.999999    ( 0.0000,  0.0000,  0.0000)
  13 Au     4.490673    0.864230   12.444412    ( 0.0000,  0.0000,  0.0000)
  14 Au     2.991896    1.726692   14.892108    ( 0.0000,  0.0000,  0.0000)
  15 Au     2.986958   -0.002194   17.375656    ( 0.0000,  0.0000,  0.0000)
  16 Au     1.496891    2.592691    9.999999    ( 0.0000,  0.0000,  0.0000)
  17 Au     2.993782    3.456922   12.444412    ( 0.0000,  0.0000,  0.0000)
  18 Au     1.501293    4.318621   14.871806    ( 0.0000,  0.0000,  0.0000)
  19 Au     1.492466    2.505943   17.366630    ( 0.0000,  0.0000,  0.0000)
  20 Au    -0.000000    5.185383    9.999999    ( 0.0000,  0.0000,  0.0000)
  21 Au     1.496891    6.049613   12.444412    ( 0.0000,  0.0000,  0.0000)
  22 Au    -0.001069    6.919271   14.889039    ( 0.0000,  0.0000,  0.0000)
  23 Au    -0.075151    5.228931   17.375000    ( 0.0000,  0.0000,  0.0000)
  24 Au     5.987564    0.000000    9.999999    ( 0.0000,  0.0000,  0.0000)
  25 Au     7.484455    0.864230   12.444412    ( 0.0000,  0.0000,  0.0000)
  26 Au     5.988701    1.727807   14.892838    ( 0.0000,  0.0000,  0.0000)
  27 Au     5.991760    0.012132   17.375210    ( 0.0000,  0.0000,  0.0000)
  28 Au     4.490673    2.592691    9.999999    ( 0.0000,  0.0000,  0.0000)
  29 Au     5.987564    3.456922   12.444412    ( 0.0000,  0.0000,  0.0000)
  30 Au     4.491247    4.323666   14.892147    ( 0.0000,  0.0000,  0.0000)
  31 Au     4.502554    2.585863   17.387250    ( 0.0000,  0.0000,  0.0000)
  32 Au     2.993782    5.185383    9.999999    ( 0.0000,  0.0000,  0.0000)
  33 Au     4.490673    6.049613   12.444412    ( 0.0000,  0.0000,  0.0000)
  34 Au     2.984675    6.907865   14.869756    ( 0.0000,  0.0000,  0.0000)
  35 Au     3.064957    5.231752   17.367625    ( 0.0000,  0.0000,  0.0000)
  36 C      1.498488    4.318106   18.319552    ( 0.0000,  0.0000,  0.0000)

Unit cell:
           periodic     x           y           z      points  spacing
  1. axis:    yes    8.981346    0.000000    0.000000    44     0.1768
  2. axis:    yes   -4.490673    7.778074    0.000000    44     0.1768
  3. axis:    no     0.000000    0.000000   27.333237   152     0.1798

  Lengths:   8.981346   8.981346  27.333237
  Angles:   90.000000  90.000000 120.000000

Effective grid spacing dv^(1/3) = 0.1865

     iter     time        total  log10-change:
                         energy  eigst   dens
iter:   1 00:32:28 -12043.448069  -1.38
iter:   2 00:32:55 -12042.443360  -2.19  -2.06
iter:   3 00:33:23 -12042.215238  -2.71  -2.29
iter:   4 00:33:51 -12042.137679  -2.83  -2.60
iter:   5 00:34:19 -12042.129390c -3.29  -2.96
iter:   6 00:34:47 -12042.125888c -3.47  -3.10
iter:   7 00:35:15 -12042.124466c -3.79  -3.19
iter:   8 00:35:42 -12042.124081c -4.71  -3.36
iter:   9 00:36:10 -12042.123703c -4.37  -3.42
iter:  10 00:36:38 -12042.123917c -4.98  -3.65
iter:  11 00:37:06 -12042.123615c -4.80  -3.71
iter:  12 00:37:34 -12042.123598c -5.75  -3.96
iter:  13 00:38:02 -12042.123510c -5.49  -4.02c
iter:  14 00:38:29 -12042.123509c -5.68  -4.11c
iter:  15 00:38:57 -12042.123487c -6.41  -4.40c
iter:  16 00:39:25 -12042.123476c -6.77  -4.44c
iter:  17 00:39:53 -12042.123480c -7.20  -4.54c
iter:  18 00:40:21 -12042.123488c -7.18  -4.57c
iter:  19 00:40:49 -12042.123485c -7.17  -4.67c
iter:  20 00:41:16 -12042.123486c -7.45c -4.82c

Converged after 20 iterations.

Dipole moment: (-3.442705, -7.595478, -0.094534) |e|*Ang

Energy contributions relative to reference atoms: (reference = -18598565.388050)

Kinetic:       +678.578610
Potential:     -684.629260
External:        +0.000000
XC:            -12040.422580
Entropy (-ST):   -0.365009
Local:           +4.532248
--------------------------
Free energy:   -12042.305991
Extrapolated:  -12042.123486

Showing only first 2 kpts
 Kpt  Band  Eigenvalues  Occupancy
  0   198     -5.76989    1.93710
  0   199     -5.64930    1.80433
  0   200     -5.45901    1.15798
  0   201     -5.21836    0.22056

  1   198     -6.27699    1.99959
  1   199     -6.03542    1.99545
  1   200     -5.83551    1.96686
  1   201     -5.67210    1.84105


Fermi level: -5.42715

No gap

Forces in eV/Ang:
  0 Au    0.01259   -0.00734   -0.15693
  1 Au    0.00392   -0.02352    0.12779
  2 Au   -0.00489   -0.00358   -0.03435
  3 Au    0.01557   -0.01216   -0.01139
  4 Au   -0.01794   -0.02074   -0.13866
  5 Au   -0.00971   -0.00020    0.03124
  6 Au   -0.00918   -0.00450   -0.04745
  7 Au   -0.15876   -0.09417   -0.01763
  8 Au    0.00501    0.02318   -0.14305
  9 Au   -0.01767    0.01020    0.06845
 10 Au   -0.00322    0.00158   -0.01816
 11 Au   -0.01698    0.04384   -0.00518
 12 Au   -0.01747   -0.01592   -0.14314
 13 Au    0.01122   -0.02096    0.12999
 14 Au    0.00665   -0.00450   -0.04287
 15 Au   -0.04487   -0.00993   -0.00501
 16 Au   -0.00334   -0.00498   -0.12561
 17 Au   -0.00940    0.00550    0.08640
 18 Au   -0.01520    0.00883   -0.17281
 19 Au   -0.01360   -0.39243    0.24551
 20 Au   -0.00470    0.00264   -0.07839
 21 Au   -0.00462    0.00852    0.03140
 22 Au   -0.00080    0.01027   -0.04762
 23 Au   -0.32748    0.18804    0.22015
 24 Au    0.00895    0.02598   -0.13866
 25 Au   -0.01853    0.01072    0.13395
 26 Au   -0.00552    0.00315   -0.03740
 27 Au    0.00274    0.18466   -0.01765
 28 Au    0.02823   -0.01638   -0.10139
 29 Au    0.02377    0.00076    0.12996
 30 Au    0.00644   -0.00279   -0.04127
 31 Au    0.16679   -0.09571   -0.01525
 32 Au    0.00274    0.00539   -0.12560
 33 Au    0.02226    0.00832    0.12796
 34 Au    0.00109    0.00521   -0.03309
 35 Au    0.33376    0.20729    0.24618
 36 C     0.02012   -0.00880    0.16873

BFGS:    2 00:41:31   -12042.123486        0.4636
System changes: positions 

Initializing position-dependent things.

Density initialized from wave functions
                                               
                                               
                                               
                                               
                                               
                     C                         
           Au     Au      Au                   
                                               
            AAu    AAu     AAu                 
               Au     Au      Au               
              Au     Au      Au                
               AAu    AAu     AAu              
                                               
                 Au     Au      Au             
                                               
           Au     AAu    AAu      Au           
                                               
             Au     Au      Au                 
               Au     Au      Au               
                                               
                                               
                                               
                                               

Positions:
   0 Au     0.000000    0.000000    9.999999    ( 0.0000,  0.0000,  0.0000)
   1 Au     1.496891    0.864230   12.444412    ( 0.0000,  0.0000,  0.0000)
   2 Au     0.000586    1.739137   14.868860    ( 0.0000,  0.0000,  0.0000)
   3 Au     0.002566   -0.001663   17.352244    ( 0.0000,  0.0000,  0.0000)
   4 Au    -1.496891    2.592691    9.999999    ( 0.0000,  0.0000,  0.0000)
   5 Au    -0.000000    3.456922   12.444412    ( 0.0000,  0.0000,  0.0000)
   6 Au    -1.502398    4.319366   14.887866    ( 0.0000,  0.0000,  0.0000)
   7 Au    -1.509878    2.580304   17.374687    ( 0.0000,  0.0000,  0.0000)
   8 Au    -2.993782    5.185383    9.999999    ( 0.0000,  0.0000,  0.0000)
   9 Au    -1.496891    6.049613   12.444412    ( 0.0000,  0.0000,  0.0000)
  10 Au    -2.983730    6.908031   14.871068    ( 0.0000,  0.0000,  0.0000)
  11 Au    -2.995779    5.193627   17.375447    ( 0.0000,  0.0000,  0.0000)
  12 Au     2.993782    0.000000    9.999999    ( 0.0000,  0.0000,  0.0000)
  13 Au     4.490673    0.864230   12.444412    ( 0.0000,  0.0000,  0.0000)
  14 Au     2.991976    1.726480   14.891057    ( 0.0000,  0.0000,  0.0000)
  15 Au     2.985722   -0.002532   17.375445    ( 0.0000,  0.0000,  0.0000)
  16 Au     1.496891    2.592691    9.999999    ( 0.0000,  0.0000,  0.0000)
  17 Au     2.993782    3.456922   12.444412    ( 0.0000,  0.0000,  0.0000)
  18 Au     1.500976    4.318806   14.866117    ( 0.0000,  0.0000,  0.0000)
  19 Au     1.491975    2.488773   17.370493    ( 0.0000,  0.0000,  0.0000)
  20 Au    -0.000000    5.185383    9.999999    ( 0.0000,  0.0000,  0.0000)
  21 Au     1.496891    6.049613   12.444412    ( 0.0000,  0.0000,  0.0000)
  22 Au    -0.001216    6.919505   14.887871    ( 0.0000,  0.0000,  0.0000)
  23 Au    -0.090081    5.237546   17.378196    ( 0.0000,  0.0000,  0.0000)
  24 Au     5.987564    0.000000    9.999999    ( 0.0000,  0.0000,  0.0000)
  25 Au     7.484455    0.864230   12.444412    ( 0.0000,  0.0000,  0.0000)
  26 Au     5.988560    1.727888   14.892001    ( 0.0000,  0.0000,  0.0000)
  27 Au     5.991844    0.017370   17.374696    ( 0.0000,  0.0000,  0.0000)
  28 Au     4.490673    2.592691    9.999999    ( 0.0000,  0.0000,  0.0000)
  29 Au     5.987564    3.456922   12.444412    ( 0.0000,  0.0000,  0.0000)
  30 Au     4.491453    4.323717   14.891133    ( 0.0000,  0.0000,  0.0000)
  31 Au     4.507278    2.583152   17.386794    ( 0.0000,  0.0000,  0.0000)
  32 Au     2.993782    5.185383    9.999999    ( 0.0000,  0.0000,  0.0000)
  33 Au     4.490673    6.049613   12.444412    ( 0.0000,  0.0000,  0.0000)
  34 Au     2.984837    6.907971   14.868935    ( 0.0000,  0.0000,  0.0000)
  35 Au     3.079435    5.240673   17.371594    ( 0.0000,  0.0000,  0.0000)
  36 C      1.499336    4.317846   18.331659    ( 0.0000,  0.0000,  0.0000)

Unit cell:
           periodic     x           y           z      points  spacing
  1. axis:    yes    8.981346    0.000000    0.000000    44     0.1768
  2. axis:    yes   -4.490673    7.778074    0.000000    44     0.1768
  3. axis:    no     0.000000    0.000000   27.333237   152     0.1798

  Lengths:   8.981346   8.981346  27.333237
  Angles:   90.000000  90.000000 120.000000

Effective grid spacing dv^(1/3) = 0.1865

     iter     time        total  log10-change:
                         energy  eigst   dens
iter:   1 00:42:27 -12042.267377  -2.36
iter:   2 00:42:55 -12042.176210  -3.17  -2.55
iter:   3 00:43:23 -12042.153187c -3.72  -2.78
iter:   4 00:43:51 -12042.145584c -3.74  -3.06
iter:   5 00:44:19 -12042.144278c -4.05  -3.43
iter:   6 00:44:47 -12042.144105c -4.33  -3.57
iter:   7 00:45:15 -12042.143916c -4.98  -3.69
iter:   8 00:45:42 -12042.143835c -5.64  -3.80
iter:   9 00:46:10 -12042.143817c -5.50  -3.88
iter:  10 00:46:38 -12042.143880c -6.02  -4.08c
iter:  11 00:47:06 -12042.143866c -6.45  -4.24c
iter:  12 00:47:34 -12042.143856c -6.59  -4.33c
iter:  13 00:48:02 -12042.143823c -6.42  -4.42c
iter:  14 00:48:30 -12042.143828c -7.21  -4.77c
iter:  15 00:48:58 -12042.143830c -7.77c -4.79c

Converged after 15 iterations.

Dipole moment: (-3.111746, -7.776748, -0.100139) |e|*Ang

Energy contributions relative to reference atoms: (reference = -18598565.388050)

Kinetic:       +677.254993
Potential:     -683.517744
External:        +0.000000
XC:            -12040.223621
Entropy (-ST):   -0.365326
Local:           +4.525206
--------------------------
Free energy:   -12042.326493
Extrapolated:  -12042.143830

Showing only first 2 kpts
 Kpt  Band  Eigenvalues  Occupancy
  0   198     -5.77740    1.93910
  0   199     -5.65287    1.80327
  0   200     -5.46398    1.16187
  0   201     -5.22242    0.22034

  1   198     -6.28160    1.99959
  1   199     -6.04064    1.99549
  1   200     -5.83888    1.96661
  1   201     -5.68008    1.84655


Fermi level: -5.43132

No gap

Forces in eV/Ang:
  0 Au    0.01278   -0.00744   -0.15760
  1 Au    0.00388   -0.02293    0.12629
  2 Au   -0.00557    0.00335   -0.02793
  3 Au    0.00810   -0.00744   -0.00798
  4 Au   -0.01830   -0.02095   -0.13855
  5 Au   -0.01219   -0.00197    0.02570
  6 Au   -0.00429   -0.00686   -0.04168
  7 Au   -0.12494   -0.07399   -0.01214
  8 Au    0.00487    0.02330   -0.14349
  9 Au   -0.01723    0.00995    0.06668
 10 Au   -0.00231    0.00111   -0.02041
 11 Au   -0.01685    0.03839   -0.00447
 12 Au   -0.01764   -0.01586   -0.14358
 13 Au    0.01111   -0.02084    0.12765
 14 Au    0.00680    0.00194   -0.03766
 15 Au   -0.04005   -0.00727   -0.00424
 16 Au   -0.00319   -0.00552   -0.12474
 17 Au   -0.00691    0.00408    0.08147
 18 Au   -0.02110    0.01218   -0.10755
 19 Au   -0.01822   -0.11649    0.31007
 20 Au   -0.00503    0.00284   -0.07744
 21 Au   -0.00431    0.01158    0.02585
 22 Au    0.00372    0.00717   -0.04187
 23 Au   -0.09101    0.05122    0.31585
 24 Au    0.00896    0.02639   -0.13853
 25 Au   -0.01841    0.01062    0.13230
 26 Au   -0.00518    0.00297   -0.04335
 27 Au    0.00203    0.14543   -0.01214
 28 Au    0.02853   -0.01654   -0.10132
 29 Au    0.02358    0.00082    0.12767
 30 Au    0.00099   -0.00615   -0.03619
 31 Au    0.13372   -0.07682   -0.01311
 32 Au    0.00327    0.00553   -0.12472
 33 Au    0.02171    0.00804    0.12647
 34 Au   -0.00527    0.00240   -0.02689
 35 Au    0.09851    0.07668    0.30919
 36 C     0.00651   -0.00786   -0.09934

BFGS:    3 00:49:12   -12042.143830        0.3334
System changes: positions 

Initializing position-dependent things.

Density initialized from wave functions
                                               
                                               
                                               
                                               
                                               
                     C                         
           Au     Au      Au                   
                                               
            AAu    AAu     AAu                 
               Au     Au      Au               
              Au     Au      Au                
               AAu    AAu     AAu              
                                               
                 Au     Au      Au             
                                               
           Au     AAu    AAu      Au           
                                               
             Au     Au      Au                 
               Au     Au      Au               
                                               
                                               
                                               
                                               

Positions:
   0 Au     0.000000    0.000000    9.999999    ( 0.0000,  0.0000,  0.0000)
   1 Au     1.496891    0.864230   12.444412    ( 0.0000,  0.0000,  0.0000)
   2 Au     0.000472    1.739096   14.867813    ( 0.0000,  0.0000,  0.0000)
   3 Au     0.003062   -0.002048   17.351841    ( 0.0000,  0.0000,  0.0000)
   4 Au    -1.496891    2.592691    9.999999    ( 0.0000,  0.0000,  0.0000)
   5 Au    -0.000000    3.456922   12.444412    ( 0.0000,  0.0000,  0.0000)
   6 Au    -1.502636    4.319246   14.886355    ( 0.0000,  0.0000,  0.0000)
   7 Au    -1.515064    2.577224   17.374141    ( 0.0000,  0.0000,  0.0000)
   8 Au    -2.993782    5.185383    9.999999    ( 0.0000,  0.0000,  0.0000)
   9 Au    -1.496891    6.049613   12.444412    ( 0.0000,  0.0000,  0.0000)
  10 Au    -2.983820    6.908076   14.870481    ( 0.0000,  0.0000,  0.0000)
  11 Au    -2.996352    5.195146   17.375218    ( 0.0000,  0.0000,  0.0000)
  12 Au     2.993782    0.000000    9.999999    ( 0.0000,  0.0000,  0.0000)
  13 Au     4.490673    0.864230   12.444412    ( 0.0000,  0.0000,  0.0000)
  14 Au     2.992144    1.726399   14.889694    ( 0.0000,  0.0000,  0.0000)
  15 Au     2.984174   -0.002885   17.375222    ( 0.0000,  0.0000,  0.0000)
  16 Au     1.496891    2.592691    9.999999    ( 0.0000,  0.0000,  0.0000)
  17 Au     2.993782    3.456922   12.444412    ( 0.0000,  0.0000,  0.0000)
  18 Au     1.500351    4.319168   14.860532    ( 0.0000,  0.0000,  0.0000)
  19 Au     1.491279    2.475688   17.378829    ( 0.0000,  0.0000,  0.0000)
  20 Au    -0.000000    5.185383    9.999999    ( 0.0000,  0.0000,  0.0000)
  21 Au     1.496891    6.049613   12.444412    ( 0.0000,  0.0000,  0.0000)
  22 Au    -0.001235    6.919773   14.886354    ( 0.0000,  0.0000,  0.0000)
  23 Au    -0.101325    5.244011   17.386352    ( 0.0000,  0.0000,  0.0000)
  24 Au     5.987564    0.000000    9.999999    ( 0.0000,  0.0000,  0.0000)
  25 Au     7.484455    0.864230   12.444412    ( 0.0000,  0.0000,  0.0000)
  26 Au     5.988373    1.727996   14.890622    ( 0.0000,  0.0000,  0.0000)
  27 Au     5.991935    0.023401   17.374151    ( 0.0000,  0.0000,  0.0000)
  28 Au     4.490673    2.592691    9.999999    ( 0.0000,  0.0000,  0.0000)
  29 Au     5.987564    3.456922   12.444412    ( 0.0000,  0.0000,  0.0000)
  30 Au     4.491583    4.323633   14.889820    ( 0.0000,  0.0000,  0.0000)
  31 Au     4.512777    2.579993   17.386251    ( 0.0000,  0.0000,  0.0000)
  32 Au     2.993782    5.185383    9.999999    ( 0.0000,  0.0000,  0.0000)
  33 Au     4.490673    6.049613   12.444412    ( 0.0000,  0.0000,  0.0000)
  34 Au     2.984830    6.908066   14.867927    ( 0.0000,  0.0000,  0.0000)
  35 Au     3.090450    5.247813   17.379991    ( 0.0000,  0.0000,  0.0000)
  36 C      1.500006    4.317527   18.337491    ( 0.0000,  0.0000,  0.0000)

Unit cell:
           periodic     x           y           z      points  spacing
  1. axis:    yes    8.981346    0.000000    0.000000    44     0.1768
  2. axis:    yes   -4.490673    7.778074    0.000000    44     0.1768
  3. axis:    no     0.000000    0.000000   27.333237   152     0.1798

  Lengths:   8.981346   8.981346  27.333237
  Angles:   90.000000  90.000000 120.000000

Effective grid spacing dv^(1/3) = 0.1865

     iter     time        total  log10-change:
                         energy  eigst   dens
iter:   1 00:50:09 -12042.210108  -2.55
iter:   2 00:50:36 -12042.171377  -3.45  -2.69
iter:   3 00:51:04 -12042.160175c -4.07  -2.93
iter:   4 00:51:32 -12042.155798c -3.92  -3.16
iter:   5 00:52:00 -12042.154936c -4.25  -3.50
iter:   6 00:52:27 -12042.154901c -4.49  -3.69
iter:   7 00:52:55 -12042.154797c -5.31  -3.79
iter:   8 00:53:23 -12042.154741c -5.70  -3.90
iter:   9 00:53:51 -12042.154761c -5.88  -4.01c
iter:  10 00:54:18 -12042.154753c -6.15  -4.12c
iter:  11 00:54:46 -12042.154770c -6.53  -4.35c
iter:  12 00:55:14 -12042.154752c -7.06  -4.48c
iter:  13 00:55:42 -12042.154745c -6.92  -4.62c
iter:  14 00:56:09 -12042.154741c -7.10  -4.69c
iter:  15 00:56:37 -12042.154744c -7.60c -4.98c

Converged after 15 iterations.

Dipole moment: (-2.722491, -7.988290, -0.103362) |e|*Ang

Energy contributions relative to reference atoms: (reference = -18598565.388050)

Kinetic:       +676.558014
Potential:     -682.953499
External:        +0.000000
XC:            -12040.098141
Entropy (-ST):   -0.365632
Local:           +4.521698
--------------------------
Free energy:   -12042.337560
Extrapolated:  -12042.154744

Showing only first 2 kpts
 Kpt  Band  Eigenvalues  Occupancy
  0   198     -5.78179    1.94043
  0   199     -5.65441    1.80223
  0   200     -5.46698    1.16613
  0   201     -5.22313    0.21759

  1   198     -6.28539    1.99960
  1   199     -6.04409    1.99555
  1   200     -5.84098    1.96660
  1   201     -5.68316    1.84789


Fermi level: -5.43344

No gap

Forces in eV/Ang:
  0 Au    0.01273   -0.00742   -0.15697
  1 Au    0.00371   -0.02441    0.12324
  2 Au   -0.00094    0.01381   -0.01334
  3 Au   -0.00102   -0.00113   -0.00586
  4 Au   -0.01792   -0.02083   -0.13766
  5 Au   -0.01712   -0.00514    0.01647
  6 Au    0.00605   -0.00590   -0.02630
  7 Au   -0.08801   -0.05060   -0.00657
  8 Au    0.00474    0.02327   -0.14267
  9 Au   -0.01866    0.01076    0.06315
 10 Au   -0.00084    0.00036   -0.02203
 11 Au   -0.01521    0.02945   -0.00618
 12 Au   -0.01769   -0.01573   -0.14275
 13 Au    0.01118   -0.02068    0.12270
 14 Au    0.00177    0.01217   -0.02330
 15 Au   -0.03177   -0.00379   -0.00597
 16 Au   -0.00327   -0.00568   -0.12395
 17 Au   -0.00216    0.00138    0.07327
 18 Au   -0.02591    0.01494   -0.04155
 19 Au   -0.02399    0.06618    0.32960
 20 Au   -0.00502    0.00284   -0.07671
 21 Au   -0.00400    0.01744    0.01668
 22 Au    0.00815   -0.00232   -0.02649
 23 Au    0.06214   -0.03733    0.32738
 24 Au    0.00906    0.02600   -0.13764
 25 Au   -0.01839    0.01057    0.12844
 26 Au   -0.00514    0.00295   -0.05071
 27 Au    0.00010    0.10178   -0.00659
 28 Au    0.02825   -0.01638   -0.10056
 29 Au    0.02345    0.00071    0.12278
 30 Au   -0.01027   -0.00703   -0.02215
 31 Au    0.09383   -0.05401   -0.01704
 32 Au    0.00337    0.00568   -0.12393
 33 Au    0.02289    0.00891    0.12347
 34 Au   -0.01214   -0.00664   -0.01268
 35 Au   -0.06219   -0.00848    0.32735
 36 C     0.00072   -0.00355   -0.23793

BFGS:    4 00:56:51   -12042.154744        0.3370
System changes: positions 

Initializing position-dependent things.

Density initialized from wave functions
                                               
                                               
                                               
                                               
                                               
                     C                         
           Au     Au      Au                   
                                               
            AAu    AAu     AAu                 
               Au     Au      Au               
              Au     Au      Au                
               AAu    AAu     AAu              
                                               
                 Au     Au      Au             
                                               
           Au     AAu    AAu      Au           
                                               
             Au     Au      Au                 
               Au     Au      Au               
                                               
                                               
                                               
                                               

Positions:
   0 Au     0.000000    0.000000    9.999999    ( 0.0000,  0.0000,  0.0000)
   1 Au     1.496891    0.864230   12.444412    ( 0.0000,  0.0000,  0.0000)
   2 Au     0.000358    1.739380   14.866572    ( 0.0000,  0.0000,  0.0000)
   3 Au     0.003487   -0.002421   17.351339    ( 0.0000,  0.0000,  0.0000)
   4 Au    -1.496891    2.592691    9.999999    ( 0.0000,  0.0000,  0.0000)
   5 Au    -0.000000    3.456922   12.444412    ( 0.0000,  0.0000,  0.0000)
   6 Au    -1.502703    4.319010   14.884399    ( 0.0000,  0.0000,  0.0000)
   7 Au    -1.521797    2.573267   17.373494    ( 0.0000,  0.0000,  0.0000)
   8 Au    -2.993782    5.185383    9.999999    ( 0.0000,  0.0000,  0.0000)
   9 Au    -1.496891    6.049613   12.444412    ( 0.0000,  0.0000,  0.0000)
  10 Au    -2.983921    6.908124   14.869443    ( 0.0000,  0.0000,  0.0000)
  11 Au    -2.997218    5.197190   17.374866    ( 0.0000,  0.0000,  0.0000)
  12 Au     2.993782    0.000000    9.999999    ( 0.0000,  0.0000,  0.0000)
  13 Au     4.490673    0.864230   12.444412    ( 0.0000,  0.0000,  0.0000)
  14 Au     2.992326    1.726611   14.887941    ( 0.0000,  0.0000,  0.0000)
  15 Au     2.982050   -0.003290   17.374881    ( 0.0000,  0.0000,  0.0000)
  16 Au     1.496891    2.592691    9.999999    ( 0.0000,  0.0000,  0.0000)
  17 Au     2.993782    3.456922   12.444412    ( 0.0000,  0.0000,  0.0000)
  18 Au     1.499200    4.319834   14.854481    ( 0.0000,  0.0000,  0.0000)
  19 Au     1.490118    2.464849   17.393774    ( 0.0000,  0.0000,  0.0000)
  20 Au    -0.000000    5.185383    9.999999    ( 0.0000,  0.0000,  0.0000)
  21 Au     1.496891    6.049613   12.444412    ( 0.0000,  0.0000,  0.0000)
  22 Au    -0.001066    6.919949   14.884389    ( 0.0000,  0.0000,  0.0000)
  23 Au    -0.110509    5.249257   17.400946    ( 0.0000,  0.0000,  0.0000)
  24 Au     5.987564    0.000000    9.999999    ( 0.0000,  0.0000,  0.0000)
  25 Au     7.484455    0.864230   12.444412    ( 0.0000,  0.0000,  0.0000)
  26 Au     5.988084    1.728161   14.888207    ( 0.0000,  0.0000,  0.0000)
  27 Au     5.992018    0.031217   17.373503    ( 0.0000,  0.0000,  0.0000)
  28 Au     4.490673    2.592691    9.999999    ( 0.0000,  0.0000,  0.0000)
  29 Au     5.987564    3.456922   12.444412    ( 0.0000,  0.0000,  0.0000)
  30 Au     4.491454    4.323403   14.888139    ( 0.0000,  0.0000,  0.0000)
  31 Au     4.519918    2.575889   17.385354    ( 0.0000,  0.0000,  0.0000)
  32 Au     2.993782    5.185383    9.999999    ( 0.0000,  0.0000,  0.0000)
  33 Au     4.490673    6.049613   12.444412    ( 0.0000,  0.0000,  0.0000)
  34 Au     2.984545    6.907987   14.866735    ( 0.0000,  0.0000,  0.0000)
  35 Au     3.099417    5.254306   17.394948    ( 0.0000,  0.0000,  0.0000)
  36 C      1.500678    4.317162   18.337873    ( 0.0000,  0.0000,  0.0000)

Unit cell:
           periodic     x           y           z      points  spacing
  1. axis:    yes    8.981346    0.000000    0.000000    44     0.1768
  2. axis:    yes   -4.490673    7.778074    0.000000    44     0.1768
  3. axis:    no     0.000000    0.000000   27.333237   152     0.1798

  Lengths:   8.981346   8.981346  27.333237
  Angles:   90.000000  90.000000 120.000000

Effective grid spacing dv^(1/3) = 0.1865

     iter     time        total  log10-change:
                         energy  eigst   dens
iter:   1 00:57:48 -12042.199693  -2.49
iter:   2 00:58:16 -12042.179515  -3.51  -2.78
iter:   3 00:58:44 -12042.172412c -4.20  -3.00
iter:   4 00:59:11 -12042.167628c -3.75  -3.18
iter:   5 00:59:39 -12042.167131c -4.49  -3.52
iter:   6 01:00:07 -12042.167025c -4.64  -3.70
iter:   7 01:00:35 -12042.167062c -5.27  -3.79
iter:   8 01:01:03 -12042.167045c -5.64  -4.05c
iter:   9 01:01:31 -12042.166977c -6.16  -4.08c
iter:  10 01:01:59 -12042.166955c -6.04  -4.28c
iter:  11 01:02:27 -12042.166959c -6.84  -4.55c
iter:  12 01:02:54 -12042.166953c -7.15  -4.63c
iter:  13 01:03:22 -12042.166950c -7.13  -4.68c
iter:  14 01:03:50 -12042.166951c -7.62c -4.92c

Converged after 14 iterations.

Dipole moment: (-2.199120, -8.271543, -0.104912) |e|*Ang

Energy contributions relative to reference atoms: (reference = -18598565.388050)

Kinetic:       +676.086889
Potential:     -682.588799
External:        +0.000000
XC:            -12040.003911
Entropy (-ST):   -0.366022
Local:           +4.521881
--------------------------
Free energy:   -12042.349962
Extrapolated:  -12042.166951

Showing only first 2 kpts
 Kpt  Band  Eigenvalues  Occupancy
  0   198     -5.78405    1.94132
  0   199     -5.65435    1.80083
  0   200     -5.46874    1.17119
  0   201     -5.22091    0.21195

  1   198     -6.28921    1.99961
  1   199     -6.04657    1.99563
  1   200     -5.84235    1.96681
  1   201     -5.68193    1.84512


Fermi level: -5.43416

No gap

Forces in eV/Ang:
  0 Au    0.01251   -0.00729   -0.15654
  1 Au    0.00339   -0.02605    0.11830
  2 Au    0.00761    0.02433    0.00961
  3 Au   -0.00883    0.00518   -0.00444
  4 Au   -0.01782   -0.02085   -0.13699
  5 Au   -0.02367   -0.00928    0.00337
  6 Au    0.01793   -0.00098   -0.00094
  7 Au   -0.04494   -0.02094    0.00184
  8 Au    0.00466    0.02306   -0.14207
  9 Au   -0.02034    0.01170    0.05710
 10 Au    0.00134   -0.00074   -0.01952
 11 Au   -0.01201    0.01984   -0.00995
 12 Au   -0.01755   -0.01557   -0.14216
 13 Au    0.01128   -0.02072    0.11445
 14 Au   -0.00795    0.02329    0.00120
 15 Au   -0.02245   -0.00078   -0.00977
 16 Au   -0.00349   -0.00649   -0.12374
 17 Au    0.00379   -0.00199    0.06206
 18 Au   -0.02847    0.01640    0.02718
 19 Au   -0.02354    0.16126    0.30757
 20 Au   -0.00565    0.00320   -0.07671
 21 Au   -0.00363    0.02520    0.00366
 22 Au    0.00995   -0.01518   -0.00106
 23 Au    0.15047   -0.08807    0.31314
 24 Au    0.00913    0.02592   -0.13696
 25 Au   -0.01831    0.01046    0.12241
 26 Au   -0.00480    0.00277   -0.05764
 27 Au   -0.00429    0.04958    0.00188
 28 Au    0.02840   -0.01645   -0.10012
 29 Au    0.02348    0.00070    0.11466
 30 Au   -0.02451   -0.00448    0.00175
 31 Au    0.04416   -0.02564   -0.02695
 32 Au    0.00396    0.00628   -0.12371
 33 Au    0.02413    0.00997    0.11861
 34 Au   -0.01722   -0.01895    0.00965
 35 Au   -0.14671   -0.05855    0.30396
 36 C    -0.00287   -0.00077   -0.30038

BFGS:    5 01:04:05   -12042.166951        0.3584
System changes: positions 

Initializing position-dependent things.

Density initialized from wave functions
                                               
                                               
                                               
                                               
                                               
                     C                         
           Au     Au      Au                   
                                               
            AAu    AAu     AAu                 
               Au     Au      Au               
              Au     Au      Au                
               AAu    AAu     AAu              
                                               
                 Au     Au      Au             
                                               
           Au     AAu    AAu      Au           
                                               
             Au     Au      Au                 
               Au     Au      Au               
                                               
                                               
                                               
                                               

Positions:
   0 Au     0.000000    0.000000    9.999999    ( 0.0000,  0.0000,  0.0000)
   1 Au     1.496891    0.864230   12.444412    ( 0.0000,  0.0000,  0.0000)
   2 Au     0.000374    1.740594   14.864614    ( 0.0000,  0.0000,  0.0000)
   3 Au     0.004007   -0.002950   17.350312    ( 0.0000,  0.0000,  0.0000)
   4 Au    -1.496891    2.592691    9.999999    ( 0.0000,  0.0000,  0.0000)
   5 Au    -0.000000    3.456922   12.444412    ( 0.0000,  0.0000,  0.0000)
   6 Au    -1.502311    4.318555   14.880843    ( 0.0000,  0.0000,  0.0000)
   7 Au    -1.535318    2.565500   17.372388    ( 0.0000,  0.0000,  0.0000)
   8 Au    -2.993782    5.185383    9.999999    ( 0.0000,  0.0000,  0.0000)
   9 Au    -1.496891    6.049613   12.444412    ( 0.0000,  0.0000,  0.0000)
  10 Au    -2.984065    6.908191   14.866992    ( 0.0000,  0.0000,  0.0000)
  11 Au    -2.999139    5.201471   17.373947    ( 0.0000,  0.0000,  0.0000)
  12 Au     2.993782    0.000000    9.999999    ( 0.0000,  0.0000,  0.0000)
  13 Au     4.490673    0.864230   12.444412    ( 0.0000,  0.0000,  0.0000)
  14 Au     2.992419    1.727671   14.884823    ( 0.0000,  0.0000,  0.0000)
  15 Au     2.977546   -0.004042   17.373986    ( 0.0000,  0.0000,  0.0000)
  16 Au     1.496891    2.592691    9.999999    ( 0.0000,  0.0000,  0.0000)
  17 Au     2.993782    3.456922   12.444412    ( 0.0000,  0.0000,  0.0000)
  18 Au     1.496305    4.321506   14.844341    ( 0.0000,  0.0000,  0.0000)
  19 Au     1.487451    2.449762   17.429878    ( 0.0000,  0.0000,  0.0000)
  20 Au    -0.000000    5.185383    9.999999    ( 0.0000,  0.0000,  0.0000)
  21 Au     1.496891    6.049613   12.444412    ( 0.0000,  0.0000,  0.0000)
  22 Au    -0.000477    6.919833   14.880814    ( 0.0000,  0.0000,  0.0000)
  23 Au    -0.122689    5.256153   17.436645    ( 0.0000,  0.0000,  0.0000)
  24 Au     5.987564    0.000000    9.999999    ( 0.0000,  0.0000,  0.0000)
  25 Au     7.484455    0.864230   12.444412    ( 0.0000,  0.0000,  0.0000)
  26 Au     5.987421    1.728542   14.882147    ( 0.0000,  0.0000,  0.0000)
  27 Au     5.992026    0.046827   17.372399    ( 0.0000,  0.0000,  0.0000)
  28 Au     4.490673    2.592691    9.999999    ( 0.0000,  0.0000,  0.0000)
  29 Au     5.987564    3.456922   12.444412    ( 0.0000,  0.0000,  0.0000)
  30 Au     4.490507    4.322860   14.885166    ( 0.0000,  0.0000,  0.0000)
  31 Au     4.534129    2.567714   17.382918    ( 0.0000,  0.0000,  0.0000)
  32 Au     2.993782    5.185383    9.999999    ( 0.0000,  0.0000,  0.0000)
  33 Au     4.490673    6.049613   12.444412    ( 0.0000,  0.0000,  0.0000)
  34 Au     2.983536    6.907297   14.864868    ( 0.0000,  0.0000,  0.0000)
  35 Au     3.111568    5.264305   17.430960    ( 0.0000,  0.0000,  0.0000)
  36 C      1.501820    4.316462   18.329555    ( 0.0000,  0.0000,  0.0000)

Unit cell:
           periodic     x           y           z      points  spacing
  1. axis:    yes    8.981346    0.000000    0.000000    44     0.1768
  2. axis:    yes   -4.490673    7.778074    0.000000    44     0.1768
  3. axis:    no     0.000000    0.000000   27.333237   152     0.1798

  Lengths:   8.981346   8.981346  27.333237
  Angles:   90.000000  90.000000 120.000000

Effective grid spacing dv^(1/3) = 0.1865

     iter     time        total  log10-change:
                         energy  eigst   dens
iter:   1 01:05:01 -12042.261802  -1.91
iter:   2 01:05:29 -12042.221476  -2.99  -2.60
iter:   3 01:05:56 -12042.207310c -3.67  -2.78
iter:   4 01:06:24 -12042.189082c -3.16  -2.89
iter:   5 01:06:52 -12042.188359c -3.99  -3.24
iter:   6 01:07:20 -12042.188121c -4.27  -3.41
iter:   7 01:07:48 -12042.187606c -4.89  -3.52
iter:   8 01:08:15 -12042.187721c -4.92  -3.67
iter:   9 01:08:43 -12042.187681c -5.36  -3.77
iter:  10 01:09:11 -12042.187597c -6.12  -3.94
iter:  11 01:09:39 -12042.187588c -5.96  -4.00c
iter:  12 01:10:07 -12042.187524c -5.91  -4.21c
iter:  13 01:10:35 -12042.187531c -6.46  -4.42c
iter:  14 01:11:02 -12042.187529c -7.11  -4.51c
iter:  15 01:11:30 -12042.187528c -7.19  -4.56c
iter:  16 01:11:58 -12042.187532c -7.48c -4.67c

Converged after 16 iterations.

Dipole moment: (-1.118658, -8.852363, -0.104002) |e|*Ang

Energy contributions relative to reference atoms: (reference = -18598565.388050)

Kinetic:       +675.815542
Potential:     -682.443675
External:        +0.000000
XC:            -12039.905888
Entropy (-ST):   -0.367117
Local:           +4.530048
--------------------------
Free energy:   -12042.371091
Extrapolated:  -12042.187532

Showing only first 2 kpts
 Kpt  Band  Eigenvalues  Occupancy
  0   198     -5.78409    1.94237
  0   199     -5.65071    1.79758
  0   200     -5.46894    1.18107
  0   201     -5.21148    0.19799

  1   198     -6.29501    1.99964
  1   199     -6.04857    1.99579
  1   200     -5.84272    1.96752
  1   201     -5.67132    1.83212


Fermi level: -5.43232

No gap

Forces in eV/Ang:
  0 Au    0.01221   -0.00712   -0.15610
  1 Au    0.00248   -0.02513    0.11245
  2 Au    0.02666    0.04020    0.05070
  3 Au   -0.01729    0.01366   -0.00820
  4 Au   -0.01694   -0.02057   -0.13638
  5 Au   -0.03136   -0.01500   -0.01460
  6 Au    0.03932    0.01206    0.04763
  7 Au    0.04037    0.04062    0.00338
  8 Au    0.00417    0.02266   -0.14143
  9 Au   -0.02011    0.01154    0.04875
 10 Au    0.00517   -0.00260   -0.00903
 11 Au   -0.00294    0.00425   -0.02404
 12 Au   -0.01745   -0.01495   -0.14153
 13 Au    0.00999   -0.02133    0.09963
 14 Au   -0.03053    0.04196    0.04722
 15 Au   -0.00584    0.00155   -0.02399
 16 Au   -0.00386   -0.00758   -0.12239
 17 Au    0.00998   -0.00547    0.04807
 18 Au   -0.02632    0.01502    0.11946
 19 Au    0.01698    0.19208    0.20485
 20 Au   -0.00617    0.00350   -0.07588
 21 Au   -0.00245    0.03475   -0.01423
 22 Au    0.00947   -0.04037    0.04765
 23 Au    0.22608   -0.13122    0.20071
 24 Au    0.00933    0.02502   -0.13633
 25 Au   -0.01640    0.00925    0.11262
 26 Au   -0.00353    0.00207   -0.06390
 27 Au   -0.01537   -0.05525    0.00365
 28 Au    0.02791   -0.01616   -0.10021
 29 Au    0.02325    0.00222    0.10007
 30 Au   -0.05146    0.00506    0.04654
 31 Au   -0.05772    0.03258   -0.05566
 32 Au    0.00472    0.00715   -0.12236
 33 Au    0.02285    0.01022    0.11285
 34 Au   -0.02195   -0.04255    0.04960
 35 Au   -0.15824   -0.11102    0.20442
 36 C    -0.00117   -0.00053   -0.26559

BFGS:    6 01:12:12   -12042.187532        0.3296
System changes: positions 

Initializing position-dependent things.

Density initialized from wave functions
                                               
                                               
                                               
                                               
                                               
                     C                         
           Au     Au      Au                   
                                               
            AAu    AAu     AAu                 
               Au     Au      Au               
              Au     Au      Au                
               AAu    AAu     AAu              
                                               
                 Au     Au      Au             
                                               
           Au     AAu    AAu      Au           
                                               
             Au     Au      Au                 
               Au     Au      Au               
                                               
                                               
                                               
                                               

Positions:
   0 Au     0.000000    0.000000    9.999999    ( 0.0000,  0.0000,  0.0000)
   1 Au     1.496891    0.864230   12.444412    ( 0.0000,  0.0000,  0.0000)
   2 Au     0.000839    1.741990   14.864480    ( 0.0000,  0.0000,  0.0000)
   3 Au     0.003933   -0.002963   17.349638    ( 0.0000,  0.0000,  0.0000)
   4 Au    -1.496891    2.592691    9.999999    ( 0.0000,  0.0000,  0.0000)
   5 Au    -0.000000    3.456922   12.444412    ( 0.0000,  0.0000,  0.0000)
   6 Au    -1.501382    4.318501   14.879811    ( 0.0000,  0.0000,  0.0000)
   7 Au    -1.541552    2.562252   17.371843    ( 0.0000,  0.0000,  0.0000)
   8 Au    -2.993782    5.185383    9.999999    ( 0.0000,  0.0000,  0.0000)
   9 Au    -1.496891    6.049613   12.444412    ( 0.0000,  0.0000,  0.0000)
  10 Au    -2.984049    6.908180   14.865498    ( 0.0000,  0.0000,  0.0000)
  11 Au    -3.000213    5.203780   17.373032    ( 0.0000,  0.0000,  0.0000)
  12 Au     2.993782    0.000000    9.999999    ( 0.0000,  0.0000,  0.0000)
  13 Au     4.490673    0.864230   12.444412    ( 0.0000,  0.0000,  0.0000)
  14 Au     2.991934    1.729020   14.884012    ( 0.0000,  0.0000,  0.0000)
  15 Au     2.975085   -0.004392   17.373085    ( 0.0000,  0.0000,  0.0000)
  16 Au     1.496891    2.592691    9.999999    ( 0.0000,  0.0000,  0.0000)
  17 Au     2.993782    3.456922   12.444412    ( 0.0000,  0.0000,  0.0000)
  18 Au     1.494292    4.322664   14.841494    ( 0.0000,  0.0000,  0.0000)
  19 Au     1.486544    2.447350   17.453365    ( 0.0000,  0.0000,  0.0000)
  20 Au    -0.000000    5.185383    9.999999    ( 0.0000,  0.0000,  0.0000)
  21 Au     1.496891    6.049613   12.444412    ( 0.0000,  0.0000,  0.0000)
  22 Au     0.000040    6.919048   14.879772    ( 0.0000,  0.0000,  0.0000)
  23 Au    -0.122953    5.256213   17.459823    ( 0.0000,  0.0000,  0.0000)
  24 Au     5.987564    0.000000    9.999999    ( 0.0000,  0.0000,  0.0000)
  25 Au     7.484455    0.864230   12.444412    ( 0.0000,  0.0000,  0.0000)
  26 Au     5.987010    1.728779   14.877761    ( 0.0000,  0.0000,  0.0000)
  27 Au     5.991736    0.053862   17.371859    ( 0.0000,  0.0000,  0.0000)
  28 Au     4.490673    2.592691    9.999999    ( 0.0000,  0.0000,  0.0000)
  29 Au     5.987564    3.456922   12.444412    ( 0.0000,  0.0000,  0.0000)
  30 Au     4.489058    4.322635   14.884421    ( 0.0000,  0.0000,  0.0000)
  31 Au     4.540398    2.564097   17.380613    ( 0.0000,  0.0000,  0.0000)
  32 Au     2.993782    5.185383    9.999999    ( 0.0000,  0.0000,  0.0000)
  33 Au     4.490673    6.049613   12.444412    ( 0.0000,  0.0000,  0.0000)
  34 Au     2.982570    6.906170   14.864763    ( 0.0000,  0.0000,  0.0000)
  35 Au     3.113472    5.266398   17.454382    ( 0.0000,  0.0000,  0.0000)
  36 C      1.502316    4.316072   18.317984    ( 0.0000,  0.0000,  0.0000)

Unit cell:
           periodic     x           y           z      points  spacing
  1. axis:    yes    8.981346    0.000000    0.000000    44     0.1768
  2. axis:    yes   -4.490673    7.778074    0.000000    44     0.1768
  3. axis:    no     0.000000    0.000000   27.333237   152     0.1798

  Lengths:   8.981346   8.981346  27.333237
  Angles:   90.000000  90.000000 120.000000

Effective grid spacing dv^(1/3) = 0.1865

     iter     time        total  log10-change:
                         energy  eigst   dens
iter:   1 01:13:09 -12042.228853  -2.36
iter:   2 01:13:36 -12042.208439  -3.39  -2.85
iter:   3 01:14:04 -12042.200849c -3.74  -3.02
iter:   4 01:14:32 -12042.199040c -4.18  -3.23
iter:   5 01:15:00 -12042.198413c -4.44  -3.40
iter:   6 01:15:28 -12042.198301c -4.59  -3.64
iter:   7 01:15:55 -12042.198129c -5.17  -3.72
iter:   8 01:16:23 -12042.198142c -5.57  -3.93
iter:   9 01:16:51 -12042.198075c -5.90  -4.00c
iter:  10 01:17:19 -12042.198064c -6.14  -4.29c
iter:  11 01:17:47 -12042.198083c -6.75  -4.42c
iter:  12 01:18:14 -12042.198066c -6.71  -4.50c
iter:  13 01:18:42 -12042.198073c -6.98  -4.55c
iter:  14 01:19:10 -12042.198065c -7.13  -4.58c
iter:  15 01:19:38 -12042.198067c -7.38  -4.81c
iter:  16 01:20:05 -12042.198067c -7.83c -5.01c

Converged after 16 iterations.

Dipole moment: (-0.589756, -9.139574, -0.100428) |e|*Ang

Energy contributions relative to reference atoms: (reference = -18598565.388050)

Kinetic:       +675.911501
Potential:     -682.560443
External:        +0.000000
XC:            -12039.902441
Entropy (-ST):   -0.367999
Local:           +4.537316
--------------------------
Free energy:   -12042.382067
Extrapolated:  -12042.198067

Showing only first 2 kpts
 Kpt  Band  Eigenvalues  Occupancy
  0   198     -5.78086    1.94247
  0   199     -5.64588    1.79496
  0   200     -5.46656    1.18599
  0   201     -5.20315    0.18936

  1   198     -6.29606    1.99966
  1   199     -6.04724    1.99588
  1   200     -5.84091    1.96803
  1   201     -5.66007    1.81965


Fermi level: -5.42892

No gap

Forces in eV/Ang:
  0 Au    0.01172   -0.00684   -0.15599
  1 Au    0.00195   -0.02445    0.10974
  2 Au    0.03350    0.04111    0.06918
  3 Au   -0.01885    0.01589   -0.00767
  4 Au   -0.01641   -0.02028   -0.13640
  5 Au   -0.03607   -0.01844   -0.02519
  6 Au    0.04407    0.01921    0.07295
  7 Au    0.07946    0.07105    0.00010
  8 Au    0.00396    0.02205   -0.14120
  9 Au   -0.01984    0.01134    0.04381
 10 Au    0.00638   -0.00317   -0.00287
 11 Au    0.00551   -0.00272   -0.02846
 12 Au   -0.01703   -0.01447   -0.14130
 13 Au    0.00809   -0.02274    0.09217
 14 Au   -0.04156    0.04643    0.07093
 15 Au    0.00361   -0.00105   -0.02851
 16 Au   -0.00413   -0.00817   -0.12180
 17 Au    0.01310   -0.00721    0.04033
 18 Au   -0.01929    0.01096    0.15639
 19 Au    0.02149    0.09770    0.12267
 20 Au   -0.00653    0.00371   -0.07556
 21 Au   -0.00178    0.04055   -0.02476
 22 Au    0.00574   -0.04815    0.07305
 23 Au    0.12178   -0.07038    0.07534
 24 Au    0.00935    0.02441   -0.13634
 25 Au   -0.01426    0.00797    0.10895
 26 Au   -0.00043    0.00031   -0.06385
 27 Au   -0.02227   -0.10457    0.00046
 28 Au    0.02770   -0.01604   -0.10075
 29 Au    0.02347    0.00464    0.09274
 30 Au   -0.06058    0.01203    0.06965
 31 Au   -0.10363    0.05888   -0.05881
 32 Au    0.00510    0.00768   -0.12177
 33 Au    0.02199    0.01029    0.11021
 34 Au   -0.01955   -0.04855    0.06761
 35 Au   -0.07960   -0.06964    0.12538
 36 C     0.00251    0.00424   -0.15382

BFGS:    7 01:20:20   -12042.198067        0.1640
System changes: positions 

Initializing position-dependent things.

Density initialized from wave functions
                                               
                                               
                                               
                                               
                                               
                     C                         
           Au     Au      Au                   
                                               
            AAu    AAu     AAu                 
               Au     Au      Au               
              Au     Au      Au                
               AAu    AAu     AAu              
                                               
                 Au     Au      Au             
                                               
           Au     AAu    AAu      Au           
                                               
             Au     Au      Au                 
               Au     Au      Au               
                                               
                                               
                                               
                                               

Positions:
   0 Au     0.000000    0.000000    9.999999    ( 0.0000,  0.0000,  0.0000)
   1 Au     1.496891    0.864230   12.444412    ( 0.0000,  0.0000,  0.0000)
   2 Au     0.001765    1.743622   14.865876    ( 0.0000,  0.0000,  0.0000)
   3 Au     0.003450   -0.002609   17.349154    ( 0.0000,  0.0000,  0.0000)
   4 Au    -1.496891    2.592691    9.999999    ( 0.0000,  0.0000,  0.0000)
   5 Au    -0.000000    3.456922   12.444412    ( 0.0000,  0.0000,  0.0000)
   6 Au    -1.499950    4.318847   14.880817    ( 0.0000,  0.0000,  0.0000)
   7 Au    -1.542993    2.562159   17.371551    ( 0.0000,  0.0000,  0.0000)
   8 Au    -2.993782    5.185383    9.999999    ( 0.0000,  0.0000,  0.0000)
   9 Au    -1.496891    6.049613   12.444412    ( 0.0000,  0.0000,  0.0000)
  10 Au    -2.983908    6.908107   14.864604    ( 0.0000,  0.0000,  0.0000)
  11 Au    -3.000659    5.204912   17.371966    ( 0.0000,  0.0000,  0.0000)
  12 Au     2.993782    0.000000    9.999999    ( 0.0000,  0.0000,  0.0000)
  13 Au     4.490673    0.864230   12.444412    ( 0.0000,  0.0000,  0.0000)
  14 Au     2.990813    1.730748   14.885090    ( 0.0000,  0.0000,  0.0000)
  15 Au     2.973889   -0.004589   17.372026    ( 0.0000,  0.0000,  0.0000)
  16 Au     1.496891    2.592691    9.999999    ( 0.0000,  0.0000,  0.0000)
  17 Au     2.993782    3.456922   12.444412    ( 0.0000,  0.0000,  0.0000)
  18 Au     1.492809    4.323514   14.843720    ( 0.0000,  0.0000,  0.0000)
  19 Au     1.486544    2.450109   17.469107    ( 0.0000,  0.0000,  0.0000)
  20 Au    -0.000000    5.185383    9.999999    ( 0.0000,  0.0000,  0.0000)
  21 Au     1.496891    6.049613   12.444412    ( 0.0000,  0.0000,  0.0000)
  22 Au     0.000465    6.917623   14.880773    ( 0.0000,  0.0000,  0.0000)
  23 Au    -0.118826    5.253775   17.474273    ( 0.0000,  0.0000,  0.0000)
  24 Au     5.987564    0.000000    9.999999    ( 0.0000,  0.0000,  0.0000)
  25 Au     7.484455    0.864230   12.444412    ( 0.0000,  0.0000,  0.0000)
  26 Au     5.986792    1.728906   14.874038    ( 0.0000,  0.0000,  0.0000)
  27 Au     5.991093    0.055161   17.371577    ( 0.0000,  0.0000,  0.0000)
  28 Au     4.490673    2.592691    9.999999    ( 0.0000,  0.0000,  0.0000)
  29 Au     5.987564    3.456922   12.444412    ( 0.0000,  0.0000,  0.0000)
  30 Au     4.486989    4.322743   14.885508    ( 0.0000,  0.0000,  0.0000)
  31 Au     4.541343    2.563532   17.378187    ( 0.0000,  0.0000,  0.0000)
  32 Au     2.993782    5.185383    9.999999    ( 0.0000,  0.0000,  0.0000)
  33 Au     4.490673    6.049613   12.444412    ( 0.0000,  0.0000,  0.0000)
  34 Au     2.981612    6.904559   14.866141    ( 0.0000,  0.0000,  0.0000)
  35 Au     3.111147    5.265050   17.470133    ( 0.0000,  0.0000,  0.0000)
  36 C      1.502540    4.315978   18.306358    ( 0.0000,  0.0000,  0.0000)

Unit cell:
           periodic     x           y           z      points  spacing
  1. axis:    yes    8.981346    0.000000    0.000000    44     0.1768
  2. axis:    yes   -4.490673    7.778074    0.000000    44     0.1768
  3. axis:    no     0.000000    0.000000   27.333237   152     0.1798

  Lengths:   8.981346   8.981346  27.333237
  Angles:   90.000000  90.000000 120.000000

Effective grid spacing dv^(1/3) = 0.1865

     iter     time        total  log10-change:
                         energy  eigst   dens
iter:   1 01:21:16 -12042.255274  -2.63
iter:   2 01:21:44 -12042.213982  -3.45  -2.76
iter:   3 01:22:12 -12042.206815c -3.94  -3.01
iter:   4 01:22:40 -12042.204137c -4.22  -3.36
iter:   5 01:23:07 -12042.203916c -4.85  -3.58
iter:   6 01:23:35 -12042.203632c -4.96  -3.73
iter:   7 01:24:03 -12042.203564c -5.36  -3.85
iter:   8 01:24:31 -12042.203566c -6.07  -4.11c
iter:   9 01:24:59 -12042.203590c -5.84  -4.18c
iter:  10 01:25:27 -12042.203582c -6.32  -4.40c
iter:  11 01:25:55 -12042.203577c -6.99  -4.46c
iter:  12 01:26:22 -12042.203555c -6.95  -4.57c
iter:  13 01:26:50 -12042.203556c -6.92  -4.73c
iter:  14 01:27:18 -12042.203560c -7.57c -4.94c

Converged after 14 iterations.

Dipole moment: (-0.422637, -9.240786, -0.095965) |e|*Ang

Energy contributions relative to reference atoms: (reference = -18598565.388050)

Kinetic:       +676.186296
Potential:     -682.810726
External:        +0.000000
XC:            -12039.938510
Entropy (-ST):   -0.368665
Local:           +4.543712
--------------------------
Free energy:   -12042.387892
Extrapolated:  -12042.203560

Showing only first 2 kpts
 Kpt  Band  Eigenvalues  Occupancy
  0   198     -5.77688    1.94227
  0   199     -5.64113    1.79291
  0   200     -5.46347    1.18860
  0   201     -5.19635    0.18402

  1   198     -6.29458    1.99966
  1   199     -6.04424    1.99591
  1   200     -5.83827    1.96834
  1   201     -5.64988    1.80859


Fermi level: -5.42529

No gap

Forces in eV/Ang:
  0 Au    0.01155   -0.00674   -0.15725
  1 Au    0.00158   -0.02273    0.11255
  2 Au    0.03305    0.03303    0.06780
  3 Au   -0.01543    0.01318   -0.00557
  4 Au   -0.01550   -0.01994   -0.13845
  5 Au   -0.03565   -0.01888   -0.02419
  6 Au    0.03933    0.02155    0.07821
  7 Au    0.08350    0.07347   -0.00246
  8 Au    0.00352    0.02185   -0.14253
  9 Au   -0.01861    0.01064    0.04517
 10 Au    0.00540   -0.00267   -0.00037
 11 Au    0.00923   -0.00295   -0.02802
 12 Au   -0.01708   -0.01398   -0.14262
 13 Au    0.00386   -0.02533    0.09299
 14 Au   -0.04530    0.04252    0.07612
 15 Au    0.00566   -0.00405   -0.02810
 16 Au   -0.00423   -0.00816   -0.12256
 17 Au    0.01145   -0.00626    0.04275
 18 Au   -0.01290    0.00731    0.15108
 19 Au    0.01005   -0.04633    0.04751
 20 Au   -0.00617    0.00350   -0.07659
 21 Au   -0.00120    0.04039   -0.02377
 22 Au    0.00134   -0.04521    0.07833
 23 Au   -0.02967    0.01725   -0.00338
 24 Au    0.00951    0.02346   -0.13837
 25 Au   -0.00994    0.00550    0.11162
 26 Au    0.00201   -0.00111   -0.05430
 27 Au   -0.02225   -0.10948   -0.00212
 28 Au    0.02690   -0.01557   -0.10312
 29 Au    0.02357    0.00960    0.09357
 30 Au   -0.05900    0.01724    0.07476
 31 Au   -0.10963    0.06239   -0.05744
 32 Au    0.00505    0.00775   -0.12253
 33 Au    0.02033    0.00975    0.11305
 34 Au   -0.01272   -0.04412    0.06627
 35 Au    0.03756    0.01211    0.05065
 36 C     0.00891    0.00560    0.02910

BFGS:    8 01:27:33   -12042.203560        0.1518
System changes: positions 

Initializing position-dependent things.

Density initialized from wave functions
                                               
                                               
                                               
                                               
                                               
                     C                         
           Au     Au      Au                   
                                               
            AAu    AAu     AAu                 
               Au     Au      Au               
              Au     Au      Au                
               AAu    AAu     AAu              
                                               
                 Au     Au      Au             
                                               
           Au     AAu    AAu      Au           
                                               
             Au     Au      Au                 
               Au     Au      Au               
                                               
                                               
                                               
                                               

Positions:
   0 Au     0.000000    0.000000    9.999999    ( 0.0000,  0.0000,  0.0000)
   1 Au     1.496891    0.864230   12.444412    ( 0.0000,  0.0000,  0.0000)
   2 Au     0.002631    1.744695   14.867536    ( 0.0000,  0.0000,  0.0000)
   3 Au     0.003011   -0.002253   17.348929    ( 0.0000,  0.0000,  0.0000)
   4 Au    -1.496891    2.592691    9.999999    ( 0.0000,  0.0000,  0.0000)
   5 Au    -0.000000    3.456922   12.444412    ( 0.0000,  0.0000,  0.0000)
   6 Au    -1.498816    4.319336   14.882565    ( 0.0000,  0.0000,  0.0000)
   7 Au    -1.541713    2.563568   17.371445    ( 0.0000,  0.0000,  0.0000)
   8 Au    -2.993782    5.185383    9.999999    ( 0.0000,  0.0000,  0.0000)
   9 Au    -1.496891    6.049613   12.444412    ( 0.0000,  0.0000,  0.0000)
  10 Au    -2.983766    6.908036   14.864356    ( 0.0000,  0.0000,  0.0000)
  11 Au    -3.000605    5.205132   17.371160    ( 0.0000,  0.0000,  0.0000)
  12 Au     2.993782    0.000000    9.999999    ( 0.0000,  0.0000,  0.0000)
  13 Au     4.490673    0.864230   12.444412    ( 0.0000,  0.0000,  0.0000)
  14 Au     2.989669    1.732021   14.886817    ( 0.0000,  0.0000,  0.0000)
  15 Au     2.973699   -0.004703   17.371220    ( 0.0000,  0.0000,  0.0000)
  16 Au     1.496891    2.592691    9.999999    ( 0.0000,  0.0000,  0.0000)
  17 Au     2.993782    3.456922   12.444412    ( 0.0000,  0.0000,  0.0000)
  18 Au     1.492163    4.323883   14.847314    ( 0.0000,  0.0000,  0.0000)
  19 Au     1.486759    2.450786   17.474300    ( 0.0000,  0.0000,  0.0000)
  20 Au    -0.000000    5.185383    9.999999    ( 0.0000,  0.0000,  0.0000)
  21 Au     1.496891    6.049613   12.444412    ( 0.0000,  0.0000,  0.0000)
  22 Au     0.000618    6.916386   14.882523    ( 0.0000,  0.0000,  0.0000)
  23 Au    -0.117511    5.253002   17.478231    ( 0.0000,  0.0000,  0.0000)
  24 Au     5.987564    0.000000    9.999999    ( 0.0000,  0.0000,  0.0000)
  25 Au     7.484455    0.864230   12.444412    ( 0.0000,  0.0000,  0.0000)
  26 Au     5.986770    1.728920   14.872029    ( 0.0000,  0.0000,  0.0000)
  27 Au     5.990506    0.053341   17.371480    ( 0.0000,  0.0000,  0.0000)
  28 Au     4.490673    2.592691    9.999999    ( 0.0000,  0.0000,  0.0000)
  29 Au     5.987564    3.456922   12.444412    ( 0.0000,  0.0000,  0.0000)
  30 Au     4.485320    4.323084   14.887212    ( 0.0000,  0.0000,  0.0000)
  31 Au     4.539436    2.564611   17.376461    ( 0.0000,  0.0000,  0.0000)
  32 Au     2.993782    5.185383    9.999999    ( 0.0000,  0.0000,  0.0000)
  33 Au     4.490673    6.049613   12.444412    ( 0.0000,  0.0000,  0.0000)
  34 Au     2.981101    6.903293   14.867766    ( 0.0000,  0.0000,  0.0000)
[...]
  13 Au     4.490673    0.864230   12.444412    ( 0.0000,  0.0000,  0.0000)
  14 Au     2.973628    1.738478   14.904227    ( 0.0000,  0.0000,  0.0000)
  15 Au     2.971136   -0.006415   17.362396    ( 0.0000,  0.0000,  0.0000)
  16 Au     1.496891    2.592691    9.999999    ( 0.0000,  0.0000,  0.0000)
  17 Au     2.993782    3.456922   12.444412    ( 0.0000,  0.0000,  0.0000)
  18 Au     1.496332    4.321467   14.906540    ( 0.0000,  0.0000,  0.0000)
  19 Au     1.482690    2.423086   17.554808    ( 0.0000,  0.0000,  0.0000)
  20 Au    -0.000000    5.185383    9.999999    ( 0.0000,  0.0000,  0.0000)
  21 Au     1.496891    6.049613   12.444412    ( 0.0000,  0.0000,  0.0000)
  22 Au     0.001614    6.909178   14.900881    ( 0.0000,  0.0000,  0.0000)
  23 Au    -0.133566    5.261920   17.537729    ( 0.0000,  0.0000,  0.0000)
  24 Au     5.987564    0.000000    9.999999    ( 0.0000,  0.0000,  0.0000)
  25 Au     7.484455    0.864230   12.444412    ( 0.0000,  0.0000,  0.0000)
  26 Au     5.987823    1.728276   14.860626    ( 0.0000,  0.0000,  0.0000)
  27 Au     5.983803    0.041735   17.366675    ( 0.0000,  0.0000,  0.0000)
  28 Au     4.490673    2.592691    9.999999    ( 0.0000,  0.0000,  0.0000)
  29 Au     5.987564    3.456922   12.444412    ( 0.0000,  0.0000,  0.0000)
  30 Au     4.471832    4.333677   14.904270    ( 0.0000,  0.0000,  0.0000)
  31 Au     4.528653    2.570747   17.352250    ( 0.0000,  0.0000,  0.0000)
  32 Au     2.993782    5.185383    9.999999    ( 0.0000,  0.0000,  0.0000)
  33 Au     4.490673    6.049613   12.444412    ( 0.0000,  0.0000,  0.0000)
  34 Au     2.981958    6.899281   14.875706    ( 0.0000,  0.0000,  0.0000)
  35 Au     3.133697    5.283778   17.555339    ( 0.0000,  0.0000,  0.0000)
  36 C      1.504954    4.315493   18.318273    ( 0.0000,  0.0000,  0.0000)

Unit cell:
           periodic     x           y           z      points  spacing
  1. axis:    yes    8.981346    0.000000    0.000000    44     0.1768
  2. axis:    yes   -4.490673    7.778074    0.000000    44     0.1768
  3. axis:    no     0.000000    0.000000   27.333237   152     0.1798

  Lengths:   8.981346   8.981346  27.333237
  Angles:   90.000000  90.000000 120.000000

Effective grid spacing dv^(1/3) = 0.1865

     iter     time        total  log10-change:
                         energy  eigst   dens
iter:   1 02:20:27 -12042.219928  -3.62
iter:   2 02:20:55 -12042.219284  -4.72  -3.57
iter:   3 02:21:23 -12042.218732c -4.92  -3.74
iter:   4 02:21:50 -12042.218633c -5.40  -4.07c
iter:   5 02:22:18 -12042.218667c -6.08  -4.17c
iter:   6 02:22:46 -12042.218634c -5.82  -4.29c
iter:   7 02:23:14 -12042.218627c -6.65  -4.43c
iter:   8 02:23:41 -12042.218628c -6.64  -4.57c
iter:   9 02:24:09 -12042.218623c -7.28  -4.73c
iter:  10 02:24:37 -12042.218619c -7.50c -4.97c

Converged after 10 iterations.

Dipole moment: (-1.026780, -8.965680, -0.092014) |e|*Ang

Energy contributions relative to reference atoms: (reference = -18598565.388050)

Kinetic:       +673.053603
Potential:     -680.163144
External:        +0.000000
XC:            -12039.457023
Entropy (-ST):   -0.372825
Local:           +4.534358
--------------------------
Free energy:   -12042.405032
Extrapolated:  -12042.218619

Showing only first 2 kpts
 Kpt  Band  Eigenvalues  Occupancy
  0   198     -5.78699    1.94943
  0   199     -5.62864    1.77561
  0   200     -5.46175    1.19717
  0   201     -5.18725    0.17485

  1   198     -6.29005    1.99966
  1   199     -6.03273    1.99557
  1   200     -5.83281    1.96772
  1   201     -5.62569    1.76966


Fermi level: -5.42179

No gap

Forces in eV/Ang:
  0 Au    0.01093   -0.00636   -0.15486
  1 Au    0.00919   -0.00039    0.12698
  2 Au    0.00731    0.02739    0.01636
  3 Au    0.00873    0.00076   -0.00331
  4 Au   -0.01664   -0.02045   -0.14275
  5 Au   -0.00555    0.00816    0.06770
  6 Au    0.01621   -0.00070   -0.01096
  7 Au    0.01333   -0.00185   -0.00059
  8 Au    0.00262    0.02001   -0.14072
  9 Au    0.00798   -0.00463    0.07403
 10 Au    0.01205   -0.00655    0.01577
 11 Au    0.00031   -0.00031    0.00811
 12 Au   -0.01597   -0.01229   -0.14075
 13 Au   -0.01872   -0.03782    0.13324
 14 Au    0.00382   -0.00377   -0.00035
 15 Au   -0.00073    0.00170    0.00777
 16 Au   -0.00375   -0.00937   -0.11579
 17 Au   -0.01829    0.01059    0.13097
 18 Au    0.03036   -0.01754    0.00504
 19 Au    0.00460    0.03034    0.00712
 20 Au   -0.00658    0.00376   -0.06946
 21 Au   -0.00978    0.00067    0.06773
 22 Au    0.00849   -0.01369   -0.01094
 23 Au    0.02136   -0.01276    0.00592
 24 Au    0.00940    0.02466   -0.14271
 25 Au    0.00038   -0.00025    0.12289
 26 Au   -0.01219    0.00686    0.01274
 27 Au    0.00758   -0.01069   -0.00055
 28 Au    0.02778   -0.01604   -0.10784
 29 Au    0.02335    0.03511    0.13319
 30 Au    0.00512   -0.00210   -0.00043
 31 Au   -0.01672    0.00971    0.01469
 32 Au    0.00630    0.00795   -0.11576
 33 Au    0.00493   -0.00774    0.12700
 34 Au   -0.02034   -0.01952    0.01572
 35 Au   -0.04023   -0.02981    0.01229
 36 C     0.01274    0.00522    0.02500

BFGS:   17 02:24:51   -12042.218619        0.0516
System changes: positions 

Initializing position-dependent things.

Density initialized from wave functions
                                               
                                               
                                               
                                               
                                               
                     C                         
           Au     Au      Au                   
                                               
            AAu    AAu     AAu                 
               Au     Au      Au               
              Au     Au      Au                
               AAu    AAu     AAu              
                                               
                 Au     Au      Au             
                                               
           Au     AAu    AAu      Au           
                                               
             Au     Au      Au                 
               Au     Au      Au               
                                               
                                               
                                               
                                               

Positions:
   0 Au     0.000000    0.000000    9.999999    ( 0.0000,  0.0000,  0.0000)
   1 Au     1.496891    0.864230   12.444412    ( 0.0000,  0.0000,  0.0000)
   2 Au     0.006222    1.745680   14.875321    ( 0.0000,  0.0000,  0.0000)
   3 Au    -0.000718    0.000351   17.348638    ( 0.0000,  0.0000,  0.0000)
   4 Au    -1.496891    2.592691    9.999999    ( 0.0000,  0.0000,  0.0000)
   5 Au    -0.000000    3.456922   12.444412    ( 0.0000,  0.0000,  0.0000)
   6 Au    -1.492466    4.321721   14.900594    ( 0.0000,  0.0000,  0.0000)
   7 Au    -1.533410    2.575654   17.366420    ( 0.0000,  0.0000,  0.0000)
   8 Au    -2.993782    5.185383    9.999999    ( 0.0000,  0.0000,  0.0000)
   9 Au    -1.496891    6.049613   12.444412    ( 0.0000,  0.0000,  0.0000)
  10 Au    -2.983189    6.907719   14.856386    ( 0.0000,  0.0000,  0.0000)
  11 Au    -2.999798    5.207533   17.362966    ( 0.0000,  0.0000,  0.0000)
  12 Au     2.993782    0.000000    9.999999    ( 0.0000,  0.0000,  0.0000)
  13 Au     4.490673    0.864230   12.444412    ( 0.0000,  0.0000,  0.0000)
  14 Au     2.973691    1.737370   14.904152    ( 0.0000,  0.0000,  0.0000)
  15 Au     2.971788   -0.006214   17.362966    ( 0.0000,  0.0000,  0.0000)
  16 Au     1.496891    2.592691    9.999999    ( 0.0000,  0.0000,  0.0000)
  17 Au     2.993782    3.456922   12.444412    ( 0.0000,  0.0000,  0.0000)
  18 Au     1.498727    4.320087   14.909960    ( 0.0000,  0.0000,  0.0000)
  19 Au     1.482679    2.426650   17.552595    ( 0.0000,  0.0000,  0.0000)
  20 Au    -0.000000    5.185383    9.999999    ( 0.0000,  0.0000,  0.0000)
  21 Au     1.496891    6.049613   12.444412    ( 0.0000,  0.0000,  0.0000)
  22 Au     0.001805    6.909496   14.900604    ( 0.0000,  0.0000,  0.0000)
  23 Au    -0.130596    5.260192   17.535020    ( 0.0000,  0.0000,  0.0000)
  24 Au     5.987564    0.000000    9.999999    ( 0.0000,  0.0000,  0.0000)
  25 Au     7.484455    0.864230   12.444412    ( 0.0000,  0.0000,  0.0000)
  26 Au     5.987621    1.728383   14.863062    ( 0.0000,  0.0000,  0.0000)
  27 Au     5.984111    0.039937   17.366556    ( 0.0000,  0.0000,  0.0000)
  28 Au     4.490673    2.592691    9.999999    ( 0.0000,  0.0000,  0.0000)
  29 Au     5.987564    3.456922   12.444412    ( 0.0000,  0.0000,  0.0000)
  30 Au     4.472837    4.334153   14.904166    ( 0.0000,  0.0000,  0.0000)
  31 Au     4.527052    2.571687   17.352959    ( 0.0000,  0.0000,  0.0000)
  32 Au     2.993782    5.185383    9.999999    ( 0.0000,  0.0000,  0.0000)
  33 Au     4.490673    6.049613   12.444412    ( 0.0000,  0.0000,  0.0000)
  34 Au     2.981991    6.899806   14.875355    ( 0.0000,  0.0000,  0.0000)
  35 Au     3.130222    5.281806   17.553212    ( 0.0000,  0.0000,  0.0000)
  36 C      1.505035    4.315735   18.321310    ( 0.0000,  0.0000,  0.0000)

Unit cell:
           periodic     x           y           z      points  spacing
  1. axis:    yes    8.981346    0.000000    0.000000    44     0.1768
  2. axis:    yes   -4.490673    7.778074    0.000000    44     0.1768
  3. axis:    no     0.000000    0.000000   27.333237   152     0.1798

  Lengths:   8.981346   8.981346  27.333237
  Angles:   90.000000  90.000000 120.000000

Effective grid spacing dv^(1/3) = 0.1865

     iter     time        total  log10-change:
                         energy  eigst   dens
iter:   1 02:25:47 -12042.221054  -3.65
iter:   2 02:26:15 -12042.219798  -4.65  -3.52
iter:   3 02:26:43 -12042.219517c -5.22  -3.68
iter:   4 02:27:10 -12042.219236c -5.35  -3.86
iter:   5 02:27:38 -12042.219251c -5.76  -4.10c
iter:   6 02:28:06 -12042.219229c -5.70  -4.24c
iter:   7 02:28:34 -12042.219230c -6.50  -4.37c
iter:   8 02:29:01 -12042.219230c -6.89  -4.50c
iter:   9 02:29:29 -12042.219216c -6.85  -4.59c
iter:  10 02:29:57 -12042.219223c -7.34  -4.85c
iter:  11 02:30:24 -12042.219219c -7.58c -4.94c

Converged after 11 iterations.

Dipole moment: (-1.170505, -8.893706, -0.092209) |e|*Ang

Energy contributions relative to reference atoms: (reference = -18598565.388050)

Kinetic:       +672.974594
Potential:     -680.082718
External:        +0.000000
XC:            -12039.458598
Entropy (-ST):   -0.372501
Local:           +4.533753
--------------------------
Free energy:   -12042.405470
Extrapolated:  -12042.219219

Showing only first 2 kpts
 Kpt  Band  Eigenvalues  Occupancy
  0   198     -5.78684    1.94926
  0   199     -5.62904    1.77601
  0   200     -5.46160    1.19550
  0   201     -5.18840    0.17639

  1   198     -6.28941    1.99966
  1   199     -6.03231    1.99554
  1   200     -5.83331    1.96782
  1   201     -5.62703    1.77199


Fermi level: -5.42199

No gap

Forces in eV/Ang:
  0 Au    0.01093   -0.00635   -0.15415
  1 Au    0.00898   -0.00039    0.12661
  2 Au    0.00964    0.02816    0.01579
  3 Au    0.00874   -0.00246   -0.00417
  4 Au   -0.01686   -0.02063   -0.14224
  5 Au   -0.00207    0.01086    0.07248
  6 Au    0.02047    0.00174   -0.01289
  7 Au    0.00510   -0.00694    0.00118
  8 Au    0.00274    0.02008   -0.14023
  9 Au    0.00878   -0.00507    0.07445
 10 Au    0.01124   -0.00631    0.01712
 11 Au   -0.00229    0.00409    0.00829
 12 Au   -0.01599   -0.01243   -0.14026
 13 Au   -0.01624   -0.03600    0.13521
 14 Au    0.00422   -0.00230   -0.00064
 15 Au   -0.00464    0.00023    0.00811
 16 Au   -0.00378   -0.00922   -0.11534
 17 Au   -0.02024    0.01170    0.13422
 18 Au    0.03030   -0.01752   -0.00646
 19 Au    0.00275   -0.00152    0.00693
 20 Au   -0.00648    0.00371   -0.06898
 21 Au   -0.01039   -0.00369    0.07245
 22 Au    0.00848   -0.01855   -0.01287
 23 Au   -0.00626    0.00275    0.00011
 24 Au    0.00944    0.02493   -0.14220
 25 Au   -0.00215    0.00123    0.12415
 26 Au   -0.01331    0.00751    0.00524
 27 Au    0.00799   -0.00087    0.00111
 28 Au    0.02791   -0.01611   -0.10703
 29 Au    0.02303    0.03202    0.13512
 30 Au    0.00390   -0.00286   -0.00030
 31 Au   -0.00493    0.00297    0.01415
 32 Au    0.00614    0.00791   -0.11530
 33 Au    0.00481   -0.00755    0.12659
 34 Au   -0.01957   -0.02216    0.01563
 35 Au   -0.00552   -0.00720    0.00941
 36 C     0.00752    0.00016    0.04794

BFGS:   18 02:30:38   -12042.219219        0.0485
Timing:                                      incl.     excl.
-------------------------------------------------------------------
Density initialized from wave functions:     8.162     8.162   0.1% |
 Symmetrize density:                         0.000     0.000   0.0% |
Forces:                                    269.827   269.827   3.1% ||
Hamiltonian:                                64.330     0.002   0.0% |
 Atomic:                                     0.004     0.004   0.0% |
  XC Correction:                             0.000     0.000   0.0% |
 Calculate atomic Hamiltonians:              0.005     0.005   0.0% |
 Communicate:                                3.376     3.376   0.0% |
 Hartree integrate/restrict:                 0.221     0.221   0.0% |
 Initialize Hamiltonian:                     0.000     0.000   0.0% |
 Poisson:                                    3.333     0.142   0.0% |
  Communicate from 1D:                       0.305     0.305   0.0% |
  Communicate from 2D:                       0.569     0.569   0.0% |
  Communicate to 1D:                         0.152     0.152   0.0% |
  Communicate to 2D:                         0.654     0.654   0.0% |
  FFT 1D:                                    0.792     0.792   0.0% |
  FFT 2D:                                    0.720     0.720   0.0% |
 XC 3D grid:                                57.339    14.581   0.2% |
  VdW-DF integral:                          42.758     2.844   0.0% |
   Convolution:                              4.610     4.610   0.1% |
   FFT:                                      2.807     2.807   0.0% |
   gather:                                  10.293    10.293   0.1% |
   hmm1:                                     0.841     0.841   0.0% |
   hmm2:                                     1.871     1.871   0.0% |
   iFFT:                                     2.702     2.702   0.0% |
   potential:                               13.066     0.344   0.0% |
    collect:                                 1.023     1.023   0.0% |
    p1:                                      7.927     7.927   0.1% |
    p2:                                      2.840     2.840   0.0% |
    sum:                                     0.932     0.932   0.0% |
   splines:                                  3.725     3.725   0.0% |
 vbar:                                       0.050     0.050   0.0% |
LCAO initialization:                         8.058     0.487   0.0% |
 LCAO eigensolver:                           1.919     0.001   0.0% |
  Calculate projections:                     0.000     0.000   0.0% |
  DenseAtomicCorrection:                     0.000     0.000   0.0% |
  Distribute overlap matrix:                 1.790     1.790   0.0% |
  Orbital Layouts:                           0.122     0.122   0.0% |
  Potential matrix:                          0.001     0.001   0.0% |
  Sum over cells:                            0.005     0.005   0.0% |
 LCAO to grid:                               5.050     5.050   0.1% |
 Set positions (LCAO WFS):                   0.603     0.497   0.0% |
  Basic WFS set positions:                   0.001     0.001   0.0% |
  Basis functions set positions:             0.000     0.000   0.0% |
  P tci:                                     0.000     0.000   0.0% |
  ST tci:                                    0.069     0.069   0.0% |
  mktci:                                     0.035     0.035   0.0% |
Redistribute:                                0.008     0.008   0.0% |
SCF-cycle:                                7860.317    39.778   0.5% |
 Davidson:                                6896.391  2450.433  28.3% |----------|
  Apply hamiltonian:                       158.222   158.222   1.8% ||
  Subspace diag:                           599.137     0.028   0.0% |
   calc_h_matrix:                          305.789   152.631   1.8% ||
    Apply hamiltonian:                     153.158   153.158   1.8% ||
   diagonalize:                              8.448     8.448   0.1% |
   rotate_psi:                             284.871   284.871   3.3% ||
  calc. matrices:                         3130.843   982.873  11.4% |----|
   Apply hamiltonian:                     2147.970  2147.970  24.8% |---------|
  diagonalize:                              48.301    48.301   0.6% |
  rotate_psi:                              509.456   509.456   5.9% |-|
 Density:                                   15.868     0.005   0.0% |
  Atomic density matrices:                   1.264     1.264   0.0% |
  Mix:                                       4.493     4.493   0.1% |
  Multipole moments:                         0.097     0.097   0.0% |
  Pseudo density:                           10.009    10.004   0.1% |
   Symmetrize density:                       0.006     0.006   0.0% |
 Hamiltonian:                              836.368     0.028   0.0% |
  Atomic:                                    0.052     0.051   0.0% |
   XC Correction:                            0.001     0.001   0.0% |
  Calculate atomic Hamiltonians:             0.066     0.066   0.0% |
  Communicate:                              46.777    46.777   0.5% |
  Hartree integrate/restrict:                2.996     2.996   0.0% |
  Poisson:                                  46.370     1.938   0.0% |
   Communicate from 1D:                      4.291     4.291   0.0% |
   Communicate from 2D:                      7.844     7.844   0.1% |
   Communicate to 1D:                        2.109     2.109   0.0% |
   Communicate to 2D:                        9.123     9.123   0.1% |
   FFT 1D:                                  11.048    11.048   0.1% |
   FFT 2D:                                  10.019    10.019   0.1% |
  XC 3D grid:                              739.560   200.923   2.3% ||
   VdW-DF integral:                        538.638    39.613   0.5% |
    Convolution:                            64.043    64.043   0.7% |
    FFT:                                    39.501    39.501   0.5% |
    gather:                                138.611   138.611   1.6% ||
    hmm1:                                   11.681    11.681   0.1% |
    hmm2:                                   26.064    26.064   0.3% |
    iFFT:                                   37.547    37.547   0.4% |
    potential:                             181.575     4.743   0.1% |
     collect:                               14.205    14.205   0.2% |
     p1:                                   109.914   109.914   1.3% ||
     p2:                                    39.425    39.425   0.5% |
     sum:                                   13.289    13.289   0.2% |
    splines:                                 0.001     0.001   0.0% |
  vbar:                                      0.518     0.518   0.0% |
 Orthonormalize:                            71.912     0.003   0.0% |
  calc_s_matrix:                             4.263     4.263   0.0% |
  inverse-cholesky:                         58.680    58.680   0.7% |
  projections:                               0.001     0.001   0.0% |
  rotate_psi_s:                              8.965     8.965   0.1% |
Set symmetry:                                0.001     0.001   0.0% |
Other:                                     440.180   440.180   5.1% |-|
-------------------------------------------------------------------
Total:                                              8650.884 100.0%

Memory usage: 1.52 GiB
Date: Thu Sep 28 02:30:38 2023
