
  ___ ___ ___ _ _ _  
 |   |   |_  | | | | 
 | | | | | . | | | | 
 |__ |  _|___|_____|  22.8.0
 |___|_|             

User:   s204775@c052.nifl.fysik.dtu.dk
Date:   Thu Sep 28 00:09:41 2023
Arch:   x86_64
Pid:    135725
CWD:    /home/cat/s204775/projects/Bachelor_project/C_missing_features
Python: 3.10.4
gpaw:   /home/modules/software/GPAW/22.8.0-intel-2022a/lib/python3.10/site-packages/gpaw
_gpaw:  /home/modules/software/GPAW/22.8.0-intel-2022a/lib/python3.10/site-packages/
        _gpaw.cpython-310-x86_64-linux-gnu.so
ase:    /home/modules/software/ASE/3.22.1-intel-2022a/lib/python3.10/site-packages/ase (version 3.22.1)
numpy:  /home/modules/software/SciPy-bundle/2022.05-intel-2022a/lib/python3.10/site-packages/numpy (version 1.22.3)
scipy:  /home/modules/software/SciPy-bundle/2022.05-intel-2022a/lib/python3.10/site-packages/scipy (version 1.8.1)
libxc:  5.2.3
units:  Angstrom and eV
cores: 40
OpenMP: False
OMP_NUM_THREADS: 1

Input parameters:
  basis: dzp
  h: 0.18
  kpts: {size: (4, 4, 1)}
  xc: BEEF-vdW

System changes: positions, numbers, cell, pbc, initial_charges, initial_magmoms 

Initialize ...

species:
  Cd:
    name: Cadmium
    id: b24f2afa1c5614a277213cf5a4209897
    Z: 48.0
    valence: 12
    core: 36
    charge: 0.0
    file: /home/modules/software/GPAW-setups/0.9.20000/Cd.PBE.gz
    compensation charges: {type: gauss,
                           rc: 0.38,
                           lmax: 2}
    cutoffs: {filter: 2.12,
              core: 2.62}
    valence states:
      #              energy  rcut
      - 5s(2.00)    -5.655   1.191
      - 5p(0.00)    -1.186   1.228
      - 4d(10.00)   -11.739   1.164
      -  s          21.556   1.191
      -  p          26.026   1.228
      -  d          15.473   1.164
  
    # LCAO basis set for Cd:
    #   Name: dzp
    #   File: /home/modules/software/GPAW-setups/0.9.20000/Cd.dzp.basis.gz
    #   Number of radial functions: 7
    #   Number of spherical harmonics: 21
    #     l=0, rc=8.5781 Bohr: 5s-sz confined orbital
    #     l=1, rc=12.6406 Bohr: 5p-sz confined orbital
    #     l=2, rc=4.9062 Bohr: 4d-sz confined orbital
    #     l=0, rc=5.0625 Bohr: 5s-dz split-valence wave
    #     l=1, rc=7.7188 Bohr: 5p-dz split-valence wave
    #     l=2, rc=2.9844 Bohr: 4d-dz split-valence wave
    #     l=1, rc=8.5781 Bohr: p-type Gaussian polarization
    #   Number of RI-basis functions 0

  C:
    name: Carbon
    id: 4aa54d4b901d75f77cc0ea3eec22967b
    Z: 6.0
    valence: 4
    core: 2
    charge: 0.0
    file: /home/modules/software/GPAW-setups/0.9.20000/C.PBE.gz
    compensation charges: {type: gauss,
                           rc: 0.20,
                           lmax: 2}
    cutoffs: {filter: 1.14,
              core: 1.14}
    valence states:
      #              energy  rcut
      - 2s(2.00)   -13.751   0.635
      - 2p(2.00)    -5.284   0.635
      -  s          13.461   0.635
      -  p          21.927   0.635
      -  d           0.000   0.635
  
    # LCAO basis set for C:
    #   Name: dzp
    #   File: /home/modules/software/GPAW-setups/0.9.20000/C.dzp.basis.gz
    #   Number of radial functions: 5
    #   Number of spherical harmonics: 13
    #     l=0, rc=5.5469 Bohr: 2s-sz confined orbital
    #     l=1, rc=6.6719 Bohr: 2p-sz confined orbital
    #     l=0, rc=3.0312 Bohr: 2s-dz split-valence wave
    #     l=1, rc=3.7500 Bohr: 2p-dz split-valence wave
    #     l=2, rc=6.6719 Bohr: d-type Gaussian polarization
    #   Number of RI-basis functions 0

Reference energy: -5479259.888227  # eV

Spin-paired calculation

Convergence criteria:
 Maximum [total energy] change in last 3 cyles: 0.0005 eV / electron
 Maximum integral of absolute [dens]ity change: 0.0001 electrons / valence electron
 Maximum integral of absolute [eigenst]ate change: 4e-08 eV^2 / valence electron
 Maximum number of scf [iter]ations: 333
 (Square brackets indicate name in SCF output, whereas a 'c' in
 the SCF output indicates the quantity has converged.)

Symmetries present (total): 2

  ( 1  1  0)  ( 1  0  0)
  ( 0 -1  0)  ( 0  1  0)
  ( 0  0  1)  ( 0  0  1)
Note: your k-points are not as symmetric as your crystal!

16 k-points: 4 x 4 x 1 Monkhorst-Pack grid
8 k-points in the irreducible part of the Brillouin zone
       k-points in crystal coordinates                weights
   0:     0.12500000   -0.37500000    0.00000000          2/16
   1:     0.12500000   -0.12500000    0.00000000          2/16
   2:     0.12500000    0.12500000    0.00000000          2/16
   3:     0.12500000    0.37500000    0.00000000          2/16
   4:     0.37500000   -0.37500000    0.00000000          2/16
   5:     0.37500000   -0.12500000    0.00000000          2/16
   6:     0.37500000    0.12500000    0.00000000          2/16
   7:     0.37500000    0.37500000    0.00000000          2/16

Wave functions: Uniform real-space grid
  Kinetic energy operator: 8*3+1=25 point O(h^6) finite-difference Laplacian
  ScaLapack parameters: grid=1x1, blocksize=None
  Wavefunction extrapolation:
    Improved wavefunction reuse through dual PAW basis 

Occupation numbers: Fermi-Dirac:
  width: 0.1000  # eV
 

Eigensolver
   Davidson(niter=2) 

Densities:
  Coarse grid: 48*48*156 grid
  Fine grid: 96*96*312 grid
  Total Charge: 0.000000 

Density mixing:
  Method: separate
  Backend: pulay
  Linear mixing parameter: 0.05
  old densities: 5
  Damping of long wavelength oscillations: 50 

Hamiltonian:
  XC and Coulomb potentials evaluated on a 96*96*312 grid
  Using the BEEF-vdW Exchange-Correlation functional
  Interpolation: tri-quintic (5. degree polynomial)
  Poisson solver: FastPoissonSolver using
    Stencil: 8*3+1=25 point O(h^6) finite-difference Laplacian
    FFT axes: [0, 1]
    FST axes: [2]
 

XC parameters: BEEF-vdW with 2 nearest neighbor stencil

Memory estimate:
  Process memory now: 236.29 MiB
  Calculator: 675.20 MiB
    Density: 60.07 MiB
      Arrays: 14.17 MiB
      Localized functions: 40.45 MiB
      Mixer: 5.45 MiB
    Hamiltonian: 12.12 MiB
      Arrays: 9.26 MiB
      XC: 0.00 MiB
      Poisson: 0.00 MiB
      vbar: 2.86 MiB
    Wavefunctions: 603.01 MiB
      Arrays psit_nG: 289.90 MiB
      Eigensolver: 306.15 MiB
      Projections: 0.54 MiB
      Projectors: 6.42 MiB

Total number of cores used: 40
Parallelization over k-points: 8
Domain decomposition: 1 x 1 x 5

Number of atoms: 37
Number of atomic orbitals: 769
Number of bands in calculation: 266
Number of valence electrons: 436
Bands to converge: occupied

... initialized

Initializing position-dependent things.

Density initialized from atomic densities
Creating initial wave functions:
  266 bands from LCAO basis set

                                                 
                                                 
                                                 
                                                 
                            C                    
                Cd      Cd      Cd               
                                                 
                   Cd     Cd      Cd             
                                                 
            Cd      CCd     Cd      Cd           
                                                 
              Cd      Cd      Cd                 
                Cd      Cd      Cd               
               Cd      Cd      Cd                
                                                 
                 Cd      Cd      Cd              
                   Cd      Cd      Cd            
           Cd      Cd     Cd                     
             Cd      Cd     Cd                   
                                                 
               Cd      Cd      Cd                
                                                 
                                                 
                                                 
                                                 

Positions:
   0 Cd     0.000000    0.000000   10.000000    ( 0.0000,  0.0000,  0.0000)
   1 Cd     1.600874    0.924265   12.614217    ( 0.0000,  0.0000,  0.0000)
   2 Cd    -0.000000    1.848530   15.313009    ( 0.0000,  0.0000,  0.0000)
   3 Cd     1.600875    2.772795   18.060029    ( 0.0000,  0.0000,  0.0000)
   4 Cd    -1.600874    2.772795   10.000000    ( 0.0000,  0.0000,  0.0000)
   5 Cd    -0.000000    3.697060   12.614217    ( 0.0000,  0.0000,  0.0000)
   6 Cd    -1.600874    4.621326   15.313008    ( 0.0000,  0.0000,  0.0000)
   7 Cd    -0.000000    5.545591   18.060030    ( 0.0000,  0.0000,  0.0000)
   8 Cd    -3.201748    5.545591   10.000000    ( 0.0000,  0.0000,  0.0000)
   9 Cd    -1.600874    6.469856   12.614217    ( 0.0000,  0.0000,  0.0000)
  10 Cd    -3.201749    7.394121   15.313009    ( 0.0000,  0.0000,  0.0000)
  11 Cd    -1.600874    8.318387   18.060029    ( 0.0000,  0.0000,  0.0000)
  12 Cd     3.201748    0.000000   10.000000    ( 0.0000,  0.0000,  0.0000)
  13 Cd     4.802622    0.924265   12.614217    ( 0.0000,  0.0000,  0.0000)
  14 Cd     3.201748    1.848530   15.313009    ( 0.0000,  0.0000,  0.0000)
  15 Cd     4.802622    2.772795   18.060029    ( 0.0000,  0.0000,  0.0000)
  16 Cd     1.600874    2.772795   10.000000    ( 0.0000,  0.0000,  0.0000)
  17 Cd     3.201748    3.697060   12.614217    ( 0.0000,  0.0000,  0.0000)
  18 Cd     1.600874    4.621326   15.313008    ( 0.0000,  0.0000,  0.0000)
  19 Cd     3.201749    5.545591   18.060029    ( 0.0000,  0.0000,  0.0000)
  20 Cd     0.000000    5.545591   10.000000    ( 0.0000,  0.0000,  0.0000)
  21 Cd     1.600874    6.469856   12.614217    ( 0.0000,  0.0000,  0.0000)
  22 Cd    -0.000000    7.394121   15.313008    ( 0.0000,  0.0000,  0.0000)
  23 Cd     1.600874    8.318387   18.060029    ( 0.0000,  0.0000,  0.0000)
  24 Cd     6.403497    0.000000   10.000000    ( 0.0000,  0.0000,  0.0000)
  25 Cd     8.004371    0.924265   12.614217    ( 0.0000,  0.0000,  0.0000)
  26 Cd     6.403497    1.848530   15.313009    ( 0.0000,  0.0000,  0.0000)
  27 Cd     8.004370    2.772795   18.060029    ( 0.0000,  0.0000,  0.0000)
  28 Cd     4.802622    2.772795   10.000000    ( 0.0000,  0.0000,  0.0000)
  29 Cd     6.403497    3.697060   12.614217    ( 0.0000,  0.0000,  0.0000)
  30 Cd     4.802622    4.621326   15.313009    ( 0.0000,  0.0000,  0.0000)
  31 Cd     6.403496    5.545591   18.060029    ( 0.0000,  0.0000,  0.0000)
  32 Cd     3.201748    5.545591   10.000000    ( 0.0000,  0.0000,  0.0000)
  33 Cd     4.802622    6.469856   12.614217    ( 0.0000,  0.0000,  0.0000)
  34 Cd     3.201749    7.394121   15.313009    ( 0.0000,  0.0000,  0.0000)
  35 Cd     4.802622    8.318386   18.060030    ( 0.0000,  0.0000,  0.0000)
  36 C      3.201749    7.394121   18.984294    ( 0.0000,  0.0000,  0.0000)

Unit cell:
           periodic     x           y           z      points  spacing
  1. axis:    yes    9.605245    0.000000    0.000000    48     0.1733
  2. axis:    yes   -4.802622    8.318386    0.000000    48     0.1733
  3. axis:    no     0.000000    0.000000   27.842650   156     0.1785

  Lengths:   9.605245   9.605245  27.842650
  Angles:   90.000000  90.000000 120.000000

Effective grid spacing dv^(1/3) = 0.1836

     iter     time        total  log10-change:
                         energy  eigst   dens
iter:   1 00:10:50 -5454.008102
iter:   2 00:11:22 -5453.085666  -0.82  -1.33
iter:   3 00:11:54 -5452.197859  -1.31  -1.35
iter:   4 00:12:25 -5454.060776  -1.31  -1.43
iter:   5 00:12:57 -5452.806566  -1.40  -1.42
iter:   6 00:13:29 -5452.870270  -1.40  -1.72
iter:   7 00:14:01 -5452.548050  -2.18  -2.08
iter:   8 00:14:33 -5452.433304  -2.37  -2.27
iter:   9 00:15:05 -5452.386830c -2.94  -2.38
iter:  10 00:15:37 -5452.283135c -2.74  -2.45
iter:  11 00:16:08 -5452.258694c -2.93  -2.63
iter:  12 00:16:40 -5452.249755c -3.42  -2.76
iter:  13 00:17:12 -5452.247343c -3.54  -2.81
iter:  14 00:17:44 -5452.245805c -4.11  -2.98
iter:  15 00:18:16 -5452.247645c -4.12  -3.04
iter:  16 00:18:48 -5452.248255c -4.29  -3.21
iter:  17 00:19:20 -5452.247874c -4.75  -3.43
iter:  18 00:19:51 -5452.247713c -5.31  -3.56
iter:  19 00:20:23 -5452.247843c -5.25  -3.62
iter:  20 00:20:55 -5452.247839c -5.52  -3.80
iter:  21 00:21:27 -5452.247811c -5.43  -3.87
iter:  22 00:21:59 -5452.247813c -6.58  -4.13c
iter:  23 00:22:31 -5452.247801c -6.64  -4.18c
iter:  24 00:23:03 -5452.247790c -6.70  -4.26c
iter:  25 00:23:34 -5452.247795c -6.87  -4.41c
iter:  26 00:24:06 -5452.247802c -7.23  -4.48c
iter:  27 00:24:38 -5452.247801c -7.01  -4.56c
iter:  28 00:25:10 -5452.247801c -7.59c -4.74c

Converged after 28 iterations.

Dipole moment: (-6.727049, -9.023856, -0.273964) |e|*Ang

Energy contributions relative to reference atoms: (reference = -5479259.888227)

Kinetic:       +1042.445894
Potential:     -938.098008
External:        +0.000000
XC:            -5559.524810
Entropy (-ST):   -0.483130
Local:           +3.170688
--------------------------
Free energy:   -5452.489366
Extrapolated:  -5452.247801

Showing only first 2 kpts
 Kpt  Band  Eigenvalues  Occupancy
  0   216     -4.55136    1.64251
  0   217     -4.46069    1.29959
  0   218     -4.29407    0.51920
  0   219     -4.14921    0.15219

  1   216     -4.27088    0.43512
  1   217     -4.21507    0.27457
  1   218     -3.99071    0.03320
  1   219     -3.75015    0.00304


Fermi level: -4.39887

No gap

Forces in eV/Ang:
  0 Cd   -0.01175   -0.00678   -0.21950
  1 Cd    0.01675    0.00967    0.21677
  2 Cd    0.01372   -0.00199    0.00262
  3 Cd    0.00607   -0.00080   -0.02973
  4 Cd   -0.01353    0.02998   -0.25735
  5 Cd    0.00340   -0.00364    0.23325
  6 Cd   -0.01174   -0.00678   -0.09102
  7 Cd   -0.11323   -0.06537   -0.03667
  8 Cd    0.01920   -0.02671   -0.25735
  9 Cd   -0.00146    0.00476    0.23325
 10 Cd    0.00513    0.01288    0.00262
 11 Cd    0.00235    0.00565   -0.02973
 12 Cd    0.00436    0.00703   -0.22575
 13 Cd   -0.01663    0.01480    0.21690
 14 Cd    0.01309    0.00756   -0.08761
 15 Cd    0.00454    0.00262   -0.02499
 16 Cd    0.00827    0.00026   -0.22575
 17 Cd    0.00450   -0.02180    0.21690
 18 Cd    0.02199   -0.01939    0.00330
 19 Cd    0.00536   -1.80789   -0.39899
 20 Cd   -0.03136   -0.01810   -0.24225
 21 Cd   -0.00724   -0.00418    0.22709
 22 Cd   -0.00580    0.02874    0.00330
 23 Cd   -1.56300    0.90859   -0.39899
 24 Cd    0.00765    0.00629   -0.21758
 25 Cd   -0.00017    0.01270    0.22664
 26 Cd   -0.02238   -0.00151    0.00815
 27 Cd   -0.01415    0.13119   -0.03704
 28 Cd    0.00287    0.00166   -0.23378
 29 Cd   -0.00609   -0.00351    0.22992
 30 Cd   -0.01250   -0.01863    0.00815
 31 Cd    0.10654   -0.07785   -0.03704
 32 Cd    0.00927    0.00348   -0.21758
 33 Cd    0.01091   -0.00650    0.22664
 34 Cd    0.00161    0.00093    0.00691
 35 Cd    1.55818    0.89962   -0.39705
 36 C     0.00525    0.00303    1.37421

      Step     Time          Energy         fmax
BFGS:    0 00:25:23    -5452.247801        1.8514
System changes: positions 

Initializing position-dependent things.

Density initialized from wave functions
                                                 
                                                 
                                                 
                                                 
                            C                    
                Cd      Cd      Cd               
                                                 
                   Cd     Cd      Cd             
                                                 
            Cd      CCd     Cd      Cd           
                                                 
              Cd      Cd      Cd                 
                                                 
               CCd     CCd     CCd               
                                                 
                 Cd      Cd      Cd              
                   Cd      Cd      Cd            
           Cd      Cd     Cd                     
             Cd      Cd     Cd                   
                                                 
               Cd      Cd      Cd                
                                                 
                                                 
                                                 
                                                 

Positions:
   0 Cd     0.000000    0.000000   10.000000    ( 0.0000,  0.0000,  0.0000)
   1 Cd     1.600874    0.924265   12.614217    ( 0.0000,  0.0000,  0.0000)
   2 Cd     0.000196    1.848502   15.313046    ( 0.0000,  0.0000,  0.0000)
   3 Cd     1.600961    2.772784   18.059604    ( 0.0000,  0.0000,  0.0000)
   4 Cd    -1.600874    2.772795   10.000000    ( 0.0000,  0.0000,  0.0000)
   5 Cd    -0.000000    3.697060   12.614217    ( 0.0000,  0.0000,  0.0000)
   6 Cd    -1.601042    4.621229   15.311708    ( 0.0000,  0.0000,  0.0000)
   7 Cd    -0.001618    5.544657   18.059506    ( 0.0000,  0.0000,  0.0000)
   8 Cd    -3.201748    5.545591   10.000000    ( 0.0000,  0.0000,  0.0000)
   9 Cd    -1.600874    6.469856   12.614217    ( 0.0000,  0.0000,  0.0000)
  10 Cd    -3.201675    7.394305   15.313046    ( 0.0000,  0.0000,  0.0000)
  11 Cd    -1.600841    8.318467   18.059604    ( 0.0000,  0.0000,  0.0000)
  12 Cd     3.201748    0.000000   10.000000    ( 0.0000,  0.0000,  0.0000)
  13 Cd     4.802622    0.924265   12.614217    ( 0.0000,  0.0000,  0.0000)
  14 Cd     3.201935    1.848638   15.311758    ( 0.0000,  0.0000,  0.0000)
  15 Cd     4.802687    2.772833   18.059672    ( 0.0000,  0.0000,  0.0000)
  16 Cd     1.600874    2.772795   10.000000    ( 0.0000,  0.0000,  0.0000)
  17 Cd     3.201748    3.697060   12.614217    ( 0.0000,  0.0000,  0.0000)
  18 Cd     1.601188    4.621049   15.313056    ( 0.0000,  0.0000,  0.0000)
  19 Cd     3.201825    5.519764   18.054329    ( 0.0000,  0.0000,  0.0000)
  20 Cd     0.000000    5.545591   10.000000    ( 0.0000,  0.0000,  0.0000)
  21 Cd     1.600874    6.469856   12.614217    ( 0.0000,  0.0000,  0.0000)
  22 Cd    -0.000083    7.394531   15.313056    ( 0.0000,  0.0000,  0.0000)
  23 Cd     1.578546    8.331366   18.054329    ( 0.0000,  0.0000,  0.0000)
  24 Cd     6.403497    0.000000   10.000000    ( 0.0000,  0.0000,  0.0000)
  25 Cd     8.004371    0.924265   12.614217    ( 0.0000,  0.0000,  0.0000)
  26 Cd     6.403177    1.848509   15.313126    ( 0.0000,  0.0000,  0.0000)
  27 Cd     8.004168    2.774669   18.059500    ( 0.0000,  0.0000,  0.0000)
  28 Cd     4.802622    2.772795   10.000000    ( 0.0000,  0.0000,  0.0000)
  29 Cd     6.403497    3.697060   12.614217    ( 0.0000,  0.0000,  0.0000)
  30 Cd     4.802444    4.621059   15.313126    ( 0.0000,  0.0000,  0.0000)
  31 Cd     6.405018    5.544478   18.059500    ( 0.0000,  0.0000,  0.0000)
  32 Cd     3.201748    5.545591   10.000000    ( 0.0000,  0.0000,  0.0000)
  33 Cd     4.802622    6.469856   12.614217    ( 0.0000,  0.0000,  0.0000)
  34 Cd     3.201772    7.394134   15.313108    ( 0.0000,  0.0000,  0.0000)
  35 Cd     4.824882    8.331238   18.054358    ( 0.0000,  0.0000,  0.0000)
  36 C      3.201824    7.394165   19.003926    ( 0.0000,  0.0000,  0.0000)

Unit cell:
           periodic     x           y           z      points  spacing
  1. axis:    yes    9.605245    0.000000    0.000000    48     0.1733
  2. axis:    yes   -4.802622    8.318386    0.000000    48     0.1733
  3. axis:    no     0.000000    0.000000   27.842650   156     0.1785

  Lengths:   9.605245   9.605245  27.842650
  Angles:   90.000000  90.000000 120.000000

Effective grid spacing dv^(1/3) = 0.1836

     iter     time        total  log10-change:
                         energy  eigst   dens
iter:   1 00:26:27 -5452.503468  -2.13
iter:   2 00:26:59 -5452.426995  -3.15  -2.62
iter:   3 00:27:31 -5452.405963c -3.40  -2.76
iter:   4 00:28:04 -5452.398466c -3.63  -3.07
iter:   5 00:28:35 -5452.396828c -4.05  -3.31
iter:   6 00:29:07 -5452.395752c -4.02  -3.43
iter:   7 00:29:40 -5452.395132c -4.70  -3.53
iter:   8 00:30:12 -5452.395066c -5.22  -3.74
iter:   9 00:30:44 -5452.395007c -5.34  -3.82
iter:  10 00:31:16 -5452.394972c -5.77  -4.09c
iter:  11 00:31:48 -5452.394961c -5.96  -4.11c
iter:  12 00:32:20 -5452.394967c -6.19  -4.27c
iter:  13 00:32:52 -5452.394981c -6.52  -4.41c
iter:  14 00:33:24 -5452.394992c -6.72  -4.47c
iter:  15 00:33:56 -5452.394988c -7.04  -4.72c
iter:  16 00:34:28 -5452.394980c -7.55c -4.88c

Converged after 16 iterations.

Dipole moment: (-7.571314, -10.292727, -0.282342) |e|*Ang

Energy contributions relative to reference atoms: (reference = -5479259.888227)

Kinetic:       +1039.992978
Potential:     -936.199939
External:        +0.000000
XC:            -5559.121110
Entropy (-ST):   -0.484890
Local:           +3.175535
--------------------------
Free energy:   -5452.637425
Extrapolated:  -5452.394980

Showing only first 2 kpts
 Kpt  Band  Eigenvalues  Occupancy
  0   216     -4.55666    1.63777
  0   217     -4.46221    1.27487
  0   218     -4.30163    0.52173
  0   219     -4.15733    0.15390

  1   216     -4.27695    0.43228
  1   217     -4.21952    0.26879
  1   218     -3.98624    0.02968
  1   219     -3.75887    0.00310


Fermi level: -4.40578

No gap

Forces in eV/Ang:
  0 Cd   -0.01221   -0.00705   -0.21664
  1 Cd    0.01719    0.00992    0.21503
  2 Cd    0.01107    0.00102   -0.00301
  3 Cd    0.00458   -0.00013   -0.03053
  4 Cd   -0.01368    0.02921   -0.25360
  5 Cd    0.00490   -0.00426    0.23208
  6 Cd   -0.01101   -0.00636   -0.08756
  7 Cd   -0.10028   -0.05790   -0.03773
  8 Cd    0.01845   -0.02646   -0.25360
  9 Cd   -0.00124    0.00638    0.23208
 10 Cd    0.00642    0.00907   -0.00301
 11 Cd    0.00218    0.00403   -0.03053
 12 Cd    0.00442    0.00828   -0.22163
 13 Cd   -0.01699    0.01516    0.21494
 14 Cd    0.01259    0.00727   -0.08454
 15 Cd    0.00520    0.00300   -0.02535
 16 Cd    0.00938   -0.00032   -0.22163
 17 Cd    0.00463   -0.02229    0.21494
 18 Cd    0.01717   -0.01780   -0.00260
 19 Cd    0.00455   -1.32920   -0.21585
 20 Cd   -0.03066   -0.01770   -0.23843
 21 Cd   -0.00679   -0.00392    0.22894
 22 Cd   -0.00683    0.02377   -0.00260
 23 Cd   -1.14884    0.66854   -0.21585
 24 Cd    0.00798    0.00612   -0.21466
 25 Cd   -0.00029    0.01195    0.22812
 26 Cd   -0.01908    0.00122    0.00209
 27 Cd   -0.01330    0.11635   -0.03770
 28 Cd    0.00216    0.00125   -0.22961
 29 Cd   -0.00762   -0.00440    0.22838
 30 Cd   -0.00848   -0.01713    0.00209
 31 Cd    0.09411   -0.06969   -0.03770
 32 Cd    0.00929    0.00385   -0.21466
 33 Cd    0.01021   -0.00623    0.22812
 34 Cd    0.00128    0.00074    0.02650
 35 Cd    1.14546    0.66133   -0.21485
 36 C     0.00365    0.00211    0.81984

BFGS:    1 00:34:42    -5452.394980        1.3466
System changes: positions 

Initializing position-dependent things.

Density initialized from wave functions
                                                 
                                                 
                                                 
                                                 
                            C                    
                Cd      Cd      Cd               
                                                 
                   Cd     Cd      Cd             
                                                 
            Cd      CCd     Cd      Cd           
                                                 
              Cd      Cd      Cd                 
                                                 
               CCd     CCd     CCd               
                                                 
                 Cd      Cd      Cd              
                   Cd      Cd      Cd            
           Cd      Cd     Cd                     
             Cd      Cd     Cd                   
                                                 
               Cd      Cd      Cd                
                                                 
                                                 
                                                 
                                                 

Positions:
   0 Cd     0.000000    0.000000   10.000000    ( 0.0000,  0.0000,  0.0000)
   1 Cd     1.600874    0.924265   12.614217    ( 0.0000,  0.0000,  0.0000)
   2 Cd     0.000745    1.848550   15.312901    ( 0.0000,  0.0000,  0.0000)
   3 Cd     1.601189    2.772777   18.058095    ( 0.0000,  0.0000,  0.0000)
   4 Cd    -1.600874    2.772795   10.000000    ( 0.0000,  0.0000,  0.0000)
   5 Cd    -0.000000    3.697060   12.614217    ( 0.0000,  0.0000,  0.0000)
   6 Cd    -1.601587    4.620914   15.307375    ( 0.0000,  0.0000,  0.0000)
   7 Cd    -0.006587    5.541788   18.057641    ( 0.0000,  0.0000,  0.0000)
   8 Cd    -3.201748    5.545591   10.000000    ( 0.0000,  0.0000,  0.0000)
   9 Cd    -1.600874    6.469856   12.614217    ( 0.0000,  0.0000,  0.0000)
  10 Cd    -3.201359    7.394756   15.312901    ( 0.0000,  0.0000,  0.0000)
  11 Cd    -1.600733    8.318668   18.058095    ( 0.0000,  0.0000,  0.0000)
  12 Cd     3.201748    0.000000   10.000000    ( 0.0000,  0.0000,  0.0000)
  13 Cd     4.802622    0.924265   12.614217    ( 0.0000,  0.0000,  0.0000)
  14 Cd     3.202558    1.848998   15.307574    ( 0.0000,  0.0000,  0.0000)
  15 Cd     4.802944    2.772981   18.058418    ( 0.0000,  0.0000,  0.0000)
  16 Cd     1.600874    2.772795   10.000000    ( 0.0000,  0.0000,  0.0000)
  17 Cd     3.201748    3.697060   12.614217    ( 0.0000,  0.0000,  0.0000)
  18 Cd     1.602041    4.620167   15.312931    ( 0.0000,  0.0000,  0.0000)
  19 Cd     3.202051    5.453699   18.043532    ( 0.0000,  0.0000,  0.0000)
  20 Cd     0.000000    5.545591   10.000000    ( 0.0000,  0.0000,  0.0000)
  21 Cd     1.600874    6.469856   12.614217    ( 0.0000,  0.0000,  0.0000)
  22 Cd    -0.000420    7.395711   15.312931    ( 0.0000,  0.0000,  0.0000)
  23 Cd     1.521445    8.364594   18.043532    ( 0.0000,  0.0000,  0.0000)
  24 Cd     6.403497    0.000000   10.000000    ( 0.0000,  0.0000,  0.0000)
  25 Cd     8.004371    0.924265   12.614217    ( 0.0000,  0.0000,  0.0000)
  26 Cd     6.402231    1.848567   15.313233    ( 0.0000,  0.0000,  0.0000)
  27 Cd     8.003510    2.780434   18.057636    ( 0.0000,  0.0000,  0.0000)
  28 Cd     4.802622    2.772795   10.000000    ( 0.0000,  0.0000,  0.0000)
  29 Cd     6.403497    3.697060   12.614217    ( 0.0000,  0.0000,  0.0000)
  30 Cd     4.802022    4.620211   15.313233    ( 0.0000,  0.0000,  0.0000)
  31 Cd     6.409682    5.541026   18.057636    ( 0.0000,  0.0000,  0.0000)
  32 Cd     3.201748    5.545591   10.000000    ( 0.0000,  0.0000,  0.0000)
  33 Cd     4.802622    6.469856   12.614217    ( 0.0000,  0.0000,  0.0000)
  34 Cd     3.201835    7.394171   15.314406    ( 0.0000,  0.0000,  0.0000)
  35 Cd     4.881814    8.364108   18.043610    ( 0.0000,  0.0000,  0.0000)
  36 C      3.202006    7.394269   19.044844    ( 0.0000,  0.0000,  0.0000)

Unit cell:
           periodic     x           y           z      points  spacing
  1. axis:    yes    9.605245    0.000000    0.000000    48     0.1733
  2. axis:    yes   -4.802622    8.318386    0.000000    48     0.1733
  3. axis:    no     0.000000    0.000000   27.842650   156     0.1785

  Lengths:   9.605245   9.605245  27.842650
  Angles:   90.000000  90.000000 120.000000

Effective grid spacing dv^(1/3) = 0.1836

     iter     time        total  log10-change:
                         energy  eigst   dens
iter:   1 00:35:46 -5453.148081  -1.38
iter:   2 00:36:18 -5452.762370  -2.42  -2.27
iter:   3 00:36:50 -5452.633031  -2.59  -2.40
iter:   4 00:37:22 -5452.603574c -2.93  -2.71
iter:   5 00:37:54 -5452.597997c -3.38  -2.93
iter:   6 00:38:26 -5452.587882c -3.34  -2.99
iter:   7 00:38:58 -5452.585059c -3.87  -3.16
iter:   8 00:39:30 -5452.584772c -4.36  -3.36
iter:   9 00:40:02 -5452.584501c -4.73  -3.43
iter:  10 00:40:34 -5452.584410c -4.90  -3.63
iter:  11 00:41:06 -5452.584326c -5.39  -3.72
iter:  12 00:41:39 -5452.584338c -5.46  -3.92
iter:  13 00:42:11 -5452.584436c -5.50  -4.04c
iter:  14 00:42:43 -5452.584447c -5.94  -4.09c
iter:  15 00:43:15 -5452.584424c -6.28  -4.21c
iter:  16 00:43:47 -5452.584416c -6.56  -4.37c
iter:  17 00:44:18 -5452.584418c -6.57  -4.45c
iter:  18 00:44:51 -5452.584406c -6.69  -4.67c
iter:  19 00:45:23 -5452.584407c -7.29  -4.86c
iter:  20 00:45:55 -5452.584407c -8.05c -4.98c

Converged after 20 iterations.

Dipole moment: (-9.520498, -13.431973, -0.297202) |e|*Ang

Energy contributions relative to reference atoms: (reference = -5479259.888227)

Kinetic:       +1035.129915
Potential:     -932.324472
External:        +0.000000
XC:            -5558.319453
Entropy (-ST):   -0.489120
Local:           +3.174163
--------------------------
Free energy:   -5452.828967
Extrapolated:  -5452.584407

Showing only first 2 kpts
 Kpt  Band  Eigenvalues  Occupancy
  0   216     -4.56405    1.62493
  0   217     -4.46031    1.21111
  0   218     -4.31512    0.52883
  0   219     -4.17334    0.16020

  1   216     -4.28605    0.42368
  1   217     -4.22445    0.25351
  1   218     -3.97112    0.02279
  1   219     -3.77472    0.00323


Fermi level: -4.41744

No gap

Forces in eV/Ang:
  0 Cd   -0.01489   -0.00859   -0.21695
  1 Cd    0.01755    0.01013    0.21222
  2 Cd    0.00188    0.00845   -0.01647
  3 Cd   -0.00485    0.00402   -0.02578
  4 Cd   -0.01425    0.02667   -0.25278
  5 Cd    0.00666   -0.00478    0.23305
  6 Cd   -0.00837   -0.00483   -0.08046
  7 Cd   -0.05321   -0.03072   -0.03103
  8 Cd    0.01597   -0.02568   -0.25278
  9 Cd   -0.00081    0.00815    0.23305
 10 Cd    0.00826   -0.00260   -0.01647
 11 Cd    0.00106   -0.00621   -0.02578
 12 Cd    0.00463    0.00961   -0.22242
 13 Cd   -0.01700    0.01547    0.21123
 14 Cd    0.01053    0.00608   -0.08243
 15 Cd    0.01183    0.00683   -0.01960
 16 Cd    0.01064   -0.00079   -0.22242
 17 Cd    0.00490   -0.02245    0.21123
 18 Cd    0.00358   -0.01119   -0.01684
 19 Cd    0.00282   -0.48595    0.14846
 20 Cd   -0.02841   -0.01640   -0.23771
 21 Cd   -0.00558   -0.00322    0.22759
 22 Cd   -0.00790    0.00869   -0.01684
 23 Cd   -0.41944    0.24542    0.14846
 24 Cd    0.01023    0.00508   -0.21497
 25 Cd   -0.00060    0.01017    0.22556
 26 Cd   -0.00801    0.00802   -0.01289
 27 Cd   -0.01016    0.06246   -0.02990
 28 Cd    0.00191    0.00110   -0.23018
 29 Cd   -0.00967   -0.00559    0.22780
 30 Cd    0.00294   -0.01095   -0.01289
 31 Cd    0.04901   -0.04003   -0.02990
 32 Cd    0.00951    0.00632   -0.21497
 33 Cd    0.00851   -0.00560    0.22556
 34 Cd    0.00044    0.00026    0.09828
 35 Cd    0.41874    0.24176    0.14858
 36 C     0.00170    0.00098   -0.14003

BFGS:    2 00:46:09    -5452.584407        0.5081
System changes: positions 

Initializing position-dependent things.

Density initialized from wave functions
                                                 
                                                 
                                                 
                                                 
                            C                    
                Cd      Cd      Cd               
                                                 
                   Cd     Cd      Cd             
                                                 
            Cd      CCd     Cd      Cd           
                                                 
              Cd      Cd      Cd                 
                                                 
               CCd     CCd     CCd               
                                                 
                 Cd      Cd      Cd              
                   Cd      Cd      Cd            
           Cd      Cd     Cd                     
             Cd      Cd     Cd                   
                                                 
               Cd      Cd      Cd                
                                                 
                                                 
                                                 
                                                 

Positions:
   0 Cd     0.000000    0.000000   10.000000    ( 0.0000,  0.0000,  0.0000)
   1 Cd     1.600874    0.924265   12.614217    ( 0.0000,  0.0000,  0.0000)
   2 Cd     0.000954    1.848732   15.312531    ( 0.0000,  0.0000,  0.0000)
   3 Cd     1.601163    2.772855   18.057113    ( 0.0000,  0.0000,  0.0000)
   4 Cd    -1.600874    2.772795   10.000000    ( 0.0000,  0.0000,  0.0000)
   5 Cd    -0.000000    3.697060   12.614217    ( 0.0000,  0.0000,  0.0000)
   6 Cd    -1.601924    4.620720   15.304422    ( 0.0000,  0.0000,  0.0000)
   7 Cd    -0.009198    5.540281   18.056444    ( 0.0000,  0.0000,  0.0000)
   8 Cd    -3.201748    5.545591   10.000000    ( 0.0000,  0.0000,  0.0000)
   9 Cd    -1.600874    6.469856   12.614217    ( 0.0000,  0.0000,  0.0000)
  10 Cd    -3.201096    7.394847   15.312531    ( 0.0000,  0.0000,  0.0000)
  11 Cd    -1.600678    8.318607   18.057113    ( 0.0000,  0.0000,  0.0000)
  12 Cd     3.201748    0.000000   10.000000    ( 0.0000,  0.0000,  0.0000)
  13 Cd     4.802622    0.924265   12.614217    ( 0.0000,  0.0000,  0.0000)
  14 Cd     3.202962    1.849231   15.304628    ( 0.0000,  0.0000,  0.0000)
  15 Cd     4.803260    2.773163   18.057639    ( 0.0000,  0.0000,  0.0000)
  16 Cd     1.600874    2.772795   10.000000    ( 0.0000,  0.0000,  0.0000)
  17 Cd     3.201748    3.697060   12.614217    ( 0.0000,  0.0000,  0.0000)
  18 Cd     1.602380    4.619669   15.312560    ( 0.0000,  0.0000,  0.0000)
  19 Cd     3.202178    5.423191   18.043028    ( 0.0000,  0.0000,  0.0000)
  20 Cd     0.000000    5.545591   10.000000    ( 0.0000,  0.0000,  0.0000)
  21 Cd     1.600874    6.469856   12.614217    ( 0.0000,  0.0000,  0.0000)
  22 Cd    -0.000682    7.396253   15.312560    ( 0.0000,  0.0000,  0.0000)
  23 Cd     1.495087    8.379958   18.043028    ( 0.0000,  0.0000,  0.0000)
  24 Cd     6.403497    0.000000   10.000000    ( 0.0000,  0.0000,  0.0000)
  25 Cd     8.004371    0.924265   12.614217    ( 0.0000,  0.0000,  0.0000)
  26 Cd     6.401776    1.848744   15.313013    ( 0.0000,  0.0000,  0.0000)
  27 Cd     8.003102    2.783478   18.056461    ( 0.0000,  0.0000,  0.0000)
  28 Cd     4.802622    2.772795   10.000000    ( 0.0000,  0.0000,  0.0000)
  29 Cd     6.403497    3.697060   12.614217    ( 0.0000,  0.0000,  0.0000)
  30 Cd     4.801947    4.619728   15.313013    ( 0.0000,  0.0000,  0.0000)
  31 Cd     6.412114    5.539151   18.056461    ( 0.0000,  0.0000,  0.0000)
  32 Cd     3.201748    5.545591   10.000000    ( 0.0000,  0.0000,  0.0000)
  33 Cd     4.802622    6.469856   12.614217    ( 0.0000,  0.0000,  0.0000)
  34 Cd     3.201864    7.394188   15.316760    ( 0.0000,  0.0000,  0.0000)
  35 Cd     4.908105    8.379286   18.043125    ( 0.0000,  0.0000,  0.0000)
  36 C      3.202097    7.394322   19.055107    ( 0.0000,  0.0000,  0.0000)

Unit cell:
           periodic     x           y           z      points  spacing
  1. axis:    yes    9.605245    0.000000    0.000000    48     0.1733
  2. axis:    yes   -4.802622    8.318386    0.000000    48     0.1733
  3. axis:    no     0.000000    0.000000   27.842650   156     0.1785

  Lengths:   9.605245   9.605245  27.842650
  Angles:   90.000000  90.000000 120.000000

Effective grid spacing dv^(1/3) = 0.1836

     iter     time        total  log10-change:
                         energy  eigst   dens
iter:   1 00:47:13 -5452.682967  -2.11
iter:   2 00:47:45 -5452.635590  -3.15  -2.71
iter:   3 00:48:17 -5452.618895c -3.44  -2.85
iter:   4 00:48:49 -5452.614435c -3.76  -3.13
iter:   5 00:49:21 -5452.612735c -4.03  -3.32
iter:   6 00:49:53 -5452.612118c -4.14  -3.48
iter:   7 00:50:25 -5452.611809c -4.89  -3.60
iter:   8 00:50:57 -5452.611778c -5.40  -3.74
iter:   9 00:51:30 -5452.611756c -5.37  -3.82
iter:  10 00:52:02 -5452.611746c -5.91  -4.08c
iter:  11 00:52:34 -5452.611769c -6.08  -4.20c
iter:  12 00:53:06 -5452.611761c -6.44  -4.39c
iter:  13 00:53:38 -5452.611765c -7.01  -4.42c
iter:  14 00:54:10 -5452.611764c -6.51  -4.45c
iter:  15 00:54:42 -5452.611768c -7.35  -4.83c
iter:  16 00:55:14 -5452.611768c -7.67c -4.89c

Converged after 16 iterations.

Dipole moment: (-10.259472, -14.812617, -0.299893) |e|*Ang

Energy contributions relative to reference atoms: (reference = -5479259.888227)

Kinetic:       +1033.639193
Potential:     -931.130715
External:        +0.000000
XC:            -5558.048766
Entropy (-ST):   -0.490535
Local:           +3.173787
--------------------------
Free energy:   -5452.857036
Extrapolated:  -5452.611768

Showing only first 2 kpts
 Kpt  Band  Eigenvalues  Occupancy
  0   216     -4.56487    1.62078
  0   217     -4.45657    1.18270
  0   218     -4.31800    0.53158
  0   219     -4.17826    0.16430

  1   216     -4.28747    0.42118
  1   217     -4.22376    0.24725
  1   218     -3.96265    0.02051
  1   219     -3.77810    0.00327


Fermi level: -4.41961

No gap

Forces in eV/Ang:
  0 Cd   -0.01426   -0.00823   -0.21689
  1 Cd    0.01588    0.00917    0.21001
  2 Cd   -0.00288    0.01003   -0.02197
  3 Cd   -0.00628    0.00416   -0.02451
  4 Cd   -0.01454    0.02668   -0.25208
  5 Cd    0.00796   -0.00527    0.23184
  6 Cd   -0.00698   -0.00403   -0.07056
  7 Cd   -0.03572   -0.02062   -0.03062
  8 Cd    0.01584   -0.02594   -0.25208
  9 Cd   -0.00058    0.00953    0.23184
 10 Cd    0.00724   -0.00751   -0.02197
 11 Cd    0.00046   -0.00752   -0.02451
 12 Cd    0.00479    0.01134   -0.22236
 13 Cd   -0.01509    0.01452    0.20846
 14 Cd    0.00937    0.00541   -0.07166
 15 Cd    0.01168    0.00674   -0.01787
 16 Cd    0.01221   -0.00152   -0.22236
 17 Cd    0.00503   -0.02033    0.20846
 18 Cd   -0.00179   -0.00650   -0.02280
 19 Cd    0.00179   -0.18703    0.24808
 20 Cd   -0.02836   -0.01638   -0.23697
 21 Cd   -0.00272   -0.00157    0.23278
 22 Cd   -0.00652    0.00170   -0.02280
 23 Cd   -0.16107    0.09506    0.24808
 24 Cd    0.00935    0.00563   -0.21486
 25 Cd   -0.00080    0.00674    0.23025
 26 Cd   -0.00199    0.00923   -0.01919
 27 Cd   -0.00833    0.04230   -0.02884
 28 Cd    0.00086    0.00050   -0.23006
 29 Cd   -0.01113   -0.00643    0.22582
 30 Cd    0.00700   -0.00634   -0.01919
 31 Cd    0.03247   -0.02836   -0.02884
 32 Cd    0.00955    0.00528   -0.21486
 33 Cd    0.00544   -0.00406    0.23025
 34 Cd    0.00003    0.00002    0.11709
 35 Cd    0.16066    0.09276    0.24786
 36 C     0.00169    0.00098   -0.42970

BFGS:    3 00:55:28    -5452.611768        0.4297
System changes: positions 

Initializing position-dependent things.

Density initialized from wave functions
                                                 
                                                 
                                                 
                                                 
                            C                    
                Cd      Cd      Cd               
                                                 
                  Cd      Cd      Cd             
                                                 
            Cd      CCd     Cd      Cd           
                                                 
              Cd      Cd      Cd                 
                                                 
               CCd     CCd     CCd               
                                                 
                 Cd      Cd      Cd              
                   Cd      Cd      Cd            
           Cd      Cd     Cd                     
             Cd      Cd     Cd                   
                                                 
               Cd      Cd      Cd                
                                                 
                                                 
                                                 
                                                 

Positions:
   0 Cd     0.000000    0.000000   10.000000    ( 0.0000,  0.0000,  0.0000)
   1 Cd     1.600874    0.924265   12.614217    ( 0.0000,  0.0000,  0.0000)
   2 Cd     0.000993    1.848988   15.311974    ( 0.0000,  0.0000,  0.0000)
   3 Cd     1.601045    2.772960   18.056236    ( 0.0000,  0.0000,  0.0000)
   4 Cd    -1.600874    2.772795   10.000000    ( 0.0000,  0.0000,  0.0000)
   5 Cd    -0.000000    3.697060   12.614217    ( 0.0000,  0.0000,  0.0000)
   6 Cd    -1.602198    4.620561   15.301861    ( 0.0000,  0.0000,  0.0000)
   7 Cd    -0.011005    5.539237   18.055358    ( 0.0000,  0.0000,  0.0000)
   8 Cd    -3.201748    5.545591   10.000000    ( 0.0000,  0.0000,  0.0000)
   9 Cd    -1.600874    6.469856   12.614217    ( 0.0000,  0.0000,  0.0000)
  10 Cd    -3.200855    7.394753   15.311974    ( 0.0000,  0.0000,  0.0000)
  11 Cd    -1.600646    8.318452   18.056236    ( 0.0000,  0.0000,  0.0000)
  12 Cd     3.201748    0.000000   10.000000    ( 0.0000,  0.0000,  0.0000)
  13 Cd     4.802622    0.924265   12.614217    ( 0.0000,  0.0000,  0.0000)
  14 Cd     3.203309    1.849431   15.302058    ( 0.0000,  0.0000,  0.0000)
  15 Cd     4.803603    2.773361   18.056971    ( 0.0000,  0.0000,  0.0000)
  16 Cd     1.600874    2.772795   10.000000    ( 0.0000,  0.0000,  0.0000)
  17 Cd     3.201748    3.697060   12.614217    ( 0.0000,  0.0000,  0.0000)
  18 Cd     1.602500    4.619337   15.311987    ( 0.0000,  0.0000,  0.0000)
  19 Cd     3.202266    5.405940   18.047049    ( 0.0000,  0.0000,  0.0000)
  20 Cd     0.000000    5.545591   10.000000    ( 0.0000,  0.0000,  0.0000)
  21 Cd     1.600874    6.469856   12.614217    ( 0.0000,  0.0000,  0.0000)
  22 Cd    -0.000909    7.396523   15.311987    ( 0.0000,  0.0000,  0.0000)
  23 Cd     1.480191    8.388660   18.047049    ( 0.0000,  0.0000,  0.0000)
  24 Cd     6.403497    0.000000   10.000000    ( 0.0000,  0.0000,  0.0000)
  25 Cd     8.004371    0.924265   12.614217    ( 0.0000,  0.0000,  0.0000)
  26 Cd     6.401541    1.848983   15.312572    ( 0.0000,  0.0000,  0.0000)
  27 Cd     8.002773    2.785596   18.055418    ( 0.0000,  0.0000,  0.0000)
  28 Cd     4.802622    2.772795   10.000000    ( 0.0000,  0.0000,  0.0000)
  29 Cd     6.403497    3.697060   12.614217    ( 0.0000,  0.0000,  0.0000)
  30 Cd     4.802037    4.619406   15.312572    ( 0.0000,  0.0000,  0.0000)
  31 Cd     6.413784    5.537806   18.055418    ( 0.0000,  0.0000,  0.0000)
  32 Cd     3.201748    5.545591   10.000000    ( 0.0000,  0.0000,  0.0000)
  33 Cd     4.802622    6.469856   12.614217    ( 0.0000,  0.0000,  0.0000)
  34 Cd     3.201877    7.394195   15.319876    ( 0.0000,  0.0000,  0.0000)
  35 Cd     4.922961    8.387864   18.047151    ( 0.0000,  0.0000,  0.0000)
  36 C      3.202171    7.394365   19.052481    ( 0.0000,  0.0000,  0.0000)

Unit cell:
           periodic     x           y           z      points  spacing
  1. axis:    yes    9.605245    0.000000    0.000000    48     0.1733
  2. axis:    yes   -4.802622    8.318386    0.000000    48     0.1733
  3. axis:    no     0.000000    0.000000   27.842650   156     0.1785

  Lengths:   9.605245   9.605245  27.842650
  Angles:   90.000000  90.000000 120.000000

Effective grid spacing dv^(1/3) = 0.1836

     iter     time        total  log10-change:
                         energy  eigst   dens
iter:   1 00:56:32 -5452.635853  -2.63
iter:   2 00:57:04 -5452.628612  -3.69  -2.98
iter:   3 00:57:37 -5452.624174c -3.88  -3.21
iter:   4 00:58:09 -5452.624138c -4.84  -3.48
iter:   5 00:58:41 -5452.623664c -4.64  -3.62
iter:   6 00:59:13 -5452.623590c -4.76  -3.80
iter:   7 00:59:45 -5452.623530c -5.64  -3.95
iter:   8 01:00:17 -5452.623532c -6.08  -4.05c
iter:   9 01:00:49 -5452.623541c -6.02  -4.11c
iter:  10 01:01:22 -5452.623556c -6.45  -4.35c
iter:  11 01:01:54 -5452.623548c -6.55  -4.41c
iter:  12 01:02:26 -5452.623556c -6.86  -4.62c
iter:  13 01:02:58 -5452.623549c -7.38  -4.68c
iter:  14 01:03:31 -5452.623552c -7.44c -4.77c

Converged after 14 iterations.

Dipole moment: (-10.630219, -15.571213, -0.297757) |e|*Ang

Energy contributions relative to reference atoms: (reference = -5479259.888227)

Kinetic:       +1033.072170
Potential:     -930.675770
External:        +0.000000
XC:            -5557.947378
Entropy (-ST):   -0.490736
Local:           +3.172794
--------------------------
Free energy:   -5452.868920
Extrapolated:  -5452.623552

Showing only first 2 kpts
 Kpt  Band  Eigenvalues  Occupancy
  0   216     -4.56385    1.62140
  0   217     -4.45229    1.16788
  0   218     -4.31716    0.53305
  0   219     -4.17891    0.16714

  1   216     -4.28643    0.42175
  1   217     -4.22146    0.24493
  1   218     -3.95659    0.01955
  1   219     -3.77686    0.00327


Fermi level: -4.41839

No gap

Forces in eV/Ang:
  0 Cd   -0.01495   -0.00863   -0.21788
  1 Cd    0.01471    0.00850    0.20883
  2 Cd   -0.00453    0.01067   -0.02303
  3 Cd   -0.00655    0.00362   -0.02361
  4 Cd   -0.01479    0.02578   -0.25249
  5 Cd    0.00821   -0.00525    0.23133
  6 Cd   -0.00604   -0.00349   -0.06436
  7 Cd   -0.02228   -0.01286   -0.02811
  8 Cd    0.01493   -0.02569   -0.25249
  9 Cd   -0.00044    0.00973    0.23133
 10 Cd    0.00698   -0.00926   -0.02303
 11 Cd   -0.00014   -0.00748   -0.02361
 12 Cd    0.00491    0.01210   -0.22387
 13 Cd   -0.01368    0.01384    0.20673
 14 Cd    0.00865    0.00500   -0.06232
 15 Cd    0.01079    0.00623   -0.01692
 16 Cd    0.01294   -0.00180   -0.22387
 17 Cd    0.00514   -0.01876    0.20673
 18 Cd   -0.00437   -0.00451   -0.02422
 19 Cd    0.00100   -0.06949    0.28209
 20 Cd   -0.02759   -0.01593   -0.23734
 21 Cd   -0.00035   -0.00020    0.23283
 22 Cd   -0.00609   -0.00153   -0.02422
 23 Cd   -0.05968    0.03561    0.28209
 24 Cd    0.00970    0.00542   -0.21580
 25 Cd   -0.00097    0.00401    0.22988
 26 Cd    0.00053    0.00967   -0.02068
 27 Cd   -0.00685    0.02678   -0.02594
 28 Cd    0.00048    0.00028   -0.23147
 29 Cd   -0.01142   -0.00659    0.22467
 30 Cd    0.00864   -0.00438   -0.02068
 31 Cd    0.01976   -0.01932   -0.02594
 32 Cd    0.00954    0.00569   -0.21580
 33 Cd    0.00299   -0.00285    0.22988
 34 Cd   -0.00023   -0.00013    0.13744
 35 Cd    0.06028    0.03480    0.28118
 36 C     0.00119    0.00069   -0.54273

BFGS:    4 01:03:45    -5452.623552        0.5427
System changes: positions 

Initializing position-dependent things.

Density initialized from wave functions
                                                 
                                                 
                                                 
                                                 
                            C                    
                Cd      Cd      Cd               
                                                 
                  Cd      Cd      Cd             
                                                 
            Cd      CCd     Cd      Cd           
                                                 
              Cd      Cd      Cd                 
                                                 
               CCd     CCd     CCd               
                                                 
                 Cd      Cd      Cd              
                   Cd      Cd      Cd            
           Cd      Cd     Cd                     
             Cd      Cd     Cd                   
                                                 
               Cd      Cd      Cd                
                                                 
                                                 
                                                 
                                                 

Positions:
   0 Cd     0.000000    0.000000   10.000000    ( 0.0000,  0.0000,  0.0000)
   1 Cd     1.600874    0.924265   12.614217    ( 0.0000,  0.0000,  0.0000)
   2 Cd     0.000938    1.849862   15.310089    ( 0.0000,  0.0000,  0.0000)
   3 Cd     1.600590    2.773293   18.053651    ( 0.0000,  0.0000,  0.0000)
   4 Cd    -1.600874    2.772795   10.000000    ( 0.0000,  0.0000,  0.0000)
   5 Cd    -0.000000    3.697060   12.614217    ( 0.0000,  0.0000,  0.0000)
   6 Cd    -1.602963    4.620119   15.294446    ( 0.0000,  0.0000,  0.0000)
   7 Cd    -0.015469    5.536660   18.052209    ( 0.0000,  0.0000,  0.0000)
   8 Cd    -3.201748    5.545591   10.000000    ( 0.0000,  0.0000,  0.0000)
   9 Cd    -1.600874    6.469856   12.614217    ( 0.0000,  0.0000,  0.0000)
  10 Cd    -3.200126    7.394267   15.310089    ( 0.0000,  0.0000,  0.0000)
  11 Cd    -1.600586    8.317891   18.053651    ( 0.0000,  0.0000,  0.0000)
  12 Cd     3.201748    0.000000   10.000000    ( 0.0000,  0.0000,  0.0000)
  13 Cd     4.802622    0.924265   12.614217    ( 0.0000,  0.0000,  0.0000)
  14 Cd     3.204310    1.850010   15.294706    ( 0.0000,  0.0000,  0.0000)
  15 Cd     4.804661    2.773973   18.055037    ( 0.0000,  0.0000,  0.0000)
  16 Cd     1.600874    2.772795   10.000000    ( 0.0000,  0.0000,  0.0000)
  17 Cd     3.201748    3.697060   12.614217    ( 0.0000,  0.0000,  0.0000)
  18 Cd     1.602615    4.618493   15.310031    ( 0.0000,  0.0000,  0.0000)
  19 Cd     3.202480    5.366959   18.064236    ( 0.0000,  0.0000,  0.0000)
  20 Cd     0.000000    5.545591   10.000000    ( 0.0000,  0.0000,  0.0000)
  21 Cd     1.600874    6.469856   12.614217    ( 0.0000,  0.0000,  0.0000)
  22 Cd    -0.001583    7.397045   15.310031    ( 0.0000,  0.0000,  0.0000)
  23 Cd     1.446541    8.408336   18.064236    ( 0.0000,  0.0000,  0.0000)
  24 Cd     6.403497    0.000000   10.000000    ( 0.0000,  0.0000,  0.0000)
  25 Cd     8.004371    0.924265   12.614217    ( 0.0000,  0.0000,  0.0000)
  26 Cd     6.401061    1.849790   15.311005    ( 0.0000,  0.0000,  0.0000)
  27 Cd     8.001868    2.790850   18.052427    ( 0.0000,  0.0000,  0.0000)
  28 Cd     4.802622    2.772795   10.000000    ( 0.0000,  0.0000,  0.0000)
  29 Cd     6.403497    3.697060   12.614217    ( 0.0000,  0.0000,  0.0000)
  30 Cd     4.802495    4.618586   15.311005    ( 0.0000,  0.0000,  0.0000)
  31 Cd     6.417881    5.534396   18.052427    ( 0.0000,  0.0000,  0.0000)
  32 Cd     3.201748    5.545591   10.000000    ( 0.0000,  0.0000,  0.0000)
  33 Cd     4.802622    6.469856   12.614217    ( 0.0000,  0.0000,  0.0000)
  34 Cd     3.201897    7.394207   15.330874    ( 0.0000,  0.0000,  0.0000)
  35 Cd     4.956553    8.407258   18.064317    ( 0.0000,  0.0000,  0.0000)
  36 C      3.202361    7.394475   19.030332    ( 0.0000,  0.0000,  0.0000)

Unit cell:
           periodic     x           y           z      points  spacing
  1. axis:    yes    9.605245    0.000000    0.000000    48     0.1733
  2. axis:    yes   -4.802622    8.318386    0.000000    48     0.1733
  3. axis:    no     0.000000    0.000000   27.842650   156     0.1785

  Lengths:   9.605245   9.605245  27.842650
  Angles:   90.000000  90.000000 120.000000

Effective grid spacing dv^(1/3) = 0.1836

     iter     time        total  log10-change:
                         energy  eigst   dens
iter:   1 01:04:49 -5452.705616  -1.90
iter:   2 01:05:22 -5452.674129  -2.91  -2.60
iter:   3 01:05:54 -5452.664220c -3.64  -2.82
iter:   4 01:06:26 -5452.652680c -3.50  -2.96
iter:   5 01:06:58 -5452.651603c -3.95  -3.29
iter:   6 01:07:31 -5452.651291c -4.22  -3.47
iter:   7 01:08:03 -5452.651221c -4.98  -3.61
iter:   8 01:08:35 -5452.651273c -5.16  -3.71
iter:   9 01:09:07 -5452.651449c -5.46  -3.89
iter:  10 01:09:40 -5452.651424c -6.01  -4.00c
iter:  11 01:10:12 -5452.651368c -5.87  -4.05c
iter:  12 01:10:44 -5452.651396c -6.14  -4.30c
iter:  13 01:11:16 -5452.651401c -6.90  -4.40c
iter:  14 01:11:49 -5452.651398c -6.51  -4.49c
iter:  15 01:12:21 -5452.651407c -7.20  -4.65c
iter:  16 01:12:53 -5452.651403c -7.55c -4.81c

Converged after 16 iterations.

Dipole moment: (-11.308126, -17.221886, -0.285785) |e|*Ang

Energy contributions relative to reference atoms: (reference = -5479259.888227)

Kinetic:       +1032.163139
Potential:     -929.942581
External:        +0.000000
XC:            -5557.803536
Entropy (-ST):   -0.490056
Local:           +3.176603
--------------------------
Free energy:   -5452.896431
Extrapolated:  -5452.651403

Showing only first 2 kpts
 Kpt  Band  Eigenvalues  Occupancy
  0   216     -4.55780    1.62830
  0   217     -4.43786    1.13805
  0   218     -4.30940    0.53524
  0   219     -4.17545    0.17473

  1   216     -4.27966    0.42695
  1   217     -4.21161    0.24164
  1   218     -3.94017    0.01804
  1   219     -3.76693    0.00321


Fermi level: -4.41007

No gap

Forces in eV/Ang:
  0 Cd   -0.01563   -0.00902   -0.21916
  1 Cd    0.01301    0.00751    0.20556
  2 Cd   -0.01130    0.00191   -0.01680
  3 Cd   -0.01101    0.00481   -0.02214
  4 Cd   -0.01562    0.02490   -0.25228
  5 Cd    0.00956   -0.00571    0.22617
  6 Cd   -0.00463   -0.00267   -0.04662
  7 Cd    0.00736    0.00425   -0.02918
  8 Cd    0.01375   -0.02598   -0.25228
  9 Cd   -0.00017    0.01113    0.22617
 10 Cd   -0.00400   -0.01074   -0.01680
 11 Cd   -0.00134   -0.01194   -0.02214
 12 Cd    0.00533    0.01419   -0.22443
 13 Cd   -0.01122    0.01279    0.20193
 14 Cd    0.00773    0.00446   -0.04012
 15 Cd    0.01150    0.00664   -0.01526
 16 Cd    0.01495   -0.00248   -0.22443
 17 Cd    0.00546   -0.01611    0.20193
 18 Cd   -0.00367    0.00830   -0.01850
 19 Cd   -0.00056    0.12751    0.31060
 20 Cd   -0.02691   -0.01554   -0.23693
 21 Cd    0.00532    0.00307    0.23808
 22 Cd    0.00536   -0.00733   -0.01850
 23 Cd    0.11015   -0.06424    0.31060
 24 Cd    0.00963    0.00573   -0.21692
 25 Cd   -0.00141   -0.00235    0.23437
 26 Cd    0.01011    0.00013   -0.01633
 27 Cd   -0.00214   -0.00757   -0.02594
 28 Cd   -0.00054   -0.00031   -0.23182
 29 Cd   -0.01300   -0.00751    0.21771
 30 Cd    0.00517    0.00869   -0.01633
 31 Cd   -0.00763    0.00193   -0.02594
 32 Cd    0.00978    0.00548   -0.21692
 33 Cd   -0.00274   -0.00004    0.23437
 34 Cd   -0.00075   -0.00043    0.16982
 35 Cd   -0.10730   -0.06195    0.30893
 36 C    -0.00255   -0.00147   -0.71333

BFGS:    5 01:13:07    -5452.651403        0.7133
System changes: positions 

Initializing position-dependent things.

Density initialized from wave functions
                                                 
                                                 
                                                 
                                                 
                           C                     
                Cd      Cd       Cd              
                                                 
                  Cd      Cd      Cd             
                                                 
            Cd      CCd    CCd      Cd           
                                                 
              Cd      Cd      Cd                 
                                                 
               CCd     CCd     CCd               
                                                 
                 Cd      Cd      Cd              
                   Cd      Cd      Cd            
           Cd      Cd     Cd                     
             Cd      Cd     Cd                   
                                                 
               Cd      Cd      Cd                
                                                 
                                                 
                                                 
                                                 

Positions:
   0 Cd     0.000000    0.000000   10.000000    ( 0.0000,  0.0000,  0.0000)
   1 Cd     1.600874    0.924265   12.614217    ( 0.0000,  0.0000,  0.0000)
   2 Cd     0.000509    1.851260   15.306698    ( 0.0000,  0.0000,  0.0000)
   3 Cd     1.599534    2.773971   18.049080    ( 0.0000,  0.0000,  0.0000)
   4 Cd    -1.600874    2.772795   10.000000    ( 0.0000,  0.0000,  0.0000)
   5 Cd    -0.000000    3.697060   12.614217    ( 0.0000,  0.0000,  0.0000)
   6 Cd    -1.604269    4.619366   15.281726    ( 0.0000,  0.0000,  0.0000)
   7 Cd    -0.022087    5.532839   18.046547    ( 0.0000,  0.0000,  0.0000)
   8 Cd    -3.201748    5.545591   10.000000    ( 0.0000,  0.0000,  0.0000)
   9 Cd    -1.600874    6.469856   12.614217    ( 0.0000,  0.0000,  0.0000)
  10 Cd    -3.199130    7.393197   15.306698    ( 0.0000,  0.0000,  0.0000)
  11 Cd    -1.600526    8.316638   18.049080    ( 0.0000,  0.0000,  0.0000)
  12 Cd     3.201748    0.000000   10.000000    ( 0.0000,  0.0000,  0.0000)
  13 Cd     4.802622    0.924265   12.614217    ( 0.0000,  0.0000,  0.0000)
  14 Cd     3.206064    1.851022   15.282187    ( 0.0000,  0.0000,  0.0000)
  15 Cd     4.806658    2.775125   18.051659    ( 0.0000,  0.0000,  0.0000)
  16 Cd     1.600874    2.772795   10.000000    ( 0.0000,  0.0000,  0.0000)
  17 Cd     3.201748    3.697060   12.614217    ( 0.0000,  0.0000,  0.0000)
  18 Cd     1.602677    4.617451   15.306485    ( 0.0000,  0.0000,  0.0000)
  19 Cd     3.202798    5.312645   18.100305    ( 0.0000,  0.0000,  0.0000)
  20 Cd     0.000000    5.545591   10.000000    ( 0.0000,  0.0000,  0.0000)
  21 Cd     1.600874    6.469856   12.614217    ( 0.0000,  0.0000,  0.0000)
  22 Cd    -0.002454    7.397619   15.306485    ( 0.0000,  0.0000,  0.0000)
  23 Cd     1.399662    8.435768   18.100305    ( 0.0000,  0.0000,  0.0000)
  24 Cd     6.403497    0.000000   10.000000    ( 0.0000,  0.0000,  0.0000)
  25 Cd     8.004371    0.924265   12.614217    ( 0.0000,  0.0000,  0.0000)
  26 Cd     6.400632    1.851034   15.308113    ( 0.0000,  0.0000,  0.0000)
  27 Cd     8.000418    2.798671   18.047098    ( 0.0000,  0.0000,  0.0000)
  28 Cd     4.802622    2.772795   10.000000    ( 0.0000,  0.0000,  0.0000)
  29 Cd     6.403497    3.697060   12.614217    ( 0.0000,  0.0000,  0.0000)
  30 Cd     4.803359    4.617593   15.308113    ( 0.0000,  0.0000,  0.0000)
  31 Cd     6.423929    5.529229   18.047098    ( 0.0000,  0.0000,  0.0000)
  32 Cd     3.201748    5.545591   10.000000    ( 0.0000,  0.0000,  0.0000)
  33 Cd     4.802622    6.469856   12.614217    ( 0.0000,  0.0000,  0.0000)
  34 Cd     3.201907    7.394213   15.352479    ( 0.0000,  0.0000,  0.0000)
  35 Cd     5.003416    8.434314   18.100315    ( 0.0000,  0.0000,  0.0000)
  36 C      3.202577    7.394600   18.974052    ( 0.0000,  0.0000,  0.0000)

Unit cell:
           periodic     x           y           z      points  spacing
  1. axis:    yes    9.605245    0.000000    0.000000    48     0.1733
  2. axis:    yes   -4.802622    8.318386    0.000000    48     0.1733
  3. axis:    no     0.000000    0.000000   27.842650   156     0.1785

  Lengths:   9.605245   9.605245  27.842650
  Angles:   90.000000  90.000000 120.000000

Effective grid spacing dv^(1/3) = 0.1836

     iter     time        total  log10-change:
                         energy  eigst   dens
iter:   1 01:14:11 -5452.821346  -1.54
iter:   2 01:14:43 -5452.738943  -2.48  -2.40
iter:   3 01:15:15 -5452.715222c -3.29  -2.61
iter:   4 01:15:48 -5452.690050c -3.11  -2.76
iter:   5 01:16:20 -5452.690039c -4.00  -3.11
iter:   6 01:16:52 -5452.688656c -3.97  -3.20
iter:   7 01:17:24 -5452.688350c -4.24  -3.37
iter:   8 01:17:56 -5452.688650c -4.64  -3.57
iter:   9 01:18:29 -5452.688645c -5.32  -3.67
iter:  10 01:19:01 -5452.688605c -5.50  -3.84
iter:  11 01:19:33 -5452.688636c -5.84  -3.90
iter:  12 01:20:05 -5452.688632c -5.91  -3.98
iter:  13 01:20:37 -5452.688605c -6.01  -4.07c
iter:  14 01:21:09 -5452.688612c -6.62  -4.17c
iter:  15 01:21:41 -5452.688649c -6.43  -4.19c
iter:  16 01:22:13 -5452.688619c -6.67  -4.38c
iter:  17 01:22:45 -5452.688641c -6.96  -4.60c
iter:  18 01:23:17 -5452.688637c -7.12  -4.66c
iter:  19 01:23:50 -5452.688641c -7.72c -4.98c

Converged after 19 iterations.

Dipole moment: (-11.862238, -19.344782, -0.258983) |e|*Ang

Energy contributions relative to reference atoms: (reference = -5479259.888227)

Kinetic:       +1031.451797
Potential:     -929.361171
External:        +0.000000
XC:            -5557.713161
Entropy (-ST):   -0.487853
Local:           +3.177820
--------------------------
Free energy:   -5452.932568
Extrapolated:  -5452.688641

Showing only first 2 kpts
 Kpt  Band  Eigenvalues  Occupancy
  0   216     -4.54389    1.64315
  0   217     -4.41297    1.10852
  0   218     -4.29132    0.53842
  0   219     -4.16398    0.18694

  1   216     -4.26430    0.43891
  1   217     -4.19173    0.23957
  1   218     -3.91726    0.01734
  1   219     -3.74426    0.00310


Fermi level: -4.39118

No gap

Forces in eV/Ang:
  0 Cd   -0.01759   -0.01016   -0.21912
  1 Cd    0.01038    0.00599    0.20022
  2 Cd   -0.01503   -0.01241   -0.00132
  3 Cd   -0.01729    0.00611   -0.01793
  4 Cd   -0.01689    0.02246   -0.24751
  5 Cd    0.00938   -0.00528    0.21450
  6 Cd   -0.00409   -0.00236   -0.02968
  7 Cd    0.05093    0.02940   -0.01949
  8 Cd    0.01101   -0.02586   -0.24751
  9 Cd    0.00012    0.01076    0.21450
 10 Cd   -0.01826   -0.00681   -0.00132
 11 Cd   -0.00335   -0.01803   -0.01793
 12 Cd    0.00606    0.01600   -0.22292
 13 Cd   -0.00722    0.01105    0.19423
 14 Cd    0.00831    0.00480   -0.01021
 15 Cd    0.01163    0.00671   -0.01250
 16 Cd    0.01688   -0.00275   -0.22292
 17 Cd    0.00596   -0.01178    0.19423
 18 Cd    0.00157    0.02270   -0.00359
 19 Cd    0.00032    0.34287    0.26568
 20 Cd   -0.02490   -0.01437   -0.23215
 21 Cd    0.01279    0.00739    0.24059
 22 Cd    0.02044   -0.00999   -0.00359
 23 Cd    0.29709   -0.17116    0.26568
 24 Cd    0.01044    0.00563   -0.21659
 25 Cd   -0.00212   -0.01053    0.23587
 26 Cd    0.01814   -0.01527   -0.00344
 27 Cd    0.00538   -0.05808   -0.01568
 28 Cd   -0.00102   -0.00059   -0.22967
 29 Cd   -0.01336   -0.00771    0.20308
 30 Cd   -0.00415    0.02335   -0.00344
 31 Cd   -0.04760    0.03370   -0.01568
 32 Cd    0.01010    0.00623   -0.21659
 33 Cd   -0.01018    0.00342    0.23587
 34 Cd   -0.00151   -0.00087    0.23108
 35 Cd   -0.29161   -0.16836    0.26269
 36 C    -0.00248   -0.00143   -0.77827

BFGS:    6 01:24:04    -5452.688641        0.7783
System changes: positions 

Initializing position-dependent things.

Density initialized from wave functions
                                                 
                                                 
                                                 
                                                 
                           C                     
                Cd      Cd       Cd              
                                                 
                  Cd      Cd      Cd             
                     Cd     Cd      Cd           
            Cd      Cd     Cd                    
                                                 
              Cd      Cd      Cd                 
                Cd              Cd               
               Cd      CCd     Cd                
                                                 
                 Cd      Cd      Cd              
                   Cd      Cd      Cd            
           Cd      Cd     Cd                     
             Cd      Cd     Cd                   
                                                 
               Cd      Cd      Cd                
                                                 
                                                 
                                                 
                                                 

Positions:
   0 Cd     0.000000    0.000000   10.000000    ( 0.0000,  0.0000,  0.0000)
   1 Cd     1.600874    0.924265   12.614217    ( 0.0000,  0.0000,  0.0000)
   2 Cd    -0.000184    1.852261   15.303733    ( 0.0000,  0.0000,  0.0000)
   3 Cd     1.598255    2.774688   18.044987    ( 0.0000,  0.0000,  0.0000)
   4 Cd    -1.600874    2.772795   10.000000    ( 0.0000,  0.0000,  0.0000)
   5 Cd    -0.000000    3.697060   12.614217    ( 0.0000,  0.0000,  0.0000)
   6 Cd    -1.605419    4.618701   15.270578    ( 0.0000,  0.0000,  0.0000)
   7 Cd    -0.026339    5.530384   18.041548    ( 0.0000,  0.0000,  0.0000)
   8 Cd    -3.201748    5.545591   10.000000    ( 0.0000,  0.0000,  0.0000)
   9 Cd    -1.600874    6.469856   12.614217    ( 0.0000,  0.0000,  0.0000)
  10 Cd    -3.198609    7.392097   15.303733    ( 0.0000,  0.0000,  0.0000)
  11 Cd    -1.600545    8.315172   18.044987    ( 0.0000,  0.0000,  0.0000)
  12 Cd     3.201748    0.000000   10.000000    ( 0.0000,  0.0000,  0.0000)
  13 Cd     4.802622    0.924265   12.614217    ( 0.0000,  0.0000,  0.0000)
  14 Cd     3.207671    1.851949   15.271513    ( 0.0000,  0.0000,  0.0000)
  15 Cd     4.808597    2.776245   18.048663    ( 0.0000,  0.0000,  0.0000)
  16 Cd     1.600874    2.772795   10.000000    ( 0.0000,  0.0000,  0.0000)
  17 Cd     3.201748    3.697060   12.614217    ( 0.0000,  0.0000,  0.0000)
  18 Cd     1.602656    4.617037   15.303346    ( 0.0000,  0.0000,  0.0000)
  19 Cd     3.203071    5.280694   18.138113    ( 0.0000,  0.0000,  0.0000)
  20 Cd     0.000000    5.545591   10.000000    ( 0.0000,  0.0000,  0.0000)
  21 Cd     1.600874    6.469856   12.614217    ( 0.0000,  0.0000,  0.0000)
  22 Cd    -0.002823    7.397809   15.303346    ( 0.0000,  0.0000,  0.0000)
  23 Cd     1.372128    8.451980   18.138113    ( 0.0000,  0.0000,  0.0000)
  24 Cd     6.403497    0.000000   10.000000    ( 0.0000,  0.0000,  0.0000)
  25 Cd     8.004371    0.924265   12.614217    ( 0.0000,  0.0000,  0.0000)
  26 Cd     6.400679    1.851851   15.305514    ( 0.0000,  0.0000,  0.0000)
  27 Cd     7.999327    2.803749   18.042450    ( 0.0000,  0.0000,  0.0000)
  28 Cd     4.802622    2.772795   10.000000    ( 0.0000,  0.0000,  0.0000)
  29 Cd     6.403497    3.697060   12.614217    ( 0.0000,  0.0000,  0.0000)
  30 Cd     4.804089    4.617225   15.305514    ( 0.0000,  0.0000,  0.0000)
  31 Cd     6.427781    5.525746   18.042450    ( 0.0000,  0.0000,  0.0000)
  32 Cd     3.201748    5.545591   10.000000    ( 0.0000,  0.0000,  0.0000)
  33 Cd     4.802622    6.469856   12.614217    ( 0.0000,  0.0000,  0.0000)
  34 Cd     3.201881    7.394198   15.375247    ( 0.0000,  0.0000,  0.0000)
  35 Cd     5.031045    8.450266   18.138009    ( 0.0000,  0.0000,  0.0000)
  36 C      3.202728    7.394687   18.905342    ( 0.0000,  0.0000,  0.0000)

Unit cell:
           periodic     x           y           z      points  spacing
  1. axis:    yes    9.605245    0.000000    0.000000    48     0.1733
  2. axis:    yes   -4.802622    8.318386    0.000000    48     0.1733
  3. axis:    no     0.000000    0.000000   27.842650   156     0.1785

  Lengths:   9.605245   9.605245  27.842650
  Angles:   90.000000  90.000000 120.000000

Effective grid spacing dv^(1/3) = 0.1836

     iter     time        total  log10-change:
                         energy  eigst   dens
iter:   1 01:25:08 -5452.853814  -1.73
iter:   2 01:25:40 -5452.779048  -2.61  -2.42
iter:   3 01:26:12 -5452.753325c -3.47  -2.65
iter:   4 01:26:44 -5452.748249c -3.78  -2.98
iter:   5 01:27:16 -5452.745676c -3.84  -3.13
iter:   6 01:27:48 -5452.745426c -4.06  -3.35
iter:   7 01:28:21 -5452.745386c -4.65  -3.46
iter:   8 01:28:53 -5452.745291c -4.82  -3.60
iter:   9 01:29:25 -5452.745345c -5.48  -3.82
iter:  10 01:29:57 -5452.745339c -5.81  -3.90
iter:  11 01:30:29 -5452.745402c -5.75  -3.99
iter:  12 01:31:01 -5452.745371c -6.30  -4.15c
iter:  13 01:31:33 -5452.745373c -6.57  -4.28c
iter:  14 01:32:05 -5452.745373c -6.95  -4.47c
iter:  15 01:32:37 -5452.745382c -7.09  -4.58c
iter:  16 01:33:09 -5452.745379c -7.43c -4.73c

Converged after 16 iterations.

Dipole moment: (-11.979916, -20.477795, -0.227906) |e|*Ang

Energy contributions relative to reference atoms: (reference = -5479259.888227)

Kinetic:       +1031.280038
Potential:     -929.207919
External:        +0.000000
XC:            -5557.759039
Entropy (-ST):   -0.485045
Local:           +3.184063
--------------------------
Free energy:   -5452.987902
Extrapolated:  -5452.745379

Showing only first 2 kpts
 Kpt  Band  Eigenvalues  Occupancy
  0   216     -4.52745    1.65850
  0   217     -4.39130    1.10895
  0   218     -4.27040    0.54174
  0   219     -4.14694    0.19509

  1   216     -4.24578    0.45012
  1   217     -4.17002    0.23966
  1   218     -3.90502    0.01905
  1   219     -3.71822    0.00297


Fermi level: -4.36942

No gap

Forces in eV/Ang:
  0 Cd   -0.01859   -0.01073   -0.22159
  1 Cd    0.00622    0.00359    0.19730
  2 Cd   -0.01884   -0.02516    0.01490
  3 Cd   -0.01732    0.00465   -0.01658
  4 Cd   -0.01769    0.01933   -0.24752
  5 Cd    0.01086   -0.00590    0.20885
  6 Cd   -0.00475   -0.00274   -0.04090
  7 Cd    0.07636    0.04409   -0.01674
  8 Cd    0.00790   -0.02499   -0.24752
  9 Cd    0.00032    0.01235    0.20885
 10 Cd   -0.03121   -0.00373    0.01490
 11 Cd   -0.00463   -0.01733   -0.01658
 12 Cd    0.00659    0.01757   -0.22451
 13 Cd   -0.00193    0.00815    0.18892
 14 Cd    0.01125    0.00649   -0.00317
 15 Cd    0.00716    0.00413   -0.01338
 16 Cd    0.01851   -0.00308   -0.22451
 17 Cd    0.00610   -0.00574    0.18892
 18 Cd    0.00683    0.03513    0.01219
 19 Cd   -0.00181    0.37621    0.26867
 20 Cd   -0.02223   -0.01283   -0.23176
 21 Cd    0.02298    0.01327    0.24786
 22 Cd    0.03384   -0.01165    0.01219
 23 Cd    0.32490   -0.18967    0.26867
 24 Cd    0.01026    0.00573   -0.21908
 25 Cd   -0.00257   -0.02185    0.24273
 26 Cd    0.02545   -0.02911    0.01131
 27 Cd    0.01027   -0.08741   -0.01261
 28 Cd   -0.00181   -0.00104   -0.23089
 29 Cd   -0.01487   -0.00858    0.19535
 30 Cd   -0.01249    0.03660    0.01131
 31 Cd   -0.07057    0.05260   -0.01261
 32 Cd    0.01010    0.00602   -0.21908
 33 Cd   -0.02021    0.00870    0.24273
 34 Cd   -0.00203   -0.00117    0.28754
 35 Cd   -0.31410   -0.18135    0.26604
 36 C    -0.00535   -0.00309   -0.73069

BFGS:    7 01:33:23    -5452.745379        0.7307
System changes: positions 

Initializing position-dependent things.

Density initialized from wave functions
                                                 
                                                 
                                                 
                                                 
                        Cd       Cd              
                Cd         C                     
                          Cd                     
                  Cd              Cd             
                     Cd     Cd      Cd           
            Cd      Cd     Cd                    
                                                 
              Cd      Cd      Cd                 
                Cd      Cd      Cd               
               Cd      Cd      Cd                
                                                 
                 Cd      Cd      Cd              
                   Cd      Cd      Cd            
           Cd     Cd      Cd                     
             Cd      Cd     Cd                   
                                                 
               Cd      Cd      Cd                
                                                 
                                                 
                                                 
                                                 

Positions:
   0 Cd     0.000000    0.000000   10.000000    ( 0.0000,  0.0000,  0.0000)
   1 Cd     1.600874    0.924265   12.614217    ( 0.0000,  0.0000,  0.0000)
   2 Cd    -0.002430    1.854473   15.296074    ( 0.0000,  0.0000,  0.0000)
   3 Cd     1.594531    2.776683   18.033600    ( 0.0000,  0.0000,  0.0000)
   4 Cd    -1.600874    2.772795   10.000000    ( 0.0000,  0.0000,  0.0000)
   5 Cd    -0.000000    3.697060   12.614217    ( 0.0000,  0.0000,  0.0000)
   6 Cd    -1.608647    4.616838   15.239076    ( 0.0000,  0.0000,  0.0000)
   7 Cd    -0.036445    5.524549   18.027695    ( 0.0000,  0.0000,  0.0000)
   8 Cd    -3.201748    5.545591   10.000000    ( 0.0000,  0.0000,  0.0000)
   9 Cd    -1.600874    6.469856   12.614217    ( 0.0000,  0.0000,  0.0000)
  10 Cd    -3.197817    7.389045   15.296074    ( 0.0000,  0.0000,  0.0000)
  11 Cd    -1.600679    8.310949   18.033600    ( 0.0000,  0.0000,  0.0000)
  12 Cd     3.201748    0.000000   10.000000    ( 0.0000,  0.0000,  0.0000)
  13 Cd     4.802622    0.924265   12.614217    ( 0.0000,  0.0000,  0.0000)
  14 Cd     3.212287    1.854615   15.242171    ( 0.0000,  0.0000,  0.0000)
  15 Cd     4.813909    2.779312   18.040274    ( 0.0000,  0.0000,  0.0000)
  16 Cd     1.600874    2.772795   10.000000    ( 0.0000,  0.0000,  0.0000)
  17 Cd     3.201748    3.697060   12.614217    ( 0.0000,  0.0000,  0.0000)
  18 Cd     1.602735    4.616605   15.295163    ( 0.0000,  0.0000,  0.0000)
  19 Cd     3.203733    5.201376   18.247182    ( 0.0000,  0.0000,  0.0000)
  20 Cd     0.000000    5.545591   10.000000    ( 0.0000,  0.0000,  0.0000)
  21 Cd     1.600874    6.469856   12.614217    ( 0.0000,  0.0000,  0.0000)
  22 Cd    -0.003158    7.398093   15.295163    ( 0.0000,  0.0000,  0.0000)
  23 Cd     1.303768    8.492212   18.247182    ( 0.0000,  0.0000,  0.0000)
  24 Cd     6.403497    0.000000   10.000000    ( 0.0000,  0.0000,  0.0000)
  25 Cd     8.004371    0.924265   12.614217    ( 0.0000,  0.0000,  0.0000)
  26 Cd     6.401314    1.853483   15.298783    ( 0.0000,  0.0000,  0.0000)
  27 Cd     7.996562    2.815892   18.029618    ( 0.0000,  0.0000,  0.0000)
  28 Cd     4.802622    2.772795   10.000000    ( 0.0000,  0.0000,  0.0000)
  29 Cd     6.403497    3.697060   12.614217    ( 0.0000,  0.0000,  0.0000)
  30 Cd     4.805820    4.616959   15.298783    ( 0.0000,  0.0000,  0.0000)
  31 Cd     6.436915    5.517280   18.029618    ( 0.0000,  0.0000,  0.0000)
  32 Cd     3.201748    5.545591   10.000000    ( 0.0000,  0.0000,  0.0000)
  33 Cd     4.802622    6.469856   12.614217    ( 0.0000,  0.0000,  0.0000)
  34 Cd     3.201773    7.394135   15.442669    ( 0.0000,  0.0000,  0.0000)
  35 Cd     5.099935    8.490040   18.246751    ( 0.0000,  0.0000,  0.0000)
  36 C      3.203004    7.394846   18.705342    ( 0.0000,  0.0000,  0.0000)

Unit cell:
           periodic     x           y           z      points  spacing
  1. axis:    yes    9.605245    0.000000    0.000000    48     0.1733
  2. axis:    yes   -4.802622    8.318386    0.000000    48     0.1733
  3. axis:    no     0.000000    0.000000   27.842650   156     0.1785

  Lengths:   9.605245   9.605245  27.842650
  Angles:   90.000000  90.000000 120.000000

Effective grid spacing dv^(1/3) = 0.1836

     iter     time        total  log10-change:
                         energy  eigst   dens
iter:   1 01:34:28 -5452.997722  -0.96
iter:   2 01:35:00 -5452.934116  -1.91  -2.36
iter:   3 01:35:32 -5452.907919c -2.65  -2.45
iter:   4 01:36:04 -5452.860754c -2.77  -2.55
iter:   5 01:36:37 -5452.854451c -3.41  -2.79
iter:   6 01:37:09 -5452.852479c -3.29  -2.95
iter:   7 01:37:41 -5452.851855c -3.86  -3.07
iter:   8 01:38:13 -5452.851314c -4.03  -3.24
iter:   9 01:38:45 -5452.851397c -4.82  -3.45
iter:  10 01:39:18 -5452.851398c -5.00  -3.49
iter:  11 01:39:50 -5452.851556c -5.54  -3.61
iter:  12 01:40:22 -5452.851826c -5.10  -3.65
iter:  13 01:40:54 -5452.851751c -5.62  -3.96
iter:  14 01:41:27 -5452.851678c -5.76  -4.04c
iter:  15 01:41:59 -5452.851702c -6.24  -4.18c
iter:  16 01:42:31 -5452.851712c -6.34  -4.30c
iter:  17 01:43:03 -5452.851719c -6.62  -4.46c
iter:  18 01:43:36 -5452.851719c -7.26  -4.58c
iter:  19 01:44:08 -5452.851707c -7.09  -4.68c
iter:  20 01:44:40 -5452.851711c -7.71c -4.94c

Converged after 20 iterations.

Dipole moment: (-11.628850, -22.903705, -0.144021) |e|*Ang

Energy contributions relative to reference atoms: (reference = -5479259.888227)

Kinetic:       +1030.736746
Potential:     -928.761208
External:        +0.000000
XC:            -5557.778972
Entropy (-ST):   -0.477966
Local:           +3.190705
--------------------------
Free energy:   -5453.090694
Extrapolated:  -5452.851711

Showing only first 2 kpts
 Kpt  Band  Eigenvalues  Occupancy
  0   216     -4.47860    1.68371
  0   217     -4.34350    1.15923
  0   218     -4.21769    0.56303
  0   219     -4.09751    0.21077

  1   216     -4.19150    0.46336
  1   217     -4.10251    0.22040
  1   218     -3.90648    0.03428
  1   219     -3.65163    0.00272


Fermi level: -4.31139

No gap

Forces in eV/Ang:
  0 Cd   -0.01838   -0.01061   -0.22508
  1 Cd   -0.00683   -0.00394    0.18510
  2 Cd   -0.02110   -0.05268    0.05903
  3 Cd   -0.02812    0.00853    0.00779
  4 Cd   -0.01934    0.01271   -0.24196
  5 Cd    0.01399   -0.00706    0.18038
  6 Cd    0.00374    0.00216   -0.06791
  7 Cd    0.12242    0.07068    0.01066
  8 Cd    0.00134   -0.02311   -0.24196
  9 Cd    0.00088    0.01564    0.18038
 10 Cd   -0.05617    0.00806    0.05903
 11 Cd   -0.00667   -0.02862    0.00779
 12 Cd    0.00809    0.01942   -0.22597
 13 Cd    0.01373   -0.00109    0.17121
 14 Cd    0.00438    0.00253    0.01141
 15 Cd    0.00397    0.00229   -0.00532
 16 Cd    0.02087   -0.00270   -0.22597
 17 Cd    0.00592    0.01244    0.17121
 18 Cd    0.02268    0.05620    0.05779
 19 Cd   -0.00798    0.57795    0.09413
 20 Cd   -0.01617   -0.00933   -0.22559
 21 Cd    0.04381    0.02529    0.26380
 22 Cd    0.06001   -0.00846    0.05779
 23 Cd    0.49654   -0.29588    0.09413
 24 Cd    0.00772    0.00708   -0.22306
 25 Cd   -0.00360   -0.04551    0.25871
 26 Cd    0.03360   -0.05984    0.05454
 27 Cd    0.01849   -0.14083    0.01362
 28 Cd   -0.00240   -0.00139   -0.23064
 29 Cd   -0.01847   -0.01066    0.16049
 30 Cd   -0.03502    0.05902    0.05454
 31 Cd   -0.11272    0.08643    0.01362
 32 Cd    0.00999    0.00315   -0.22306
 33 Cd   -0.04121    0.01964    0.25871
 34 Cd   -0.00295   -0.00170    0.39378
 35 Cd   -0.48362   -0.27922    0.08907
 36 C    -0.00596   -0.00344   -0.68340

BFGS:    8 01:44:54    -5452.851711        0.6834
System changes: positions 

Initializing position-dependent things.

Density initialized from wave functions
                                                 
                                                 
                                                 
                                                 
                Cd      Cd C     Cd              
                                                 
                  Cd      Cd      Cd             
                                                 
            Cd      CCd    CCd      Cd           
                                                 
              Cd      Cd      Cd                 
                                                 
               CCd     CCd     CCd               
                                                 
                 Cd      Cd      Cd              
                                                 
           Cd     CCd     CCd      Cd            
                                                 
             Cd      Cd     Cd                   
               Cd      Cd      Cd                
                                                 
                                                 
                                                 
                                                 

Positions:
   0 Cd     0.000000    0.000000   10.000000    ( 0.0000,  0.0000,  0.0000)
   1 Cd     1.600874    0.924265   12.614217    ( 0.0000,  0.0000,  0.0000)
   2 Cd    -0.004526    1.854897   15.292252    ( 0.0000,  0.0000,  0.0000)
   3 Cd     1.591411    2.778190   18.027079    ( 0.0000,  0.0000,  0.0000)
   4 Cd    -1.600874    2.772795   10.000000    ( 0.0000,  0.0000,  0.0000)
   5 Cd    -0.000000    3.697060   12.614217    ( 0.0000,  0.0000,  0.0000)
   6 Cd    -1.610405    4.615823   15.219445    ( 0.0000,  0.0000,  0.0000)
   7 Cd    -0.038520    5.523351   18.019765    ( 0.0000,  0.0000,  0.0000)
   8 Cd    -3.201748    5.545591   10.000000    ( 0.0000,  0.0000,  0.0000)
   9 Cd    -1.600874    6.469856   12.614217    ( 0.0000,  0.0000,  0.0000)
  10 Cd    -3.198498    7.387018   15.292252    ( 0.0000,  0.0000,  0.0000)
  11 Cd    -1.600934    8.307493   18.027079    ( 0.0000,  0.0000,  0.0000)
  12 Cd     3.201748    0.000000   10.000000    ( 0.0000,  0.0000,  0.0000)
  13 Cd     4.802622    0.924265   12.614217    ( 0.0000,  0.0000,  0.0000)
  14 Cd     3.215047    1.856208   15.225254    ( 0.0000,  0.0000,  0.0000)
[...]
  15 Cd     4.819083    2.782299   18.053759    ( 0.0000,  0.0000,  0.0000)
  16 Cd     1.600874    2.772795   10.000000    ( 0.0000,  0.0000,  0.0000)
  17 Cd     3.201748    3.697060   12.614217    ( 0.0000,  0.0000,  0.0000)
  18 Cd     1.611914    4.641398   15.313312    ( 0.0000,  0.0000,  0.0000)
  19 Cd     3.202713    5.234371   18.440258    ( 0.0000,  0.0000,  0.0000)
  20 Cd     0.000000    5.545591   10.000000    ( 0.0000,  0.0000,  0.0000)
  21 Cd     1.600874    6.469856   12.614217    ( 0.0000,  0.0000,  0.0000)
  22 Cd     0.022903    7.393645   15.313312    ( 0.0000,  0.0000,  0.0000)
  23 Cd     1.331833    8.474831   18.440258    ( 0.0000,  0.0000,  0.0000)
  24 Cd     6.403497    0.000000   10.000000    ( 0.0000,  0.0000,  0.0000)
  25 Cd     8.004371    0.924265   12.614217    ( 0.0000,  0.0000,  0.0000)
  26 Cd     6.416750    1.830259   15.318382    ( 0.0000,  0.0000,  0.0000)
  27 Cd     8.001957    2.783080   18.030326    ( 0.0000,  0.0000,  0.0000)
  28 Cd     4.802622    2.772795   10.000000    ( 0.0000,  0.0000,  0.0000)
  29 Cd     6.403497    3.697060   12.614217    ( 0.0000,  0.0000,  0.0000)
  30 Cd     4.793426    4.641939   15.318382    ( 0.0000,  0.0000,  0.0000)
  31 Cd     6.411196    5.538358   18.030326    ( 0.0000,  0.0000,  0.0000)
  32 Cd     3.201748    5.545591   10.000000    ( 0.0000,  0.0000,  0.0000)
  33 Cd     4.802622    6.469856   12.614217    ( 0.0000,  0.0000,  0.0000)
  34 Cd     3.200657    7.393491   15.727671    ( 0.0000,  0.0000,  0.0000)
  35 Cd     5.074311    8.475246   18.437268    ( 0.0000,  0.0000,  0.0000)
  36 C      3.200928    7.393647   18.039196    ( 0.0000,  0.0000,  0.0000)

Unit cell:
           periodic     x           y           z      points  spacing
  1. axis:    yes    9.605245    0.000000    0.000000    48     0.1733
  2. axis:    yes   -4.802622    8.318386    0.000000    48     0.1733
  3. axis:    no     0.000000    0.000000   27.842650   156     0.1785

  Lengths:   9.605245   9.605245  27.842650
  Angles:   90.000000  90.000000 120.000000

Effective grid spacing dv^(1/3) = 0.1836

     iter     time        total  log10-change:
                         energy  eigst   dens
iter:   1 03:48:13 -5453.423338  -3.16
iter:   2 03:48:45 -5453.415320  -4.09  -2.94
iter:   3 03:49:17 -5453.414200c -4.94  -3.30
iter:   4 03:49:49 -5453.413716c -4.78  -3.49
iter:   5 03:50:21 -5453.413496c -4.99  -3.80
iter:   6 03:50:53 -5453.413494c -5.20  -4.05c
iter:   7 03:51:25 -5453.413486c -5.96  -4.09c
iter:   8 03:51:57 -5453.413465c -6.35  -4.34c
iter:   9 03:52:29 -5453.413473c -6.68  -4.49c
iter:  10 03:53:01 -5453.413472c -7.33  -4.62c
iter:  11 03:53:33 -5453.413477c -7.42c -4.70c

Converged after 11 iterations.

Dipole moment: (-11.204758, -21.523639, 0.056302) |e|*Ang

Energy contributions relative to reference atoms: (reference = -5479259.888227)

Kinetic:       +1032.222669
Potential:     -930.285059
External:        +0.000000
XC:            -5558.310826
Entropy (-ST):   -0.438369
Local:           +3.178924
--------------------------
Free energy:   -5453.632661
Extrapolated:  -5453.413477

Showing only first 2 kpts
 Kpt  Band  Eigenvalues  Occupancy
  0   216     -4.34566    1.68757
  0   217     -4.20324    1.13050
  0   218     -4.06499    0.49199
  0   219     -3.94603    0.18065

  1   216     -4.00953    0.31560
  1   217     -3.87673    0.09461
  1   218     -3.74085    0.02520
  1   219     -3.48916    0.00206


Fermi level: -4.17700

No gap

Forces in eV/Ang:
  0 Cd   -0.01326   -0.00766   -0.22664
  1 Cd    0.00922    0.00532    0.22341
  2 Cd    0.00182    0.00287   -0.00889
  3 Cd   -0.00339    0.00542    0.01415
  4 Cd   -0.01642    0.02713   -0.23296
  5 Cd    0.01869   -0.01155    0.18618
  6 Cd   -0.00031   -0.00018   -0.00011
  7 Cd    0.00235    0.00136   -0.00360
  8 Cd    0.01528   -0.02779   -0.23296
  9 Cd   -0.00065    0.02196    0.18618
 10 Cd    0.00339    0.00014   -0.00889
 11 Cd    0.00300   -0.00565    0.01415
 12 Cd    0.00781    0.02843   -0.22781
 13 Cd   -0.00371    0.00688    0.21552
 14 Cd   -0.00891   -0.00514    0.04332
 15 Cd    0.00903    0.00521    0.02154
 16 Cd    0.02853   -0.00745   -0.22781
 17 Cd    0.00410   -0.00666    0.21552
 18 Cd   -0.00346   -0.00301   -0.00859
 19 Cd   -0.00105   -0.02032   -0.01349
 20 Cd   -0.02689   -0.01552   -0.22103
 21 Cd    0.08302    0.04793    0.32488
 22 Cd   -0.00433   -0.00149   -0.00859
 23 Cd   -0.01812    0.00925   -0.01349
 24 Cd    0.00282    0.00758   -0.22593
 25 Cd   -0.00297   -0.09073    0.32524
 26 Cd    0.00211    0.00359   -0.01005
 27 Cd    0.00202   -0.00328   -0.00230
 28 Cd   -0.01292   -0.00746   -0.22855
 29 Cd   -0.02072   -0.01196    0.17088
 30 Cd    0.00416    0.00003   -0.01005
 31 Cd   -0.00183    0.00339   -0.00230
 32 Cd    0.00798   -0.00135   -0.22593
 33 Cd   -0.08005    0.04279    0.32524
 34 Cd   -0.00156   -0.00090   -0.05524
 35 Cd   -0.00630   -0.00364   -0.02144
 36 C     0.02362    0.01363    0.00815

BFGS:   22 03:53:47    -5453.413477        0.0553
System changes: positions 

Initializing position-dependent things.

Density initialized from wave functions
                                                 
                                                 
                                                 
                                                 
                Cd      Cd       Cd              
                           C                     
                   Cd     Cd      Cd             
                                                 
            Cd      CCd    CCd      Cd           
                                                 
              Cd      Cd      Cd                 
                                                 
               CCd     CCd     CCd               
                                                 
                 Cd      Cd      Cd              
                                                 
           Cd      Cd     CCd      Cd            
                                                 
             Cd      Cd     Cd                   
               Cd      Cd      Cd                
                                                 
                                                 
                                                 
                                                 

Positions:
   0 Cd     0.000000    0.000000   10.000000    ( 0.0000,  0.0000,  0.0000)
   1 Cd     1.600874    0.924265   12.614217    ( 0.0000,  0.0000,  0.0000)
   2 Cd    -0.014253    1.831999   15.312796    ( 0.0000,  0.0000,  0.0000)
   3 Cd     1.582933    2.783196   18.053457    ( 0.0000,  0.0000,  0.0000)
   4 Cd    -1.600874    2.772795   10.000000    ( 0.0000,  0.0000,  0.0000)
   5 Cd    -0.000000    3.697060   12.614217    ( 0.0000,  0.0000,  0.0000)
   6 Cd    -1.604161    4.619428   15.223716    ( 0.0000,  0.0000,  0.0000)
   7 Cd    -0.010014    5.539809   18.033793    ( 0.0000,  0.0000,  0.0000)
   8 Cd    -3.201748    5.545591   10.000000    ( 0.0000,  0.0000,  0.0000)
   9 Cd    -1.600874    6.469856   12.614217    ( 0.0000,  0.0000,  0.0000)
  10 Cd    -3.223191    7.390043   15.312796    ( 0.0000,  0.0000,  0.0000)
  11 Cd    -1.600838    8.297648   18.053457    ( 0.0000,  0.0000,  0.0000)
  12 Cd     3.201748    0.000000   10.000000    ( 0.0000,  0.0000,  0.0000)
  13 Cd     4.802622    0.924265   12.614217    ( 0.0000,  0.0000,  0.0000)
  14 Cd     3.214759    1.856042   15.307888    ( 0.0000,  0.0000,  0.0000)
  15 Cd     4.822126    2.784055   18.055621    ( 0.0000,  0.0000,  0.0000)
  16 Cd     1.600874    2.772795   10.000000    ( 0.0000,  0.0000,  0.0000)
  17 Cd     3.201748    3.697060   12.614217    ( 0.0000,  0.0000,  0.0000)
  18 Cd     1.610997    4.640949   15.312539    ( 0.0000,  0.0000,  0.0000)
  19 Cd     3.202559    5.232471   18.436321    ( 0.0000,  0.0000,  0.0000)
  20 Cd     0.000000    5.545591   10.000000    ( 0.0000,  0.0000,  0.0000)
  21 Cd     1.600874    6.469856   12.614217    ( 0.0000,  0.0000,  0.0000)
  22 Cd     0.022055    7.393076   15.312539    ( 0.0000,  0.0000,  0.0000)
  23 Cd     1.330110    8.475648   18.436321    ( 0.0000,  0.0000,  0.0000)
  24 Cd     6.403497    0.000000   10.000000    ( 0.0000,  0.0000,  0.0000)
  25 Cd     8.004371    0.924265   12.614217    ( 0.0000,  0.0000,  0.0000)
  26 Cd     6.416793    1.831336   15.317684    ( 0.0000,  0.0000,  0.0000)
  27 Cd     8.001911    2.785247   18.032542    ( 0.0000,  0.0000,  0.0000)
  28 Cd     4.802622    2.772795   10.000000    ( 0.0000,  0.0000,  0.0000)
  29 Cd     6.403497    3.697060   12.614217    ( 0.0000,  0.0000,  0.0000)
  30 Cd     4.794380    4.641438   15.317684    ( 0.0000,  0.0000,  0.0000)
  31 Cd     6.413050    5.537235   18.032542    ( 0.0000,  0.0000,  0.0000)
  32 Cd     3.201748    5.545591   10.000000    ( 0.0000,  0.0000,  0.0000)
  33 Cd     4.802622    6.469856   12.614217    ( 0.0000,  0.0000,  0.0000)
  34 Cd     3.200597    7.393456   15.725487    ( 0.0000,  0.0000,  0.0000)
  35 Cd     5.075854    8.476137   18.433090    ( 0.0000,  0.0000,  0.0000)
  36 C      3.201102    7.393748   18.037730    ( 0.0000,  0.0000,  0.0000)

Unit cell:
           periodic     x           y           z      points  spacing
  1. axis:    yes    9.605245    0.000000    0.000000    48     0.1733
  2. axis:    yes   -4.802622    8.318386    0.000000    48     0.1733
  3. axis:    no     0.000000    0.000000   27.842650   156     0.1785

  Lengths:   9.605245   9.605245  27.842650
  Angles:   90.000000  90.000000 120.000000

Effective grid spacing dv^(1/3) = 0.1836

     iter     time        total  log10-change:
                         energy  eigst   dens
iter:   1 03:54:51 -5453.417896  -3.35
iter:   2 03:55:23 -5453.414948  -4.31  -3.17
iter:   3 03:55:55 -5453.414498c -5.14  -3.50
iter:   4 03:56:27 -5453.414268c -5.00  -3.71
iter:   5 03:56:59 -5453.414233c -5.78  -4.00
iter:   6 03:57:31 -5453.414227c -5.76  -4.12c
iter:   7 03:58:03 -5453.414247c -6.19  -4.31c
iter:   8 03:58:35 -5453.414242c -6.84  -4.47c
iter:   9 03:59:07 -5453.414240c -6.97  -4.59c
iter:  10 03:59:38 -5453.414237c -7.30  -4.78c
iter:  11 04:00:10 -5453.414241c -7.94c -4.86c

Converged after 11 iterations.

Dipole moment: (-11.367788, -21.447763, 0.055183) |e|*Ang

Energy contributions relative to reference atoms: (reference = -5479259.888227)

Kinetic:       +1032.169951
Potential:     -930.241564
External:        +0.000000
XC:            -5558.301141
Entropy (-ST):   -0.438321
Local:           +3.177674
--------------------------
Free energy:   -5453.633401
Extrapolated:  -5453.414241

Showing only first 2 kpts
 Kpt  Band  Eigenvalues  Occupancy
  0   216     -4.34618    1.68621
  0   217     -4.20369    1.12758
  0   218     -4.06656    0.49399
  0   219     -3.94606    0.17900

  1   216     -4.00985    0.31371
  1   217     -3.87692    0.09385
  1   218     -3.74073    0.02491
  1   219     -3.48988    0.00205


Fermi level: -4.17803

No gap

Forces in eV/Ang:
  0 Cd   -0.01495   -0.00863   -0.22699
  1 Cd    0.01261    0.00728    0.22741
  2 Cd   -0.00020    0.00236   -0.00731
  3 Cd    0.00014    0.00282    0.02231
  4 Cd   -0.01650    0.02603   -0.23382
  5 Cd    0.01597   -0.01025    0.18766
  6 Cd   -0.00121   -0.00070   -0.00884
  7 Cd    0.01314    0.00758   -0.01471
  8 Cd    0.01429   -0.02730   -0.23382
  9 Cd   -0.00089    0.01895    0.18766
 10 Cd    0.00195   -0.00136   -0.00731
 11 Cd    0.00251   -0.00129    0.02231
 12 Cd    0.00784    0.02784   -0.22910
 13 Cd   -0.00673    0.00868    0.21939
 14 Cd   -0.01281   -0.00740    0.02013
 15 Cd    0.00480    0.00277    0.03233
 16 Cd    0.02803   -0.00713   -0.22910
 17 Cd    0.00415   -0.01017    0.21939
 18 Cd   -0.00248   -0.00061   -0.00657
 19 Cd   -0.00099   -0.00465   -0.02040
 20 Cd   -0.02588   -0.01494   -0.22203
 21 Cd    0.08372    0.04833    0.32244
 22 Cd   -0.00176   -0.00184   -0.00657
 23 Cd   -0.00453    0.00147   -0.02040
 24 Cd    0.00448    0.00658   -0.22627
 25 Cd   -0.00326   -0.09120    0.32291
 26 Cd    0.00477    0.00081   -0.00878
 27 Cd    0.00339   -0.01768   -0.01024
 28 Cd   -0.01239   -0.00715   -0.22970
 29 Cd   -0.01800   -0.01039    0.17253
 30 Cd    0.00309    0.00373   -0.00878
 31 Cd   -0.01362    0.01178   -0.01024
 32 Cd    0.00794    0.00058   -0.22627
 33 Cd   -0.08061    0.04277    0.32291
 34 Cd   -0.00234   -0.00135   -0.04479
 35 Cd   -0.01476   -0.00852   -0.03018
 36 C     0.02062    0.01191    0.00158

BFGS:   23 04:00:24    -5453.414241        0.0449
Timing:                                      incl.     excl.
-------------------------------------------------------------------
Density initialized from wave functions:    19.226    18.148   0.1% |
 Symmetrize density:                         1.078     1.078   0.0% |
Forces:                                    330.101   330.101   2.4% ||
Hamiltonian:                               117.154     0.004   0.0% |
 Atomic:                                     0.007     0.007   0.0% |
  XC Correction:                             0.000     0.000   0.0% |
 Calculate atomic Hamiltonians:              0.009     0.009   0.0% |
 Communicate:                                4.670     4.670   0.0% |
 Hartree integrate/restrict:                 0.373     0.373   0.0% |
 Initialize Hamiltonian:                     0.000     0.000   0.0% |
 Poisson:                                    6.119     0.229   0.0% |
  Communicate from 1D:                       0.521     0.521   0.0% |
  Communicate from 2D:                       1.001     1.001   0.0% |
  Communicate to 1D:                         0.274     0.274   0.0% |
  Communicate to 2D:                         1.206     1.206   0.0% |
  FFT 1D:                                    1.274     1.274   0.0% |
  FFT 2D:                                    1.614     1.614   0.0% |
 XC 3D grid:                               105.900    27.031   0.2% |
  VdW-DF integral:                          78.869     0.931   0.0% |
   Convolution:                             10.093    10.093   0.1% |
   FFT:                                      5.597     5.597   0.0% |
   gather:                                  22.093    22.093   0.2% |
   hmm1:                                     1.558     1.558   0.0% |
   hmm2:                                     3.275     3.275   0.0% |
   iFFT:                                     5.698     5.698   0.0% |
   potential:                               25.254     0.553   0.0% |
    collect:                                 2.167     2.167   0.0% |
    p1:                                     15.208    15.208   0.1% |
    p2:                                      5.061     5.061   0.0% |
    sum:                                     2.266     2.266   0.0% |
   splines:                                  4.369     4.369   0.0% |
 vbar:                                       0.072     0.072   0.0% |
LCAO initialization:                        24.861     0.833   0.0% |
 LCAO eigensolver:                          13.190     0.003   0.0% |
  Calculate projections:                     0.000     0.000   0.0% |
  DenseAtomicCorrection:                     0.000     0.000   0.0% |
  Distribute overlap matrix:                12.701    12.701   0.1% |
  Orbital Layouts:                           0.375     0.375   0.0% |
  Potential matrix:                          0.035     0.035   0.0% |
  Sum over cells:                            0.076     0.076   0.0% |
 LCAO to grid:                               9.587     9.587   0.1% |
 Set positions (LCAO WFS):                   1.250     0.953   0.0% |
  Basic WFS set positions:                   0.002     0.002   0.0% |
  Basis functions set positions:             0.000     0.000   0.0% |
  P tci:                                     0.000     0.000   0.0% |
  ST tci:                                    0.223     0.223   0.0% |
  mktci:                                     0.072     0.072   0.0% |
Redistribute:                                0.013     0.013   0.0% |
SCF-cycle:                               12694.463    67.302   0.5% |
 Davidson:                               10742.345  3039.755  22.0% |--------|
  Apply hamiltonian:                       385.230   385.230   2.8% ||
  Subspace diag:                          1394.564     0.052   0.0% |
   calc_h_matrix:                          736.037   357.158   2.6% ||
    Apply hamiltonian:                     378.879   378.879   2.7% ||
   diagonalize:                             13.268    13.268   0.1% |
   rotate_psi:                             645.207   645.207   4.7% |-|
  calc. matrices:                         4554.643  2312.091  16.7% |------|
   Apply hamiltonian:                     2242.552  2242.552  16.2% |-----|
  diagonalize:                              99.021    99.021   0.7% |
  rotate_psi:                             1269.133  1269.133   9.2% |---|
 Density:                                   48.050     0.010   0.0% |
  Atomic density matrices:                   1.807     1.807   0.0% |
  Mix:                                       8.990     8.990   0.1% |
  Multipole moments:                         0.166     0.166   0.0% |
  Pseudo density:                           37.077    20.997   0.2% |
   Symmetrize density:                      16.080    16.080   0.1% |
 Hamiltonian:                             1759.781     0.053   0.0% |
  Atomic:                                    0.098     0.097   0.0% |
   XC Correction:                            0.001     0.001   0.0% |
  Calculate atomic Hamiltonians:             0.137     0.137   0.0% |
  Communicate:                              73.123    73.123   0.5% |
  Hartree integrate/restrict:                5.778     5.778   0.0% |
  Poisson:                                  94.770     3.495   0.0% |
   Communicate from 1D:                      7.947     7.947   0.1% |
   Communicate from 2D:                     15.566    15.566   0.1% |
   Communicate to 1D:                        4.322     4.322   0.0% |
   Communicate to 2D:                       18.627    18.627   0.1% |
   FFT 1D:                                  19.845    19.845   0.1% |
   FFT 2D:                                  24.969    24.969   0.2% |
  XC 3D grid:                             1584.797   416.279   3.0% ||
   VdW-DF integral:                       1168.518    14.424   0.1% |
    Convolution:                           157.929   157.929   1.1% |
    FFT:                                    86.343    86.343   0.6% |
    gather:                                352.123   352.123   2.5% ||
    hmm1:                                   23.854    23.854   0.2% |
    hmm2:                                   50.373    50.373   0.4% |
    iFFT:                                   88.707    88.707   0.6% |
    potential:                             394.763     8.681   0.1% |
     collect:                               33.646    33.646   0.2% |
     p1:                                   236.877   236.877   1.7% ||
     p2:                                    78.847    78.847   0.6% |
     sum:                                   36.712    36.712   0.3% |
    splines:                                 0.002     0.002   0.0% |
  vbar:                                      1.024     1.024   0.0% |
 Orthonormalize:                            76.986     0.005   0.0% |
  calc_s_matrix:                             9.822     9.822   0.1% |
  inverse-cholesky:                         46.908    46.908   0.3% |
  projections:                               0.001     0.001   0.0% |
  rotate_psi_s:                             20.250    20.250   0.1% |
Set symmetry:                                0.002     0.002   0.0% |
Other:                                     657.806   657.806   4.8% |-|
-------------------------------------------------------------------
Total:                                             13843.627 100.0%

Memory usage: 2.06 GiB
Date: Thu Sep 28 04:00:24 2023
