
  ___ ___ ___ _ _ _  
 |   |   |_  | | | | 
 | | | | | . | | | | 
 |__ |  _|___|_____|  22.8.0
 |___|_|             

User:   s204775@c034.nifl.fysik.dtu.dk
Date:   Thu Sep 28 00:29:50 2023
Arch:   x86_64
Pid:    30185
CWD:    /home/cat/s204775/projects/Bachelor_project/C_missing_features
Python: 3.10.4
gpaw:   /home/modules/software/GPAW/22.8.0-intel-2022a/lib/python3.10/site-packages/gpaw
_gpaw:  /home/modules/software/GPAW/22.8.0-intel-2022a/lib/python3.10/site-packages/
        _gpaw.cpython-310-x86_64-linux-gnu.so
ase:    /home/modules/software/ASE/3.22.1-intel-2022a/lib/python3.10/site-packages/ase (version 3.22.1)
numpy:  /home/modules/software/SciPy-bundle/2022.05-intel-2022a/lib/python3.10/site-packages/numpy (version 1.22.3)
scipy:  /home/modules/software/SciPy-bundle/2022.05-intel-2022a/lib/python3.10/site-packages/scipy (version 1.8.1)
libxc:  5.2.3
units:  Angstrom and eV
cores: 40
OpenMP: False
OMP_NUM_THREADS: 1

Input parameters:
  basis: dzp
  h: 0.18
  kpts: {size: (4, 4, 1)}
  xc: BEEF-vdW

System changes: positions, numbers, cell, pbc, initial_charges, initial_magmoms 

Initialize ...

species:
  Cu:
    name: Copper
    id: f1c4d45d90492f1bbfdcb091e8418fdf
    Z: 29.0
    valence: 11
    core: 18
    charge: 0.0
    file: /home/modules/software/GPAW-setups/0.9.20000/Cu.PBE.gz
    compensation charges: {type: gauss,
                           rc: 0.33,
                           lmax: 2}
    cutoffs: {filter: 2.06,
              core: 2.43}
    valence states:
      #              energy  rcut
      - 4s(1.00)    -4.609   1.164
      - 4p(0.00)    -0.698   1.164
      - 3d(10.00)    -5.039   1.058
      -  s          22.603   1.164
      -  p          26.513   1.164
      -  d          22.172   1.058
  
    # LCAO basis set for Cu:
    #   Name: dzp
    #   File: /home/modules/software/GPAW-setups/0.9.20000/Cu.dzp.basis.gz
    #   Number of radial functions: 5
    #   Number of spherical harmonics: 15
    #     l=0, rc=8.9688 Bohr: 4s-sz confined orbital
    #     l=2, rc=5.1719 Bohr: 3d-sz confined orbital
    #     l=0, rc=5.3281 Bohr: 4s-dz split-valence wave
    #     l=2, rc=3.1406 Bohr: 3d-dz split-valence wave
    #     l=1, rc=8.9688 Bohr: p-type Gaussian polarization
    #   Number of RI-basis functions 0

  C:
    name: Carbon
    id: 4aa54d4b901d75f77cc0ea3eec22967b
    Z: 6.0
    valence: 4
    core: 2
    charge: 0.0
    file: /home/modules/software/GPAW-setups/0.9.20000/C.PBE.gz
    compensation charges: {type: gauss,
                           rc: 0.20,
                           lmax: 2}
    cutoffs: {filter: 1.14,
              core: 1.14}
    valence states:
      #              energy  rcut
      - 2s(2.00)   -13.751   0.635
      - 2p(2.00)    -5.284   0.635
      -  s          13.461   0.635
      -  p          21.927   0.635
      -  d           0.000   0.635
  
    # LCAO basis set for C:
    #   Name: dzp
    #   File: /home/modules/software/GPAW-setups/0.9.20000/C.dzp.basis.gz
    #   Number of radial functions: 5
    #   Number of spherical harmonics: 13
    #     l=0, rc=5.5469 Bohr: 2s-sz confined orbital
    #     l=1, rc=6.6719 Bohr: 2p-sz confined orbital
    #     l=0, rc=3.0312 Bohr: 2s-dz split-valence wave
    #     l=1, rc=3.7500 Bohr: 2p-dz split-valence wave
    #     l=2, rc=6.6719 Bohr: d-type Gaussian polarization
    #   Number of RI-basis functions 0

Reference energy: -1621799.894396  # eV

Spin-paired calculation

Convergence criteria:
 Maximum [total energy] change in last 3 cyles: 0.0005 eV / electron
 Maximum integral of absolute [dens]ity change: 0.0001 electrons / valence electron
 Maximum integral of absolute [eigenst]ate change: 4e-08 eV^2 / valence electron
 Maximum number of scf [iter]ations: 333
 (Square brackets indicate name in SCF output, whereas a 'c' in
 the SCF output indicates the quantity has converged.)

Symmetries present (total): 2

  ( 1  0  0)  ( 0 -1  0)
  ( 0  1  0)  (-1  0  0)
  ( 0  0  1)  ( 0  0  1)

16 k-points: 4 x 4 x 1 Monkhorst-Pack grid
6 k-points in the irreducible part of the Brillouin zone
       k-points in crystal coordinates                weights
   0:     0.12500000   -0.12500000    0.00000000          2/16
   1:     0.12500000    0.12500000    0.00000000          2/16
   2:     0.37500000   -0.37500000    0.00000000          2/16
   3:     0.37500000   -0.12500000    0.00000000          4/16
   4:     0.37500000    0.12500000    0.00000000          4/16
   5:     0.37500000    0.37500000    0.00000000          2/16

Wave functions: Uniform real-space grid
  Kinetic energy operator: 8*3+1=25 point O(h^6) finite-difference Laplacian
  ScaLapack parameters: grid=1x1, blocksize=None
  Wavefunction extrapolation:
    Improved wavefunction reuse through dual PAW basis 

Occupation numbers: Fermi-Dirac:
  width: 0.1000  # eV
 

Eigensolver
   Davidson(niter=2) 

Densities:
  Coarse grid: 36*36*148 grid
  Fine grid: 72*72*296 grid
  Total Charge: 0.000000 

Density mixing:
  Method: separate
  Backend: pulay
  Linear mixing parameter: 0.05
  old densities: 5
  Damping of long wavelength oscillations: 50 

Hamiltonian:
  XC and Coulomb potentials evaluated on a 72*72*296 grid
  Using the BEEF-vdW Exchange-Correlation functional
  Interpolation: tri-quintic (5. degree polynomial)
  Poisson solver: FastPoissonSolver using
    Stencil: 8*3+1=25 point O(h^6) finite-difference Laplacian
    FFT axes: [0, 1]
    FST axes: [2]
 

XC parameters: BEEF-vdW with 2 nearest neighbor stencil

Memory estimate:
  Process memory now: 183.70 MiB
  Calculator: 163.08 MiB
    Density: 9.94 MiB
      Arrays: 1.89 MiB
      Localized functions: 7.33 MiB
      Mixer: 0.72 MiB
    Hamiltonian: 1.79 MiB
      Arrays: 1.24 MiB
      XC: 0.00 MiB
      Poisson: 0.00 MiB
      vbar: 0.55 MiB
    Wavefunctions: 151.35 MiB
      Arrays psit_nG: 104.95 MiB
      Eigensolver: 44.79 MiB
      Projections: 0.37 MiB
      Projectors: 1.24 MiB

Total number of cores used: 40
Parallelization over k-points: 2
Domain decomposition: 2 x 2 x 5

Number of atoms: 37
Number of atomic orbitals: 553
Number of bands in calculation: 244
Number of valence electrons: 400
Bands to converge: occupied

... initialized

Initializing position-dependent things.

Density initialized from atomic densities
Creating initial wave functions:
  244 bands from LCAO basis set

                                          
                                          
                                          
                                          
                                          
                   C                      
          Cu    Cu    Cu                  
           CCu   CCu   CCu                
             Cu     Cu    Cu              
             Cu    Cu    Cu               
             CCu    CCu   CCu             
                                          
               Cu     Cu    Cu            
                 Cu    Cu     Cu          
          Cu    Cu    Cu                  
            Cu    Cu    Cu                
             Cu     Cu    Cu              
                                          
                                          
                                          
                                          

Positions:
   0 Cu     0.000000    0.000000    9.999999    ( 0.0000,  0.0000,  0.0000)
   1 Cu     1.303035    0.752307   12.127846    ( 0.0000,  0.0000,  0.0000)
   2 Cu    -0.000000    1.504615   14.261004    ( 0.0000,  0.0000,  0.0000)
   3 Cu     0.000000    0.000000   16.395505    ( 0.0000,  0.0000,  0.0000)
   4 Cu    -1.303035    2.256922    9.999999    ( 0.0000,  0.0000,  0.0000)
   5 Cu     0.000000    3.009230   12.127846    ( 0.0000,  0.0000,  0.0000)
   6 Cu    -1.303035    3.761537   14.261004    ( 0.0000,  0.0000,  0.0000)
   7 Cu    -1.303035    2.256922   16.395505    ( 0.0000,  0.0000,  0.0000)
   8 Cu    -2.606069    4.513845    9.999999    ( 0.0000,  0.0000,  0.0000)
   9 Cu    -1.303035    5.266152   12.127846    ( 0.0000,  0.0000,  0.0000)
  10 Cu    -2.606069    6.018460   14.261004    ( 0.0000,  0.0000,  0.0000)
  11 Cu    -2.606069    4.513845   16.395505    ( 0.0000,  0.0000,  0.0000)
  12 Cu     2.606069    0.000000    9.999999    ( 0.0000,  0.0000,  0.0000)
  13 Cu     3.909104    0.752307   12.127846    ( 0.0000,  0.0000,  0.0000)
  14 Cu     2.606069    1.504615   14.261004    ( 0.0000,  0.0000,  0.0000)
  15 Cu     2.606069   -0.000000   16.395505    ( 0.0000,  0.0000,  0.0000)
  16 Cu     1.303035    2.256922    9.999999    ( 0.0000,  0.0000,  0.0000)
  17 Cu     2.606069    3.009230   12.127846    ( 0.0000,  0.0000,  0.0000)
  18 Cu     1.303035    3.761537   14.261004    ( 0.0000,  0.0000,  0.0000)
  19 Cu     1.303035    2.256922   16.395505    ( 0.0000,  0.0000,  0.0000)
  20 Cu     0.000000    4.513845    9.999999    ( 0.0000,  0.0000,  0.0000)
  21 Cu     1.303035    5.266152   12.127846    ( 0.0000,  0.0000,  0.0000)
  22 Cu    -0.000000    6.018460   14.261004    ( 0.0000,  0.0000,  0.0000)
  23 Cu     0.000000    4.513845   16.395505    ( 0.0000,  0.0000,  0.0000)
  24 Cu     5.212139    0.000000    9.999999    ( 0.0000,  0.0000,  0.0000)
  25 Cu     6.515174    0.752307   12.127846    ( 0.0000,  0.0000,  0.0000)
  26 Cu     5.212139    1.504615   14.261004    ( 0.0000,  0.0000,  0.0000)
  27 Cu     5.212139   -0.000000   16.395505    ( 0.0000,  0.0000,  0.0000)
  28 Cu     3.909104    2.256922    9.999999    ( 0.0000,  0.0000,  0.0000)
  29 Cu     5.212139    3.009230   12.127846    ( 0.0000,  0.0000,  0.0000)
  30 Cu     3.909104    3.761537   14.261004    ( 0.0000,  0.0000,  0.0000)
  31 Cu     3.909104    2.256922   16.395505    ( 0.0000,  0.0000,  0.0000)
  32 Cu     2.606069    4.513845    9.999999    ( 0.0000,  0.0000,  0.0000)
  33 Cu     3.909104    5.266152   12.127846    ( 0.0000,  0.0000,  0.0000)
  34 Cu     2.606069    6.018460   14.261004    ( 0.0000,  0.0000,  0.0000)
  35 Cu     2.606069    4.513845   16.395505    ( 0.0000,  0.0000,  0.0000)
  36 C      1.303035    3.761537   17.147812    ( 0.0000,  0.0000,  0.0000)

Unit cell:
           periodic     x           y           z      points  spacing
  1. axis:    yes    7.818208    0.000000    0.000000    36     0.1881
  2. axis:    yes   -3.909104    6.770767    0.000000    36     0.1881
  3. axis:    no     0.000000    0.000000   26.383539   148     0.1783

  Lengths:   7.818208   7.818208  26.383539
  Angles:   90.000000  90.000000 120.000000

Effective grid spacing dv^(1/3) = 0.1938

     iter     time        total  log10-change:
                         energy  eigst   dens
iter:   1 00:30:17 -2764.482891
iter:   2 00:30:31 -2757.850104  -0.56  -1.20
iter:   3 00:30:46 -2750.663397  -1.01  -1.25
iter:   4 00:31:00 -2743.684954  -0.49  -1.33
iter:   5 00:31:14 -2743.922066  -0.75  -1.53
iter:   6 00:31:28 -2742.401770  -1.52  -1.71
iter:   7 00:31:43 -2744.138253  -1.30  -1.77
iter:   8 00:31:57 -2742.238464  -1.55  -1.68
iter:   9 00:32:11 -2740.848415  -1.32  -1.84
iter:  10 00:32:25 -2740.328878  -2.37  -2.21
iter:  11 00:32:39 -2740.360857  -2.56  -2.43
iter:  12 00:32:54 -2740.292601c -3.04  -2.46
iter:  13 00:33:08 -2740.258842c -3.17  -2.64
iter:  14 00:33:22 -2740.256586c -3.15  -2.88
iter:  15 00:33:36 -2740.254760c -4.18  -2.95
iter:  16 00:33:50 -2740.250863c -4.36  -2.98
iter:  17 00:34:05 -2740.255117c -3.29  -3.05
iter:  18 00:34:19 -2740.248800c -3.73  -3.16
iter:  19 00:34:33 -2740.248874c -4.55  -3.43
iter:  20 00:34:47 -2740.248823c -4.41  -3.47
iter:  21 00:35:01 -2740.248533c -4.97  -3.69
iter:  22 00:35:15 -2740.248476c -5.41  -3.86
iter:  23 00:35:30 -2740.248496c -5.13  -3.92
iter:  24 00:35:44 -2740.248468c -5.14  -4.02c
iter:  25 00:35:58 -2740.248416c -5.97  -4.07c
iter:  26 00:36:12 -2740.248383c -5.64  -4.23c
iter:  27 00:36:26 -2740.248381c -6.61  -4.32c
iter:  28 00:36:41 -2740.248373c -6.71  -4.53c
iter:  29 00:36:55 -2740.248384c -7.61c -4.68c

Converged after 29 iterations.

Dipole moment: (-3.555287, -6.063768, -0.089527) |e|*Ang

Energy contributions relative to reference atoms: (reference = -1621799.894396)

Kinetic:       +233.475671
Potential:     -270.283948
External:        +0.000000
XC:            -2704.836327
Entropy (-ST):   -0.381046
Local:           +1.586743
--------------------------
Free energy:   -2740.438907
Extrapolated:  -2740.248384

Showing only first 2 kpts
 Kpt  Band  Eigenvalues  Occupancy
  0   198     -5.77091    1.99859
  0   199     -5.56781    1.98927
  0   200     -5.29161    1.84259
  0   201     -5.27449    1.81591

  1   198     -5.53221    1.98471
  1   199     -5.51387    1.98166
  1   200     -5.20125    1.65170
  1   201     -5.00178    0.78435


Fermi level: -5.04560

No gap

Forces in eV/Ang:
  0 Cu    0.00880   -0.00508   -0.04656
  1 Cu   -0.00687   -0.01080   -0.01834
  2 Cu    0.02061   -0.03142   -0.05391
  3 Cu    0.07024   -0.04055   -0.01143
  4 Cu   -0.03056   -0.00706   -0.08527
  5 Cu   -0.00397   -0.00106   -0.02872
  6 Cu   -0.03446    0.03076   -0.06681
  7 Cu   -0.15732   -0.08726    0.01702
  8 Cu    0.00276    0.00314   -0.08325
  9 Cu   -0.01586    0.00916   -0.01201
 10 Cu    0.00984   -0.00568    0.07560
 11 Cu    0.00220    0.07467   -0.01284
 12 Cu   -0.00134   -0.00396   -0.08325
 13 Cu    0.01134   -0.00341    0.00871
 14 Cu   -0.01140   -0.04252   -0.06175
 15 Cu   -0.06356   -0.03924   -0.01284
 16 Cu    0.00333   -0.00738   -0.07426
 17 Cu   -0.01306    0.00754   -0.01483
 18 Cu    0.00798   -0.00461   -0.48671
 19 Cu   -0.00317   -4.05434   -1.38636
 20 Cu   -0.01447    0.00835   -0.07233
 21 Cu   -0.00106    0.00397   -0.02872
 22 Cu   -0.04387    0.01446   -0.06681
 23 Cu   -3.50402    2.02305   -1.38387
 24 Cu   -0.00917    0.03000   -0.08527
 25 Cu   -0.01659    0.00958   -0.00299
 26 Cu   -0.00349    0.00202    0.04539
 27 Cu   -0.00309    0.17987    0.01702
 28 Cu    0.02884   -0.01665   -0.10184
 29 Cu    0.00862   -0.00812    0.00871
 30 Cu    0.03113    0.03113   -0.06175
 31 Cu    0.17354   -0.10019    0.01152
 32 Cu    0.00806    0.00080   -0.07426
 33 Cu    0.00592    0.01134   -0.01834
 34 Cu    0.03752   -0.00214   -0.05391
 35 Cu    3.50958    2.02992   -1.38636
 36 C    -0.00288    0.00166    5.19475

      Step     Time          Energy         fmax
BFGS:    0 00:37:03    -2740.248384        5.1948
System changes: positions 

Initializing position-dependent things.

Density initialized from wave functions
                                          
                                          
                                          
                                          
                                          
                   C                      
          Cu    Cu     Cu                 
           CCu   CCu   CCu                
             Cu     Cu    Cu              
             Cu    Cu    Cu               
             CCu    CCu   CCu             
                                          
               Cu     Cu    Cu            
                 Cu    Cu     Cu          
          Cu    Cu    Cu                  
            Cu    Cu    Cu                
             Cu     Cu    Cu              
                                          
                                          
                                          
                                          

Positions:
   0 Cu     0.000000    0.000000    9.999999    ( 0.0000,  0.0000,  0.0000)
   1 Cu     1.303035    0.752307   12.127846    ( 0.0000,  0.0000,  0.0000)
   2 Cu     0.000294    1.504166   14.260233    ( 0.0000,  0.0000,  0.0000)
   3 Cu     0.001003   -0.000579   16.395341    ( 0.0000,  0.0000,  0.0000)
   4 Cu    -1.303035    2.256922    9.999999    ( 0.0000,  0.0000,  0.0000)
   5 Cu     0.000000    3.009230   12.127846    ( 0.0000,  0.0000,  0.0000)
   6 Cu    -1.303527    3.761977   14.260049    ( 0.0000,  0.0000,  0.0000)
   7 Cu    -1.305282    2.255676   16.395748    ( 0.0000,  0.0000,  0.0000)
   8 Cu    -2.606069    4.513845    9.999999    ( 0.0000,  0.0000,  0.0000)
   9 Cu    -1.303035    5.266152   12.127846    ( 0.0000,  0.0000,  0.0000)
  10 Cu    -2.605929    6.018379   14.262084    ( 0.0000,  0.0000,  0.0000)
  11 Cu    -2.606038    4.514912   16.395321    ( 0.0000,  0.0000,  0.0000)
  12 Cu     2.606069    0.000000    9.999999    ( 0.0000,  0.0000,  0.0000)
  13 Cu     3.909104    0.752307   12.127846    ( 0.0000,  0.0000,  0.0000)
  14 Cu     2.605907    1.504007   14.260121    ( 0.0000,  0.0000,  0.0000)
  15 Cu     2.605161   -0.000561   16.395321    ( 0.0000,  0.0000,  0.0000)
  16 Cu     1.303035    2.256922    9.999999    ( 0.0000,  0.0000,  0.0000)
  17 Cu     2.606069    3.009230   12.127846    ( 0.0000,  0.0000,  0.0000)
  18 Cu     1.303149    3.761471   14.254051    ( 0.0000,  0.0000,  0.0000)
  19 Cu     1.302989    2.199003   16.375700    ( 0.0000,  0.0000,  0.0000)
  20 Cu     0.000000    4.513845    9.999999    ( 0.0000,  0.0000,  0.0000)
  21 Cu     1.303035    5.266152   12.127846    ( 0.0000,  0.0000,  0.0000)
  22 Cu    -0.000627    6.018666   14.260049    ( 0.0000,  0.0000,  0.0000)
  23 Cu    -0.050057    4.542745   16.375735    ( 0.0000,  0.0000,  0.0000)
  24 Cu     5.212139    0.000000    9.999999    ( 0.0000,  0.0000,  0.0000)
  25 Cu     6.515174    0.752307   12.127846    ( 0.0000,  0.0000,  0.0000)
  26 Cu     5.212089    1.504644   14.261652    ( 0.0000,  0.0000,  0.0000)
  27 Cu     5.212095    0.002570   16.395748    ( 0.0000,  0.0000,  0.0000)
  28 Cu     3.909104    2.256922    9.999999    ( 0.0000,  0.0000,  0.0000)
  29 Cu     5.212139    3.009230   12.127846    ( 0.0000,  0.0000,  0.0000)
  30 Cu     3.909549    3.761982   14.260121    ( 0.0000,  0.0000,  0.0000)
  31 Cu     3.911583    2.255491   16.395669    ( 0.0000,  0.0000,  0.0000)
  32 Cu     2.606069    4.513845    9.999999    ( 0.0000,  0.0000,  0.0000)
  33 Cu     3.909104    5.266152   12.127846    ( 0.0000,  0.0000,  0.0000)
  34 Cu     2.606605    6.018429   14.260233    ( 0.0000,  0.0000,  0.0000)
  35 Cu     2.656206    4.542844   16.375700    ( 0.0000,  0.0000,  0.0000)
  36 C      1.302993    3.761561   17.222023    ( 0.0000,  0.0000,  0.0000)

Unit cell:
           periodic     x           y           z      points  spacing
  1. axis:    yes    7.818208    0.000000    0.000000    36     0.1881
  2. axis:    yes   -3.909104    6.770767    0.000000    36     0.1881
  3. axis:    no     0.000000    0.000000   26.383539   148     0.1783

  Lengths:   7.818208   7.818208  26.383539
  Angles:   90.000000  90.000000 120.000000

Effective grid spacing dv^(1/3) = 0.1938

     iter     time        total  log10-change:
                         energy  eigst   dens
iter:   1 00:37:38 -2743.988538  -0.92
iter:   2 00:37:52 -2741.994038  -1.74  -1.97
iter:   3 00:38:06 -2741.457648  -2.18  -2.11
iter:   4 00:38:21 -2741.075877  -2.28  -2.31
iter:   5 00:38:35 -2741.048486  -3.27  -2.81
iter:   6 00:38:49 -2741.034297c -3.10  -2.91
iter:   7 00:39:04 -2741.029572c -3.24  -3.06
iter:   8 00:39:18 -2741.029113c -3.92  -3.27
iter:   9 00:39:32 -2741.027261c -4.29  -3.37
iter:  10 00:39:47 -2741.028796c -4.02  -3.41
iter:  11 00:40:01 -2741.029852c -4.22  -3.54
iter:  12 00:40:15 -2741.026962c -4.41  -3.64
iter:  13 00:40:30 -2741.027334c -4.36  -3.77
iter:  14 00:40:44 -2741.027057c -5.04  -3.97
iter:  15 00:40:58 -2741.026895c -5.16  -4.05c
iter:  16 00:41:13 -2741.026903c -6.14  -4.20c
iter:  17 00:41:27 -2741.026916c -5.99  -4.30c
iter:  18 00:41:41 -2741.026967c -5.89  -4.43c
iter:  19 00:41:56 -2741.026870c -6.11  -4.63c
iter:  20 00:42:10 -2741.026879c -6.73  -4.67c
iter:  21 00:42:24 -2741.026890c -7.48c -4.77c

Converged after 21 iterations.

Dipole moment: (-3.466292, -6.114901, -0.118147) |e|*Ang

Energy contributions relative to reference atoms: (reference = -1621799.894396)

Kinetic:       +223.567520
Potential:     -262.515373
External:        +0.000000
XC:            -2703.472577
Entropy (-ST):   -0.379667
Local:           +1.583373
--------------------------
Free energy:   -2741.216723
Extrapolated:  -2741.026890

Showing only first 2 kpts
 Kpt  Band  Eigenvalues  Occupancy
  0   198     -5.79823    1.99855
  0   199     -5.60126    1.98968
  0   200     -5.32033    1.84141
  0   201     -5.30285    1.81394

  1   198     -5.55869    1.98424
  1   199     -5.55380    1.98346
  1   200     -5.23845    1.67321
  1   201     -5.04629    0.85678


Fermi level: -5.07513

No gap

Forces in eV/Ang:
  0 Cu    0.00959   -0.00554   -0.04614
  1 Cu   -0.00784   -0.01371   -0.02017
  2 Cu   -0.01191   -0.01950   -0.07756
  3 Cu    0.03954   -0.02283   -0.00876
  4 Cu   -0.03116   -0.00796   -0.08475
  5 Cu   -0.00844   -0.00463   -0.03688
  6 Cu   -0.03303   -0.00314   -0.08740
  7 Cu   -0.07558   -0.04073    0.02115
  8 Cu    0.00267    0.00512   -0.08315
  9 Cu   -0.01905    0.01100   -0.01401
 10 Cu    0.00632   -0.00365    0.05418
 11 Cu    0.00158    0.03985   -0.00761
 12 Cu   -0.00310   -0.00488   -0.08315
 13 Cu    0.01312   -0.00234    0.00364
 14 Cu    0.01726   -0.02619   -0.08262
 15 Cu   -0.03372   -0.02130   -0.00761
 16 Cu    0.00327   -0.00578   -0.07387
 17 Cu   -0.00840    0.00485   -0.02160
 18 Cu    0.00590   -0.00341   -0.25893
 19 Cu   -0.00341   -1.55573   -0.49138
 20 Cu   -0.01307    0.00755   -0.07136
 21 Cu   -0.00021    0.00962   -0.03688
 22 Cu   -0.01379    0.03018   -0.08740
 23 Cu   -1.34535    0.77674   -0.49053
 24 Cu   -0.00869    0.03097   -0.08475
 25 Cu   -0.01784    0.01030   -0.00918
 26 Cu   -0.00167    0.00097    0.03108
 27 Cu   -0.00251    0.08582    0.02115
 28 Cu    0.02933   -0.01693   -0.10227
 29 Cu    0.00859   -0.01019    0.00364
 30 Cu    0.03131   -0.00185   -0.08262
 31 Cu    0.08667   -0.05004    0.01879
 32 Cu    0.00664    0.00006   -0.07387
 33 Cu    0.00795    0.01364   -0.02017
 34 Cu    0.01093    0.02007   -0.07756
 35 Cu    1.34560    0.78082   -0.49138
 36 C     0.00634   -0.00366    2.31714

BFGS:    1 00:42:32    -2741.026890        2.3172
System changes: positions 

Initializing position-dependent things.

Density initialized from wave functions
                                          
                                          
                                          
                                          
                                          
                   C                      
          Cu    Cu     Cu                 
           CCu   CCu   CCu                
             Cu     Cu    Cu              
             Cu    Cu    Cu               
              Cu     Cu    Cu             
             Cu     Cu    Cu              
               Cu     Cu    Cu            
                 Cu    Cu     Cu          
          Cu    Cu    Cu                  
            Cu    Cu    Cu                
             Cu     Cu    Cu              
                                          
                                          
                                          
                                          

Positions:
   0 Cu     0.000000    0.000000    9.999999    ( 0.0000,  0.0000,  0.0000)
   1 Cu     1.303035    0.752307   12.127846    ( 0.0000,  0.0000,  0.0000)
   2 Cu     0.000011    1.503698   14.258375    ( 0.0000,  0.0000,  0.0000)
   3 Cu     0.001953   -0.001128   16.395131    ( 0.0000,  0.0000,  0.0000)
   4 Cu    -1.303035    2.256922    9.999999    ( 0.0000,  0.0000,  0.0000)
   5 Cu     0.000000    3.009230   12.127846    ( 0.0000,  0.0000,  0.0000)
   6 Cu    -1.304319    3.761903   14.257954    ( 0.0000,  0.0000,  0.0000)
   7 Cu    -1.307099    2.254696   16.396255    ( 0.0000,  0.0000,  0.0000)
   8 Cu    -2.606069    4.513845    9.999999    ( 0.0000,  0.0000,  0.0000)
   9 Cu    -1.303035    5.266152   12.127846    ( 0.0000,  0.0000,  0.0000)
  10 Cu    -2.605777    6.018291   14.263384    ( 0.0000,  0.0000,  0.0000)
  11 Cu    -2.606000    4.515869   16.395139    ( 0.0000,  0.0000,  0.0000)
  12 Cu     2.606069    0.000000    9.999999    ( 0.0000,  0.0000,  0.0000)
  13 Cu     3.909104    0.752307   12.127846    ( 0.0000,  0.0000,  0.0000)
  14 Cu     2.606319    1.503378   14.258141    ( 0.0000,  0.0000,  0.0000)
  15 Cu     2.604351   -0.001072   16.395139    ( 0.0000,  0.0000,  0.0000)
  16 Cu     1.303035    2.256922    9.999999    ( 0.0000,  0.0000,  0.0000)
  17 Cu     2.606069    3.009230   12.127846    ( 0.0000,  0.0000,  0.0000)
  18 Cu     1.303290    3.761390   14.247828    ( 0.0000,  0.0000,  0.0000)
  19 Cu     1.302908    2.161553   16.363865    ( 0.0000,  0.0000,  0.0000)
  20 Cu     0.000000    4.513845    9.999999    ( 0.0000,  0.0000,  0.0000)
  21 Cu     1.303035    5.266152   12.127846    ( 0.0000,  0.0000,  0.0000)
  22 Cu    -0.000959    6.019389   14.257954    ( 0.0000,  0.0000,  0.0000)
  23 Cu    -0.082443    4.561443   16.363921    ( 0.0000,  0.0000,  0.0000)
  24 Cu     5.212139    0.000000    9.999999    ( 0.0000,  0.0000,  0.0000)
  25 Cu     6.515174    0.752307   12.127846    ( 0.0000,  0.0000,  0.0000)
  26 Cu     5.212049    1.504667   14.262398    ( 0.0000,  0.0000,  0.0000)
  27 Cu     5.212035    0.004633   16.396255    ( 0.0000,  0.0000,  0.0000)
  28 Cu     3.909104    2.256922    9.999999    ( 0.0000,  0.0000,  0.0000)
  29 Cu     5.212139    3.009230   12.127846    ( 0.0000,  0.0000,  0.0000)
  30 Cu     3.910300    3.761939   14.258141    ( 0.0000,  0.0000,  0.0000)
  31 Cu     3.913667    2.254288   16.396120    ( 0.0000,  0.0000,  0.0000)
  32 Cu     2.606069    4.513845    9.999999    ( 0.0000,  0.0000,  0.0000)
  33 Cu     3.909104    5.266152   12.127846    ( 0.0000,  0.0000,  0.0000)
  34 Cu     2.606869    6.018909   14.258375    ( 0.0000,  0.0000,  0.0000)
  35 Cu     2.688598    4.561639   16.363865    ( 0.0000,  0.0000,  0.0000)
  36 C      1.303145    3.761474   17.277756    ( 0.0000,  0.0000,  0.0000)

Unit cell:
           periodic     x           y           z      points  spacing
  1. axis:    yes    7.818208    0.000000    0.000000    36     0.1881
  2. axis:    yes   -3.909104    6.770767    0.000000    36     0.1881
  3. axis:    no     0.000000    0.000000   26.383539   148     0.1783

  Lengths:   7.818208   7.818208  26.383539
  Angles:   90.000000  90.000000 120.000000

Effective grid spacing dv^(1/3) = 0.1938

     iter     time        total  log10-change:
                         energy  eigst   dens
iter:   1 00:43:08 -2742.712551  -1.34
iter:   2 00:43:22 -2741.752557  -2.04  -2.09
iter:   3 00:43:37 -2741.408710  -2.60  -2.26
iter:   4 00:43:51 -2741.255177  -2.77  -2.49
iter:   5 00:44:06 -2741.244816c -3.44  -2.99
iter:   6 00:44:20 -2741.239305c -3.46  -3.10
iter:   7 00:44:35 -2741.237462c -3.69  -3.28
iter:   8 00:44:49 -2741.237117c -4.50  -3.47
iter:   9 00:45:03 -2741.237403c -4.10  -3.54
iter:  10 00:45:18 -2741.237541c -4.79  -3.75
iter:  11 00:45:32 -2741.236785c -5.29  -3.82
iter:  12 00:45:47 -2741.236727c -5.21  -3.87
iter:  13 00:46:01 -2741.236636c -5.32  -4.05c
iter:  14 00:46:16 -2741.236563c -5.39  -4.12c
iter:  15 00:46:30 -2741.236448c -5.69  -4.24c
iter:  16 00:46:45 -2741.236491c -6.00  -4.41c
iter:  17 00:46:59 -2741.236484c -6.66  -4.48c
iter:  18 00:47:13 -2741.236490c -6.81  -4.64c
iter:  19 00:47:28 -2741.236479c -7.16  -4.72c
iter:  20 00:47:42 -2741.236481c -7.49c -4.77c

Converged after 20 iterations.

Dipole moment: (-3.418226, -6.140496, -0.138239) |e|*Ang

Energy contributions relative to reference atoms: (reference = -1621799.894396)

Kinetic:       +219.207511
Potential:     -259.062288
External:        +0.000000
XC:            -2702.765864
Entropy (-ST):   -0.378490
Local:           +1.573405
--------------------------
Free energy:   -2741.425726
Extrapolated:  -2741.236481

Showing only first 2 kpts
 Kpt  Band  Eigenvalues  Occupancy
  0   198     -5.81793    1.99856
  0   199     -5.62413    1.99001
  0   200     -5.34124    1.84334
  0   201     -5.32131    1.81204

  1   198     -5.58532    1.98531
  1   199     -5.57401    1.98356
  1   200     -5.26607    1.69460
  1   201     -5.07348    0.89422


Fermi level: -5.09471

No gap

Forces in eV/Ang:
  0 Cu    0.00994   -0.00574   -0.04542
  1 Cu   -0.00834   -0.01753   -0.02073
  2 Cu   -0.02473   -0.01503   -0.07879
  3 Cu    0.01570   -0.00907   -0.00175
  4 Cu   -0.03118   -0.00821   -0.08349
  5 Cu   -0.01130   -0.00701   -0.04845
  6 Cu   -0.02933   -0.01534   -0.08560
  7 Cu   -0.01422   -0.00583    0.02609
  8 Cu    0.00255    0.00608   -0.08229
  9 Cu   -0.02281    0.01317   -0.01496
 10 Cu    0.00294   -0.00170    0.03410
 11 Cu    0.00056    0.01354    0.00146
 12 Cu   -0.00399   -0.00525   -0.08229
 13 Cu    0.01501   -0.00086   -0.00213
 14 Cu    0.02726   -0.01807   -0.08189
 15 Cu   -0.01145   -0.00726    0.00146
 16 Cu    0.00325   -0.00425   -0.07245
 17 Cu   -0.00506    0.00292   -0.03216
 18 Cu    0.00320   -0.00185   -0.11873
 19 Cu   -0.00256   -0.43969    0.08356
 20 Cu   -0.01161    0.00670   -0.06944
 21 Cu    0.00042    0.01330   -0.04845
 22 Cu   -0.00138    0.03307   -0.08560
 23 Cu   -0.38175    0.22040    0.08376
 24 Cu   -0.00848    0.03111   -0.08349
 25 Cu   -0.01945    0.01123   -0.01555
 26 Cu   -0.00041    0.00024    0.01929
 27 Cu   -0.00206    0.01523    0.02609
 28 Cu    0.02924   -0.01688   -0.10171
 29 Cu    0.00825   -0.01257   -0.00213
 30 Cu    0.02928   -0.01457   -0.08189
 31 Cu    0.01999   -0.01154    0.02624
 32 Cu    0.00531   -0.00069   -0.07245
 33 Cu    0.01101    0.01599   -0.02073
 34 Cu    0.00065    0.02894   -0.07879
 35 Cu    0.37950    0.22207    0.08356
 36 C     0.00819   -0.00473    0.79528

BFGS:    2 00:47:50    -2741.236481        0.7953
System changes: positions 

Initializing position-dependent things.

Density initialized from wave functions
                                          
                                          
                                          
                                          
                                          
                   C                      
          Cu    Cu     Cu                 
           CCu   CCu   CCu                
             Cu     Cu    Cu              
             Cu    Cu    Cu               
              Cu     Cu    Cu             
             Cu     Cu    Cu              
               Cu     Cu    Cu            
                 Cu    Cu     Cu          
          Cu    Cu    Cu                  
            Cu    Cu    Cu                
             Cu     Cu    Cu              
                                          
                                          
                                          
                                          

Positions:
   0 Cu     0.000000    0.000000    9.999999    ( 0.0000,  0.0000,  0.0000)
   1 Cu     1.303035    0.752307   12.127846    ( 0.0000,  0.0000,  0.0000)
   2 Cu    -0.000533    1.503314   14.256472    ( 0.0000,  0.0000,  0.0000)
   3 Cu     0.002437   -0.001407   16.395059    ( 0.0000,  0.0000,  0.0000)
   4 Cu    -1.303035    2.256922    9.999999    ( 0.0000,  0.0000,  0.0000)
   5 Cu     0.000000    3.009230   12.127846    ( 0.0000,  0.0000,  0.0000)
   6 Cu    -1.305046    3.761585   14.255873    ( 0.0000,  0.0000,  0.0000)
   7 Cu    -1.307709    2.254404   16.396866    ( 0.0000,  0.0000,  0.0000)
   8 Cu    -2.606069    4.513845    9.999999    ( 0.0000,  0.0000,  0.0000)
   9 Cu    -1.303035    5.266152   12.127846    ( 0.0000,  0.0000,  0.0000)
  10 Cu    -2.605691    6.018241   14.264297    ( 0.0000,  0.0000,  0.0000)
  11 Cu    -2.605982    4.516311   16.395135    ( 0.0000,  0.0000,  0.0000)
  12 Cu     2.606069    0.000000    9.999999    ( 0.0000,  0.0000,  0.0000)
  13 Cu     3.909104    0.752307   12.127846    ( 0.0000,  0.0000,  0.0000)
  14 Cu     2.606936    1.502905   14.256155    ( 0.0000,  0.0000,  0.0000)
  15 Cu     2.603978   -0.001309   16.395135    ( 0.0000,  0.0000,  0.0000)
  16 Cu     1.303035    2.256922    9.999999    ( 0.0000,  0.0000,  0.0000)
  17 Cu     2.606069    3.009230   12.127846    ( 0.0000,  0.0000,  0.0000)
  18 Cu     1.303380    3.761338   14.244343    ( 0.0000,  0.0000,  0.0000)
  19 Cu     1.302842    2.146017   16.363402    ( 0.0000,  0.0000,  0.0000)
  20 Cu     0.000000    4.513845    9.999999    ( 0.0000,  0.0000,  0.0000)
  21 Cu     1.303035    5.266152   12.127846    ( 0.0000,  0.0000,  0.0000)
  22 Cu    -0.001047    6.020177   14.255873    ( 0.0000,  0.0000,  0.0000)
  23 Cu    -0.095908    4.569217   16.363466    ( 0.0000,  0.0000,  0.0000)
  24 Cu     5.212139    0.000000    9.999999    ( 0.0000,  0.0000,  0.0000)
  25 Cu     6.515174    0.752307   12.127846    ( 0.0000,  0.0000,  0.0000)
  26 Cu     5.212034    1.504676   14.262917    ( 0.0000,  0.0000,  0.0000)
  27 Cu     5.211983    0.005307   16.396866    ( 0.0000,  0.0000,  0.0000)
  28 Cu     3.909104    2.256922    9.999999    ( 0.0000,  0.0000,  0.0000)
  29 Cu     5.212139    3.009230   12.127846    ( 0.0000,  0.0000,  0.0000)
  30 Cu     3.911018    3.761642   14.256155    ( 0.0000,  0.0000,  0.0000)
  31 Cu     3.914439    2.253842   16.396724    ( 0.0000,  0.0000,  0.0000)
  32 Cu     2.606069    4.513845    9.999999    ( 0.0000,  0.0000,  0.0000)
  33 Cu     3.909104    5.266152   12.127846    ( 0.0000,  0.0000,  0.0000)
  34 Cu     2.606930    6.019572   14.256472    ( 0.0000,  0.0000,  0.0000)
  35 Cu     2.702020    4.569464   16.363402    ( 0.0000,  0.0000,  0.0000)
  36 C      1.303335    3.761364   17.303650    ( 0.0000,  0.0000,  0.0000)

Unit cell:
           periodic     x           y           z      points  spacing
  1. axis:    yes    7.818208    0.000000    0.000000    36     0.1881
  2. axis:    yes   -3.909104    6.770767    0.000000    36     0.1881
  3. axis:    no     0.000000    0.000000   26.383539   148     0.1783

  Lengths:   7.818208   7.818208  26.383539
  Angles:   90.000000  90.000000 120.000000

Effective grid spacing dv^(1/3) = 0.1938

     iter     time        total  log10-change:
                         energy  eigst   dens
iter:   1 00:48:25 -2741.532373  -2.20
iter:   2 00:48:40 -2741.370027  -2.75  -2.43
iter:   3 00:48:54 -2741.285709  -3.44  -2.61
iter:   4 00:49:08 -2741.265849c -3.62  -2.90
iter:   5 00:49:23 -2741.263772c -3.90  -3.35
iter:   6 00:49:37 -2741.262590c -4.21  -3.50
iter:   7 00:49:51 -2741.262367c -4.59  -3.72
iter:   8 00:50:05 -2741.262319c -5.38  -3.86
iter:   9 00:50:20 -2741.262340c -5.09  -3.92
iter:  10 00:50:34 -2741.262323c -5.73  -4.15c
iter:  11 00:50:48 -2741.262309c -6.21  -4.32c
iter:  12 00:51:02 -2741.262323c -6.12  -4.39c
iter:  13 00:51:16 -2741.262277c -6.60  -4.52c
iter:  14 00:51:31 -2741.262271c -6.39  -4.58c
iter:  15 00:51:45 -2741.262261c -6.94  -4.73c
iter:  16 00:51:59 -2741.262268c -7.06  -4.76c
iter:  17 00:52:13 -2741.262284c -7.00  -4.86c
iter:  18 00:52:27 -2741.262277c -7.47c -5.13c

Converged after 18 iterations.

Dipole moment: (-3.424753, -6.134454, -0.146250) |e|*Ang

Energy contributions relative to reference atoms: (reference = -1621799.894396)

Kinetic:       +217.992691
Potential:     -258.118628
External:        +0.000000
XC:            -2702.514557
Entropy (-ST):   -0.378098
Local:           +1.567266
--------------------------
Free energy:   -2741.451326
Extrapolated:  -2741.262277

Showing only first 2 kpts
 Kpt  Band  Eigenvalues  Occupancy
  0   198     -5.82634    1.99857
  0   199     -5.63345    1.99018
  0   200     -5.35023    1.84541
  0   201     -5.32902    1.81231

  1   198     -5.59738    1.98595
  1   199     -5.58130    1.98352
  1   200     -5.27787    1.70543
  1   201     -5.08370    0.90748


Fermi level: -5.10226

No gap

Forces in eV/Ang:
  0 Cu    0.01005   -0.00580   -0.04543
  1 Cu   -0.00870   -0.01918   -0.02417
  2 Cu   -0.01456   -0.00082   -0.05834
  3 Cu   -0.00079    0.00045   -0.00127
  4 Cu   -0.03138   -0.00838   -0.08297
  5 Cu   -0.01208   -0.00777   -0.05581
  6 Cu   -0.00868   -0.01284   -0.06375
  7 Cu    0.01352    0.00903    0.01946
  8 Cu    0.00247    0.00640   -0.08227
  9 Cu   -0.02429    0.01402   -0.01878
 10 Cu    0.00101   -0.00058    0.01996
 11 Cu    0.00012   -0.00371    0.00228
 12 Cu   -0.00430   -0.00534   -0.08227
 13 Cu    0.01713    0.00055   -0.00870
 14 Cu    0.01533   -0.00181   -0.06071
 15 Cu    0.00327    0.00175    0.00228
 16 Cu    0.00327   -0.00364   -0.07205
 17 Cu   -0.00409    0.00236   -0.03923
 18 Cu    0.00139   -0.00080   -0.04574
 19 Cu   -0.00230   -0.01033    0.29223
 20 Cu   -0.01102    0.00636   -0.06875
 21 Cu    0.00069    0.01435   -0.05581
 22 Cu    0.00678    0.01393   -0.06375
 23 Cu   -0.00798    0.00461    0.29333
 24 Cu   -0.00844    0.03136   -0.08297
 25 Cu   -0.02137    0.01234   -0.02209
 26 Cu    0.00011   -0.00007    0.01364
 27 Cu   -0.00106   -0.01623    0.01946
 28 Cu    0.02934   -0.01694   -0.10149
 29 Cu    0.00809   -0.01511   -0.00870
 30 Cu    0.00924   -0.01237   -0.06071
 31 Cu   -0.01089    0.00629    0.02053
 32 Cu    0.00479   -0.00101   -0.07205
 33 Cu    0.01226    0.01713   -0.02417
 34 Cu   -0.00657    0.01301   -0.05834
 35 Cu    0.00780    0.00716    0.29223
 36 C     0.00773   -0.00446    0.32185

BFGS:    3 00:52:35    -2741.262277        0.3220
System changes: positions 

Initializing position-dependent things.

Density initialized from wave functions
                                          
                                          
                                          
                                          
                                          
                   C                      
          Cu    Cu     Cu                 
           CCu   CCu   CCu                
             Cu     Cu    Cu              
            Cu     Cu    Cu               
              Cu     Cu    Cu             
             Cu     Cu    Cu              
               Cu     Cu    Cu            
                 Cu    Cu     Cu          
          Cu    Cu    Cu                  
            Cu    Cu    Cu                
             Cu     Cu    Cu              
                                          
                                          
                                          
                                          

Positions:
   0 Cu     0.000000    0.000000    9.999999    ( 0.0000,  0.0000,  0.0000)
   1 Cu     1.303035    0.752307   12.127846    ( 0.0000,  0.0000,  0.0000)
   2 Cu    -0.000912    1.503208   14.254976    ( 0.0000,  0.0000,  0.0000)
   3 Cu     0.002549   -0.001472   16.395015    ( 0.0000,  0.0000,  0.0000)
   4 Cu    -1.303035    2.256922    9.999999    ( 0.0000,  0.0000,  0.0000)
   5 Cu     0.000000    3.009230   12.127846    ( 0.0000,  0.0000,  0.0000)
   6 Cu    -1.305371    3.761288   14.254236    ( 0.0000,  0.0000,  0.0000)
   7 Cu    -1.307644    2.254478   16.397357    ( 0.0000,  0.0000,  0.0000)
   8 Cu    -2.606069    4.513845    9.999999    ( 0.0000,  0.0000,  0.0000)
   9 Cu    -1.303035    5.266152   12.127846    ( 0.0000,  0.0000,  0.0000)
  10 Cu    -2.605651    6.018218   14.264883    ( 0.0000,  0.0000,  0.0000)
  11 Cu    -2.605975    4.516362   16.395170    ( 0.0000,  0.0000,  0.0000)
  12 Cu     2.606069    0.000000    9.999999    ( 0.0000,  0.0000,  0.0000)
  13 Cu     3.909104    0.752307   12.127846    ( 0.0000,  0.0000,  0.0000)
  14 Cu     2.607347    1.502759   14.254595    ( 0.0000,  0.0000,  0.0000)
  15 Cu     2.603937   -0.001340   16.395170    ( 0.0000,  0.0000,  0.0000)
  16 Cu     1.303035    2.256922    9.999999    ( 0.0000,  0.0000,  0.0000)
  17 Cu     2.606069    3.009230   12.127846    ( 0.0000,  0.0000,  0.0000)
  18 Cu     1.303427    3.761311   14.242613    ( 0.0000,  0.0000,  0.0000)
  19 Cu     1.302784    2.141441   16.368218    ( 0.0000,  0.0000,  0.0000)
  20 Cu     0.000000    4.513845    9.999999    ( 0.0000,  0.0000,  0.0000)
  21 Cu     1.303035    5.266152   12.127846    ( 0.0000,  0.0000,  0.0000)
  22 Cu    -0.000953    6.020608   14.254236    ( 0.0000,  0.0000,  0.0000)
  23 Cu    -0.099854    4.571495   16.368305    ( 0.0000,  0.0000,  0.0000)
  24 Cu     5.212139    0.000000    9.999999    ( 0.0000,  0.0000,  0.0000)
  25 Cu     6.515174    0.752307   12.127846    ( 0.0000,  0.0000,  0.0000)
  26 Cu     5.212031    1.504677   14.263292    ( 0.0000,  0.0000,  0.0000)
  27 Cu     5.211951    0.005214   16.397357    ( 0.0000,  0.0000,  0.0000)
  28 Cu     3.909104    2.256922    9.999999    ( 0.0000,  0.0000,  0.0000)
  29 Cu     5.212139    3.009230   12.127846    ( 0.0000,  0.0000,  0.0000)
  30 Cu     3.911351    3.761359   14.254595    ( 0.0000,  0.0000,  0.0000)
  31 Cu     3.914463    2.253829   16.397231    ( 0.0000,  0.0000,  0.0000)
  32 Cu     2.606069    4.513845    9.999999    ( 0.0000,  0.0000,  0.0000)
  33 Cu     3.909104    5.266152   12.127846    ( 0.0000,  0.0000,  0.0000)
  34 Cu     2.606832    6.019952   14.254976    ( 0.0000,  0.0000,  0.0000)
  35 Cu     2.705954    4.571802   16.368218    ( 0.0000,  0.0000,  0.0000)
  36 C      1.303518    3.761258   17.316557    ( 0.0000,  0.0000,  0.0000)

Unit cell:
           periodic     x           y           z      points  spacing
  1. axis:    yes    7.818208    0.000000    0.000000    36     0.1881
  2. axis:    yes   -3.909104    6.770767    0.000000    36     0.1881
  3. axis:    no     0.000000    0.000000   26.383539   148     0.1783

  Lengths:   7.818208   7.818208  26.383539
  Angles:   90.000000  90.000000 120.000000

Effective grid spacing dv^(1/3) = 0.1938

     iter     time        total  log10-change:
                         energy  eigst   dens
iter:   1 00:53:10 -2741.313228  -3.01
iter:   2 00:53:25 -2741.290716  -3.50  -2.80
iter:   3 00:53:39 -2741.272347c -4.45  -2.97
iter:   4 00:53:53 -2741.270790c -4.41  -3.37
iter:   5 00:54:07 -2741.270227c -4.54  -3.66
iter:   6 00:54:21 -2741.270001c -5.00  -3.94
iter:   7 00:54:36 -2741.270039c -5.39  -4.09c
iter:   8 00:54:50 -2741.270031c -5.99  -4.28c
iter:   9 00:55:04 -2741.270028c -6.08  -4.36c
iter:  10 00:55:18 -2741.270027c -6.50  -4.55c
iter:  11 00:55:33 -2741.270032c -6.46  -4.65c
iter:  12 00:55:47 -2741.270020c -6.75  -4.84c
iter:  13 00:56:01 -2741.270025c -7.59c -4.80c

Converged after 13 iterations.

Dipole moment: (-3.443925, -6.122348, -0.149772) |e|*Ang

Energy contributions relative to reference atoms: (reference = -1621799.894396)

Kinetic:       +217.667924
Potential:     -257.892717
External:        +0.000000
XC:            -2702.415656
Entropy (-ST):   -0.377957
Local:           +1.559403
--------------------------
Free energy:   -2741.459004
Extrapolated:  -2741.270025

Showing only first 2 kpts
 Kpt  Band  Eigenvalues  Occupancy
  0   198     -5.83009    1.99858
  0   199     -5.63766    1.99029
  0   200     -5.35483    1.84755
  0   201     -5.33281    1.81350

  1   198     -5.60224    1.98620
  1   199     -5.58496    1.98361
  1   200     -5.28335    1.71140
  1   201     -5.08813    0.91409


Fermi level: -5.10535

No gap

Forces in eV/Ang:
  0 Cu    0.01007   -0.00582   -0.04518
  1 Cu   -0.00893   -0.02069   -0.02511
  2 Cu   -0.00246    0.00362   -0.03796
  3 Cu   -0.00460    0.00266   -0.00471
  4 Cu   -0.03128   -0.00839   -0.08252
  5 Cu   -0.01198   -0.00782   -0.06027
  6 Cu    0.00203   -0.00404   -0.04241
  7 Cu    0.01644    0.01028    0.01269
  8 Cu    0.00243    0.00652   -0.08197
  9 Cu   -0.02557    0.01476   -0.02005
 10 Cu    0.00010   -0.00006    0.01061
 11 Cu   -0.00007   -0.00708   -0.00133
 12 Cu   -0.00443   -0.00536   -0.08197
 13 Cu    0.01833    0.00139   -0.01143
 14 Cu    0.00294    0.00341   -0.03981
 15 Cu    0.00609    0.00360   -0.00133
 16 Cu    0.00329   -0.00311   -0.07138
 17 Cu   -0.00405    0.00234   -0.04359
 18 Cu    0.00031   -0.00018   -0.00833
 19 Cu   -0.00150    0.08922    0.31991
 20 Cu   -0.01051    0.00607   -0.06794
 21 Cu    0.00078    0.01429   -0.06027
 22 Cu    0.00451    0.00026   -0.04241
 23 Cu    0.07939   -0.04583    0.32157
 24 Cu   -0.00838    0.03129   -0.08252
 25 Cu   -0.02240    0.01293   -0.02473
 26 Cu    0.00022   -0.00012    0.00915
 27 Cu   -0.00068   -0.01938    0.01269
 28 Cu    0.02915   -0.01683   -0.10110
 29 Cu    0.00796   -0.01657   -0.01143
 30 Cu   -0.00148   -0.00425   -0.03981
 31 Cu   -0.01562    0.00902    0.01434
 32 Cu    0.00434   -0.00129   -0.07138
 33 Cu    0.01345    0.01808   -0.02511
 34 Cu   -0.00436    0.00032   -0.03796
 35 Cu   -0.07802   -0.04331    0.31991
 36 C     0.00587   -0.00339    0.15396

BFGS:    4 00:56:09    -2741.270025        0.3344
System changes: positions 

Initializing position-dependent things.

Density initialized from wave functions
                                          
                                          
                                          
                                          
                                          
                   C                      
          Cu    Cu     Cu                 
           CCu   CCu   CCu                
             Cu     Cu    Cu              
            Cu     Cu    Cu               
              Cu     Cu    Cu             
             Cu     Cu    Cu              
               Cu     Cu    Cu            
                 Cu    Cu     Cu          
          Cu    Cu    Cu                  
            Cu    Cu    Cu                
             Cu     Cu    Cu              
                                          
                                          
                                          
                                          

Positions:
   0 Cu     0.000000    0.000000    9.999999    ( 0.0000,  0.0000,  0.0000)
   1 Cu     1.303035    0.752307   12.127846    ( 0.0000,  0.0000,  0.0000)
   2 Cu    -0.001602    1.503120   14.251227    ( 0.0000,  0.0000,  0.0000)
   3 Cu     0.002633   -0.001520   16.394762    ( 0.0000,  0.0000,  0.0000)
   4 Cu    -1.303035    2.256922    9.999999    ( 0.0000,  0.0000,  0.0000)
   5 Cu     0.000000    3.009230   12.127846    ( 0.0000,  0.0000,  0.0000)
   6 Cu    -1.305874    3.760695   14.250100    ( 0.0000,  0.0000,  0.0000)
   7 Cu    -1.307094    2.254885   16.398594    ( 0.0000,  0.0000,  0.0000)
   8 Cu    -2.606069    4.513845    9.999999    ( 0.0000,  0.0000,  0.0000)
   9 Cu    -1.303035    5.266152   12.127846    ( 0.0000,  0.0000,  0.0000)
  10 Cu    -2.605576    6.018175   14.266233    ( 0.0000,  0.0000,  0.0000)
  11 Cu    -2.605965    4.516267   16.395161    ( 0.0000,  0.0000,  0.0000)
  12 Cu     2.606069    0.000000    9.999999    ( 0.0000,  0.0000,  0.0000)
  13 Cu     3.909104    0.752307   12.127846    ( 0.0000,  0.0000,  0.0000)
  14 Cu     2.608114    1.502589   14.250677    ( 0.0000,  0.0000,  0.0000)
  15 Cu     2.604024   -0.001302   16.395161    ( 0.0000,  0.0000,  0.0000)
  16 Cu     1.303035    2.256922    9.999999    ( 0.0000,  0.0000,  0.0000)
  17 Cu     2.606069    3.009230   12.127846    ( 0.0000,  0.0000,  0.0000)
  18 Cu     1.303519    3.761258   14.239300    ( 0.0000,  0.0000,  0.0000)
  19 Cu     1.302641    2.135201   16.386149    ( 0.0000,  0.0000,  0.0000)
  20 Cu     0.000000    4.513845    9.999999    ( 0.0000,  0.0000,  0.0000)
  21 Cu     1.303035    5.266152   12.127846    ( 0.0000,  0.0000,  0.0000)
  22 Cu    -0.000690    6.021340   14.250100    ( 0.0000,  0.0000,  0.0000)
  23 Cu    -0.105159    4.574558   16.386328    ( 0.0000,  0.0000,  0.0000)
  24 Cu     5.212139    0.000000    9.999999    ( 0.0000,  0.0000,  0.0000)
  25 Cu     6.515174    0.752307   12.127846    ( 0.0000,  0.0000,  0.0000)
  26 Cu     5.212033    1.504676   14.264230    ( 0.0000,  0.0000,  0.0000)
  27 Cu     5.211874    0.004534   16.398594    ( 0.0000,  0.0000,  0.0000)
  28 Cu     3.909104    2.256922    9.999999    ( 0.0000,  0.0000,  0.0000)
  29 Cu     5.212139    3.009230   12.127846    ( 0.0000,  0.0000,  0.0000)
  30 Cu     3.911881    3.760779   14.250677    ( 0.0000,  0.0000,  0.0000)
  31 Cu     3.914093    2.254042   16.398548    ( 0.0000,  0.0000,  0.0000)
  32 Cu     2.606069    4.513845    9.999999    ( 0.0000,  0.0000,  0.0000)
  33 Cu     3.909104    5.266152   12.127846    ( 0.0000,  0.0000,  0.0000)
  34 Cu     2.606564    6.020594   14.251227    ( 0.0000,  0.0000,  0.0000)
  35 Cu     2.711287    4.575047   16.386149    ( 0.0000,  0.0000,  0.0000)
  36 C      1.304012    3.760973   17.344833    ( 0.0000,  0.0000,  0.0000)

Unit cell:
           periodic     x           y           z      points  spacing
  1. axis:    yes    7.818208    0.000000    0.000000    36     0.1881
  2. axis:    yes   -3.909104    6.770767    0.000000    36     0.1881
  3. axis:    no     0.000000    0.000000   26.383539   148     0.1783

  Lengths:   7.818208   7.818208  26.383539
  Angles:   90.000000  90.000000 120.000000

Effective grid spacing dv^(1/3) = 0.1938

     iter     time        total  log10-change:
                         energy  eigst   dens
iter:   1 00:56:44 -2741.449953  -2.24
iter:   2 00:56:59 -2741.363180  -2.91  -2.51
iter:   3 00:57:13 -2741.297785c -3.96  -2.67
iter:   4 00:57:27 -2741.287022c -3.30  -3.05
iter:   5 00:57:42 -2741.285618c -4.14  -3.45
iter:   6 00:57:56 -2741.284510c -4.33  -3.61
iter:   7 00:58:10 -2741.284341c -4.78  -3.80
iter:   8 00:58:25 -2741.284610c -5.04  -3.91
iter:   9 00:58:39 -2741.284447c -6.03  -4.02c
iter:  10 00:58:54 -2741.284382c -5.49  -4.13c
iter:  11 00:59:08 -2741.284379c -5.28  -4.23c
iter:  12 00:59:22 -2741.284379c -5.84  -4.27c
iter:  13 00:59:37 -2741.284357c -6.86  -4.38c
iter:  14 00:59:51 -2741.284314c -6.50  -4.39c
iter:  15 01:00:05 -2741.284291c -5.82  -4.49c
iter:  16 01:00:20 -2741.284296c -6.59  -4.75c
iter:  17 01:00:34 -2741.284292c -7.43c -4.92c

Converged after 17 iterations.

Dipole moment: (-3.496866, -6.090019, -0.156821) |e|*Ang

Energy contributions relative to reference atoms: (reference = -1621799.894396)

Kinetic:       +216.351340
Potential:     -256.850621
External:        +0.000000
XC:            -2702.151882
Entropy (-ST):   -0.377795
Local:           +1.555769
--------------------------
Free energy:   -2741.473189
Extrapolated:  -2741.284292

Showing only first 2 kpts
 Kpt  Band  Eigenvalues  Occupancy
  0   198     -5.83781    1.99860
  0   199     -5.64684    1.99057
  0   200     -5.36553    1.85365
  0   201     -5.34108    1.81681

  1   198     -5.61179    1.98663
  1   199     -5.59347    1.98397
  1   200     -5.29522    1.72490
  1   201     -5.09743    0.92905


Fermi level: -5.11164

No gap

Forces in eV/Ang:
  0 Cu    0.01012   -0.00584   -0.04526
  1 Cu   -0.00933   -0.02447   -0.03095
  2 Cu    0.02804    0.01471    0.02282
  3 Cu   -0.00987    0.00570   -0.00907
  4 Cu   -0.03139   -0.00858   -0.08233
  5 Cu   -0.01181   -0.00798   -0.07032
  6 Cu    0.02914    0.01737    0.01986
  7 Cu    0.01367    0.00704   -0.00651
  8 Cu    0.00245    0.00680   -0.08188
  9 Cu   -0.02885    0.01666   -0.02671
 10 Cu   -0.00139    0.00080   -0.00189
 11 Cu    0.00002   -0.00980   -0.00718
 12 Cu   -0.00467   -0.00552   -0.08188
 13 Cu    0.02164    0.00367   -0.02115
 14 Cu   -0.02876    0.01659    0.02171
 15 Cu    0.00849    0.00488   -0.00718
 16 Cu    0.00333   -0.00287   -0.07123
 17 Cu   -0.00378    0.00218   -0.05353
 18 Cu   -0.00168    0.00097    0.08091
 19 Cu    0.00134    0.21246    0.24079
 20 Cu   -0.01036    0.00598   -0.06764
 21 Cu    0.00101    0.01422   -0.07032
 22 Cu   -0.00047   -0.03392    0.01986
 23 Cu    0.18816   -0.10863    0.24370
 24 Cu   -0.00827    0.03147   -0.08233
 25 Cu   -0.02523    0.01457   -0.03388
 26 Cu    0.00024   -0.00014    0.00886
 27 Cu    0.00074   -0.01536   -0.00651
 28 Cu    0.02914   -0.01682   -0.10115
 29 Cu    0.00764   -0.02058   -0.02115
 30 Cu   -0.02874    0.01661    0.02171
 31 Cu   -0.01706    0.00985   -0.00415
 32 Cu    0.00415   -0.00145   -0.07123
 33 Cu    0.01653    0.02032   -0.03095
 34 Cu    0.00128   -0.03164    0.02282
 35 Cu   -0.18332   -0.10739    0.24079
 36 C     0.00631   -0.00365   -0.01153

BFGS:    5 01:00:42    -2741.284292        0.3265
System changes: positions 

Initializing position-dependent things.

Density initialized from wave functions
                                          
                                          
                                          
                                          
                                          
                   C                      
          Cu    Cu     Cu                 
           CCu    Cu   CCu                
             Cu  Cu Cu    Cu              
            Cu     Cu    Cu               
              Cu     Cu    Cu             
             Cu     Cu    Cu              
               Cu     Cu    Cu            
                 Cu    Cu     Cu          
          Cu    Cu    Cu                  
            Cu    Cu    Cu                
             Cu     Cu    Cu              
                                          
                                          
                                          
                                          

Positions:
   0 Cu     0.000000    0.000000    9.999999    ( 0.0000,  0.0000,  0.0000)
   1 Cu     1.303035    0.752307   12.127846    ( 0.0000,  0.0000,  0.0000)
   2 Cu    -0.001541    1.503346   14.249164    ( 0.0000,  0.0000,  0.0000)
   3 Cu     0.002498   -0.001442   16.394440    ( 0.0000,  0.0000,  0.0000)
   4 Cu    -1.303035    2.256922    9.999999    ( 0.0000,  0.0000,  0.0000)
   5 Cu     0.000000    3.009230   12.127846    ( 0.0000,  0.0000,  0.0000)
   6 Cu    -1.305651    3.760614   14.247716    ( 0.0000,  0.0000,  0.0000)
   7 Cu    -1.306448    2.255300   16.399301    ( 0.0000,  0.0000,  0.0000)
   8 Cu    -2.606069    4.513845    9.999999    ( 0.0000,  0.0000,  0.0000)
   9 Cu    -1.303035    5.266152   12.127846    ( 0.0000,  0.0000,  0.0000)
  10 Cu    -2.605552    6.018161   14.267133    ( 0.0000,  0.0000,  0.0000)
  11 Cu    -2.605956    4.516015   16.395036    ( 0.0000,  0.0000,  0.0000)
  12 Cu     2.606069    0.000000    9.999999    ( 0.0000,  0.0000,  0.0000)
  13 Cu     3.909104    0.752307   12.127846    ( 0.0000,  0.0000,  0.0000)
  14 Cu     2.608088    1.502800   14.248477    ( 0.0000,  0.0000,  0.0000)
  15 Cu     2.604247   -0.001183   16.395036    ( 0.0000,  0.0000,  0.0000)
  16 Cu     1.303035    2.256922    9.999999    ( 0.0000,  0.0000,  0.0000)
  17 Cu     2.606069    3.009230   12.127846    ( 0.0000,  0.0000,  0.0000)
  18 Cu     1.303550    3.761240   14.238698    ( 0.0000,  0.0000,  0.0000)
  19 Cu     1.302573    2.135431   16.402786    ( 0.0000,  0.0000,  0.0000)
  20 Cu     0.000000    4.513845    9.999999    ( 0.0000,  0.0000,  0.0000)
  21 Cu     1.303035    5.266152   12.127846    ( 0.0000,  0.0000,  0.0000)
  22 Cu    -0.000509    6.021187   14.247716    ( 0.0000,  0.0000,  0.0000)
  23 Cu    -0.104817    4.574361   16.403083    ( 0.0000,  0.0000,  0.0000)
  24 Cu     5.212139    0.000000    9.999999    ( 0.0000,  0.0000,  0.0000)
  25 Cu     6.515174    0.752307   12.127846    ( 0.0000,  0.0000,  0.0000)
  26 Cu     5.212038    1.504673   14.265064    ( 0.0000,  0.0000,  0.0000)
  27 Cu     5.211838    0.003767   16.399301    ( 0.0000,  0.0000,  0.0000)
  28 Cu     3.909104    2.256922    9.999999    ( 0.0000,  0.0000,  0.0000)
  29 Cu     5.212139    3.009230   12.127846    ( 0.0000,  0.0000,  0.0000)
  30 Cu     3.911685    3.760697   14.248477    ( 0.0000,  0.0000,  0.0000)
  31 Cu     3.913501    2.254384   16.399355    ( 0.0000,  0.0000,  0.0000)
  32 Cu     2.606069    4.513845    9.999999    ( 0.0000,  0.0000,  0.0000)
  33 Cu     3.909104    5.266152   12.127846    ( 0.0000,  0.0000,  0.0000)
  34 Cu     2.606398    6.020428   14.249164    ( 0.0000,  0.0000,  0.0000)
  35 Cu     2.711053    4.574990   16.402786    ( 0.0000,  0.0000,  0.0000)
  36 C      1.304486    3.760699   17.363517    ( 0.0000,  0.0000,  0.0000)

Unit cell:
           periodic     x           y           z      points  spacing
  1. axis:    yes    7.818208    0.000000    0.000000    36     0.1881
  2. axis:    yes   -3.909104    6.770767    0.000000    36     0.1881
  3. axis:    no     0.000000    0.000000   26.383539   148     0.1783

  Lengths:   7.818208   7.818208  26.383539
  Angles:   90.000000  90.000000 120.000000

Effective grid spacing dv^(1/3) = 0.1938

     iter     time        total  log10-change:
                         energy  eigst   dens
iter:   1 01:01:17 -2741.340932  -2.52
iter:   2 01:01:31 -2741.314474  -3.39  -2.77
iter:   3 01:01:45 -2741.300393c -4.39  -2.94
iter:   4 01:02:00 -2741.293476c -4.04  -3.13
iter:   5 01:02:14 -2741.292779c -4.24  -3.42
iter:   6 01:02:28 -2741.292568c -4.60  -3.76
iter:   7 01:02:42 -2741.292444c -4.95  -3.84
iter:   8 01:02:56 -2741.292453c -5.38  -4.02c
iter:   9 01:03:11 -2741.292413c -5.64  -4.16c
iter:  10 01:03:26 -2741.292374c -5.65  -4.31c
iter:  11 01:03:40 -2741.292346c -6.60  -4.43c
iter:  12 01:03:54 -2741.292348c -7.03  -4.46c
iter:  13 01:04:08 -2741.292343c -6.10  -4.50c
iter:  14 01:04:22 -2741.292342c -7.13  -4.82c
iter:  15 01:04:37 -2741.292333c -6.78  -4.86c
iter:  16 01:04:51 -2741.292333c -7.10  -5.01c
iter:  17 01:05:05 -2741.292331c -7.37  -4.98c
iter:  18 01:05:19 -2741.292333c -7.62c -5.21c

Converged after 18 iterations.

Dipole moment: (-3.519944, -6.077373, -0.161194) |e|*Ang

Energy contributions relative to reference atoms: (reference = -1621799.894396)

Kinetic:       +215.601350
Potential:     -256.262888
External:        +0.000000
XC:            -2701.994586
Entropy (-ST):   -0.377776
Local:           +1.552680
--------------------------
Free energy:   -2741.481221
Extrapolated:  -2741.292333

Showing only first 2 kpts
 Kpt  Band  Eigenvalues  Occupancy
  0   198     -5.84300    1.99861
  0   199     -5.65311    1.99075
  0   200     -5.37310    1.85802
  0   201     -5.34689    1.81933

  1   198     -5.61773    1.98685
  1   199     -5.59961    1.98426
  1   200     -5.30303    1.73313
  1   201     -5.10377    0.93923


Fermi level: -5.11594

No gap

Forces in eV/Ang:
  0 Cu    0.00997   -0.00576   -0.04551
  1 Cu   -0.00956   -0.02685   -0.03441
  2 Cu    0.04055    0.01735    0.06078
  3 Cu   -0.00873    0.00504   -0.01068
  4 Cu   -0.03169   -0.00884   -0.08269
  5 Cu   -0.01083   -0.00758   -0.07440
  6 Cu    0.03789    0.02712    0.05847
  7 Cu    0.00407    0.00090   -0.01797
  8 Cu    0.00246    0.00681   -0.08200
  9 Cu   -0.03095    0.01787   -0.03082
 10 Cu   -0.00183    0.00106   -0.01149
 11 Cu    0.00047   -0.00680   -0.01015
 12 Cu   -0.00466   -0.00554   -0.08200
 13 Cu    0.02321    0.00487   -0.02586
 14 Cu   -0.04155    0.01971    0.05982
 15 Cu    0.00612    0.00299   -0.01015
 16 Cu    0.00331   -0.00292   -0.07148
 17 Cu   -0.00440    0.00254   -0.05761
 18 Cu   -0.00224    0.00130    0.12120
 19 Cu    0.00340    0.21084    0.12341
 20 Cu   -0.01048    0.00605   -0.06782
 21 Cu    0.00115    0.01316   -0.07440
 22 Cu   -0.00454   -0.04637    0.05847
 23 Cu    0.18810   -0.10860    0.12790
 24 Cu   -0.00819    0.03186   -0.08269
 25 Cu   -0.02646    0.01528   -0.03818
 26 Cu    0.00003   -0.00002    0.00550
 27 Cu    0.00126   -0.00397   -0.01797
 28 Cu    0.02935   -0.01695   -0.10148
 29 Cu    0.00739   -0.02253   -0.02586
 30 Cu   -0.03784    0.02613    0.05982
 31 Cu   -0.00929    0.00536   -0.01555
 32 Cu    0.00419   -0.00140   -0.07148
 33 Cu    0.01847    0.02170   -0.03441
 34 Cu    0.00525   -0.04379    0.06078
 35 Cu   -0.18089   -0.10836    0.12341
 36 C    -0.00230    0.00133   -0.06856

BFGS:    6 01:05:27    -2741.292333        0.2521
System changes: positions 

Initializing position-dependent things.

Density initialized from wave functions
                                          
                                          
                                          
                                          
                                          
                   C                      
          Cu    Cu     Cu                 
           CCu    Cu    Cu                
             Cu  Cu Cu Cu Cu              
             Cu    Cu    Cu               
              Cu     Cu    Cu             
             Cu     Cu    Cu              
               Cu     Cu    Cu            
                 Cu    Cu     Cu          
          Cu    Cu    Cu                  
            Cu    Cu    Cu                
             Cu     Cu    Cu              
                                          
                                          
                                          
                                          

Positions:
   0 Cu     0.000000    0.000000    9.999999    ( 0.0000,  0.0000,  0.0000)
   1 Cu     1.303035    0.752307   12.127846    ( 0.0000,  0.0000,  0.0000)
   2 Cu    -0.000777    1.503798   14.249258    ( 0.0000,  0.0000,  0.0000)
   3 Cu     0.002241   -0.001294   16.394094    ( 0.0000,  0.0000,  0.0000)
   4 Cu    -1.303035    2.256922    9.999999    ( 0.0000,  0.0000,  0.0000)
   5 Cu     0.000000    3.009230   12.127846    ( 0.0000,  0.0000,  0.0000)
   6 Cu    -1.304824    3.761052   14.247602    ( 0.0000,  0.0000,  0.0000)
   7 Cu    -1.305980    2.255563   16.399332    ( 0.0000,  0.0000,  0.0000)
   8 Cu    -2.606069    4.513845    9.999999    ( 0.0000,  0.0000,  0.0000)
   9 Cu    -1.303035    5.266152   12.127846    ( 0.0000,  0.0000,  0.0000)
  10 Cu    -2.605576    6.018175   14.267370    ( 0.0000,  0.0000,  0.0000)
  11 Cu    -2.605942    4.515733   16.394803    ( 0.0000,  0.0000,  0.0000)
  12 Cu     2.606069    0.000000    9.999999    ( 0.0000,  0.0000,  0.0000)
  13 Cu     3.909104    0.752307   12.127846    ( 0.0000,  0.0000,  0.0000)
  14 Cu     2.607319    1.503291   14.248482    ( 0.0000,  0.0000,  0.0000)
  15 Cu     2.604498   -0.001054   16.394803    ( 0.0000,  0.0000,  0.0000)
  16 Cu     1.303035    2.256922    9.999999    ( 0.0000,  0.0000,  0.0000)
  17 Cu     2.606069    3.009230   12.127846    ( 0.0000,  0.0000,  0.0000)
  18 Cu     1.303523    3.761256   14.240819    ( 0.0000,  0.0000,  0.0000)
  19 Cu     1.302605    2.140671   16.414161    ( 0.0000,  0.0000,  0.0000)
  20 Cu     0.000000    4.513845    9.999999    ( 0.0000,  0.0000,  0.0000)
  21 Cu     1.303035    5.266152   12.127846    ( 0.0000,  0.0000,  0.0000)
  22 Cu    -0.000475    6.020252   14.247602    ( 0.0000,  0.0000,  0.0000)
  23 Cu    -0.100103    4.571639   16.414606    ( 0.0000,  0.0000,  0.0000)
  24 Cu     5.212139    0.000000    9.999999    ( 0.0000,  0.0000,  0.0000)
  25 Cu     6.515174    0.752307   12.127846    ( 0.0000,  0.0000,  0.0000)
  26 Cu     5.212043    1.504671   14.265598    ( 0.0000,  0.0000,  0.0000)
  27 Cu     5.211844    0.003230   16.399332    ( 0.0000,  0.0000,  0.0000)
  28 Cu     3.909104    2.256922    9.999999    ( 0.0000,  0.0000,  0.0000)
  29 Cu     5.212139    3.009230   12.127846    ( 0.0000,  0.0000,  0.0000)
  30 Cu     3.910875    3.761117   14.248482    ( 0.0000,  0.0000,  0.0000)
  31 Cu     3.912959    2.254697   16.399484    ( 0.0000,  0.0000,  0.0000)
  32 Cu     2.606069    4.513845    9.999999    ( 0.0000,  0.0000,  0.0000)
  33 Cu     3.909104    5.266152   12.127846    ( 0.0000,  0.0000,  0.0000)
  34 Cu     2.606389    6.019541   14.249258    ( 0.0000,  0.0000,  0.0000)
  35 Cu     2.706531    4.572343   16.414161    ( 0.0000,  0.0000,  0.0000)
  36 C      1.304672    3.760592   17.370583    ( 0.0000,  0.0000,  0.0000)

Unit cell:
           periodic     x           y           z      points  spacing
  1. axis:    yes    7.818208    0.000000    0.000000    36     0.1881
  2. axis:    yes   -3.909104    6.770767    0.000000    36     0.1881
  3. axis:    no     0.000000    0.000000   26.383539   148     0.1783

  Lengths:   7.818208   7.818208  26.383539
  Angles:   90.000000  90.000000 120.000000

Effective grid spacing dv^(1/3) = 0.1938

     iter     time        total  log10-change:
                         energy  eigst   dens
iter:   1 01:06:02 -2741.322628  -2.83
iter:   2 01:06:17 -2741.303279  -3.80  -2.98
iter:   3 01:06:31 -2741.300307c -4.13  -3.22
iter:   4 01:06:45 -2741.298001c -4.59  -3.40
iter:   5 01:06:59 -2741.297909c -4.93  -3.69
iter:   6 01:07:14 -2741.297724c -5.07  -3.84
iter:   7 01:07:28 -2741.297795c -5.77  -4.09c
iter:   8 01:07:42 -2741.297811c -6.33  -4.19c
iter:   9 01:07:57 -2741.297718c -6.06  -4.23c
iter:  10 01:08:11 -2741.297770c -6.37  -4.43c
iter:  11 01:08:25 -2741.297753c -6.44  -4.59c
iter:  12 01:08:40 -2741.297737c -7.49c -4.62c

Converged after 12 iterations.

Dipole moment: (-3.507048, -6.087341, -0.160196) |e|*Ang

Energy contributions relative to reference atoms: (reference = -1621799.894396)

Kinetic:       +215.401004
Potential:     -256.105896
External:        +0.000000
XC:            -2701.957184
Entropy (-ST):   -0.377808
Local:           +1.553243
--------------------------
Free energy:   -2741.486640
Extrapolated:  -2741.297737

Showing only first 2 kpts
 Kpt  Band  Eigenvalues  Occupancy
  0   198     -5.84250    1.99861
  0   199     -5.65335    1.99083
  0   200     -5.37436    1.86045
  0   201     -5.34687    1.82028

  1   198     -5.61719    1.98686
  1   199     -5.60011    1.98443
  1   200     -5.30371    1.73608
  1   201     -5.10408    0.94375


Fermi level: -5.11534

No gap

Forces in eV/Ang:
  0 Cu    0.00980   -0.00566   -0.04727
  1 Cu   -0.00976   -0.02598   -0.03640
  2 Cu    0.03456    0.01088    0.07689
  3 Cu    0.00163   -0.00094   -0.01581
  4 Cu   -0.03178   -0.00905   -0.08456
  5 Cu   -0.00951   -0.00701   -0.07302
  6 Cu    0.02831    0.02529    0.07623
  7 Cu   -0.00905   -0.00623   -0.02633
  8 Cu    0.00261    0.00681   -0.08376
  9 Cu   -0.03030    0.01749   -0.03338
 10 Cu   -0.00121    0.00070   -0.00433
 11 Cu    0.00102    0.00483   -0.01630
 12 Cu   -0.00460   -0.00567   -0.08376
 13 Cu    0.02379    0.00546   -0.02537
 14 Cu   -0.03528    0.01264    0.07637
 15 Cu   -0.00368   -0.00330   -0.01630
 16 Cu    0.00332   -0.00261   -0.07274
 17 Cu   -0.00551    0.00318   -0.05597
 18 Cu   -0.00169    0.00097    0.11940
 19 Cu    0.00145    0.10443    0.02002
 20 Cu   -0.01034    0.00597   -0.06922
 21 Cu    0.00132    0.01174   -0.07302
 22 Cu   -0.00775   -0.03716    0.07623
 23 Cu    0.09666   -0.05581    0.02482
 24 Cu   -0.00805    0.03204   -0.08456
 25 Cu   -0.02684    0.01549   -0.03755
 26 Cu   -0.00050    0.00029    0.00221
 27 Cu    0.00087    0.01095   -0.02633
 28 Cu    0.02943   -0.01699   -0.10329
 29 Cu    0.00717   -0.02334   -0.02537
 30 Cu   -0.02858    0.02424    0.07637
 31 Cu    0.00496   -0.00286   -0.02463
 32 Cu    0.00392   -0.00157   -0.07274
 33 Cu    0.01762    0.02144   -0.03640
 34 Cu    0.00785   -0.03537    0.07689
 35 Cu   -0.08972   -0.05347    0.02002
 36 C     0.00343   -0.00198    0.01619

BFGS:    7 01:08:48    -2741.297737        0.1194
System changes: positions 

Initializing position-dependent things.

Density initialized from wave functions
                                          
                                          
                                          
                                          
                                          
                   C                      
          Cu    Cu     Cu                 
           CCu    Cu    Cu                
             Cu  Cu Cu Cu Cu              
             Cu    Cu    Cu               
              Cu     Cu    Cu             
             Cu     Cu    Cu              
               Cu     Cu    Cu            
                 Cu    Cu     Cu          
          Cu    Cu    Cu                  
            Cu    Cu    Cu                
             Cu     Cu    Cu              
                                          
                                          
                                          
                                          

Positions:
   0 Cu     0.000000    0.000000    9.999999    ( 0.0000,  0.0000,  0.0000)
   1 Cu     1.303035    0.752307   12.127846    ( 0.0000,  0.0000,  0.0000)
   2 Cu     0.000241    1.504211   14.250935    ( 0.0000,  0.0000,  0.0000)
   3 Cu     0.002166   -0.001251   16.393615    ( 0.0000,  0.0000,  0.0000)
   4 Cu    -1.303035    2.256922    9.999999    ( 0.0000,  0.0000,  0.0000)
   5 Cu     0.000000    3.009230   12.127846    ( 0.0000,  0.0000,  0.0000)
   6 Cu    -1.303897    3.761745   14.249184    ( 0.0000,  0.0000,  0.0000)
   7 Cu    -1.305944    2.255560   16.398779    ( 0.0000,  0.0000,  0.0000)
   8 Cu    -2.606069    4.513845    9.999999    ( 0.0000,  0.0000,  0.0000)
   9 Cu    -1.303035    5.266152   12.127846    ( 0.0000,  0.0000,  0.0000)
  10 Cu    -2.605613    6.018196   14.267389    ( 0.0000,  0.0000,  0.0000)
  11 Cu    -2.605915    4.515716   16.394361    ( 0.0000,  0.0000,  0.0000)
  12 Cu     2.606069    0.000000    9.999999    ( 0.0000,  0.0000,  0.0000)
  13 Cu     3.909104    0.752307   12.127846    ( 0.0000,  0.0000,  0.0000)
  14 Cu     2.606281    1.503760   14.250113    ( 0.0000,  0.0000,  0.0000)
  15 Cu     2.604527   -0.001069   16.394361    ( 0.0000,  0.0000,  0.0000)
  16 Cu     1.303035    2.256922    9.999999    ( 0.0000,  0.0000,  0.0000)
  17 Cu     2.606069    3.009230   12.127846    ( 0.0000,  0.0000,  0.0000)
  18 Cu     1.303475    3.761283   14.244300    ( 0.0000,  0.0000,  0.0000)
  19 Cu     1.302643    2.145711   16.419571    ( 0.0000,  0.0000,  0.0000)
  20 Cu     0.000000    4.513845    9.999999    ( 0.0000,  0.0000,  0.0000)
  21 Cu     1.303035    5.266152   12.127846    ( 0.0000,  0.0000,  0.0000)
  22 Cu    -0.000611    6.019103   14.249184    ( 0.0000,  0.0000,  0.0000)
  23 Cu    -0.095536    4.569002   16.420179    ( 0.0000,  0.0000,  0.0000)
  24 Cu     5.212139    0.000000    9.999999    ( 0.0000,  0.0000,  0.0000)
  25 Cu     6.515174    0.752307   12.127846    ( 0.0000,  0.0000,  0.0000)
  26 Cu     5.212034    1.504676   14.265859    ( 0.0000,  0.0000,  0.0000)
  27 Cu     5.211864    0.003201   16.398779    ( 0.0000,  0.0000,  0.0000)
  28 Cu     3.909104    2.256922    9.999999    ( 0.0000,  0.0000,  0.0000)
  29 Cu     5.212139    3.009230   12.127846    ( 0.0000,  0.0000,  0.0000)
  30 Cu     3.909950    3.761781   14.250113    ( 0.0000,  0.0000,  0.0000)
  31 Cu     3.912805    2.254786   16.399007    ( 0.0000,  0.0000,  0.0000)
  32 Cu     2.606069    4.513845    9.999999    ( 0.0000,  0.0000,  0.0000)
  33 Cu     3.909104    5.266152   12.127846    ( 0.0000,  0.0000,  0.0000)
  34 Cu     2.606539    6.018453   14.250935    ( 0.0000,  0.0000,  0.0000)
  35 Cu     2.702185    4.569790   16.419571    ( 0.0000,  0.0000,  0.0000)
  36 C      1.304850    3.760489   17.373028    ( 0.0000,  0.0000,  0.0000)

Unit cell:
           periodic     x           y           z      points  spacing
  1. axis:    yes    7.818208    0.000000    0.000000    36     0.1881
  2. axis:    yes   -3.909104    6.770767    0.000000    36     0.1881
  3. axis:    no     0.000000    0.000000   26.383539   148     0.1783

  Lengths:   7.818208   7.818208  26.383539
  Angles:   90.000000  90.000000 120.000000

Effective grid spacing dv^(1/3) = 0.1938

     iter     time        total  log10-change:
                         energy  eigst   dens
iter:   1 01:09:23 -2741.340378  -3.10
iter:   2 01:09:37 -2741.312133  -3.61  -2.84
iter:   3 01:09:51 -2741.303245c -4.37  -3.08
iter:   4 01:10:06 -2741.300361c -4.74  -3.39
iter:   5 01:10:20 -2741.300322c -5.17  -3.88
iter:   6 01:10:34 -2741.300279c -5.33  -3.96
iter:   7 01:10:48 -2741.300259c -5.95  -4.25c
iter:   8 01:11:02 -2741.300264c -6.64  -4.35c
iter:   9 01:11:17 -2741.300235c -6.69  -4.40c
iter:  10 01:11:31 -2741.300251c -6.31  -4.54c
iter:  11 01:11:45 -2741.300215c -7.10  -4.63c
iter:  12 01:11:59 -2741.300213c -7.49c -4.87c

Converged after 12 iterations.

Dipole moment: (-3.475017, -6.108772, -0.160912) |e|*Ang

Energy contributions relative to reference atoms: (reference = -1621799.894396)

Kinetic:       +215.519801
Potential:     -256.213003
External:        +0.000000
XC:            -2701.972071
Entropy (-ST):   -0.377814
Local:           +1.553967
--------------------------
Free energy:   -2741.489120
Extrapolated:  -2741.300213

Showing only first 2 kpts
 Kpt  Band  Eigenvalues  Occupancy
  0   198     -5.84262    1.99860
  0   199     -5.65407    1.99084
  0   200     -5.37550    1.86119
  0   201     -5.34696    1.81947

  1   198     -5.61757    1.98683
  1   199     -5.60080    1.98445
  1   200     -5.30433    1.73617
  1   201     -5.10493    0.94513


Fermi level: -5.11592

No gap

Forces in eV/Ang:
  0 Cu    0.00985   -0.00568   -0.04581
  1 Cu   -0.00972   -0.02464   -0.03196
  2 Cu    0.01405    0.00295    0.06696
  3 Cu    0.00362   -0.00209   -0.00633
  4 Cu   -0.03180   -0.00904   -0.08326
  5 Cu   -0.00762   -0.00599   -0.06329
  6 Cu    0.00999    0.01117    0.06886
  7 Cu   -0.01271   -0.00772   -0.01598
  8 Cu    0.00260    0.00683   -0.08233
  9 Cu   -0.02919    0.01686   -0.02894
 10 Cu   -0.00043    0.00025   -0.01253
 11 Cu    0.00090    0.00575   -0.00718
 12 Cu   -0.00462   -0.00567   -0.08233
 13 Cu    0.02241    0.00466   -0.01711
 14 Cu   -0.01465    0.00352    0.06774
 15 Cu   -0.00452   -0.00365   -0.00718
 16 Cu    0.00334   -0.00287   -0.07086
 17 Cu   -0.00739    0.00427   -0.04637
 18 Cu   -0.00065    0.00037    0.08900
 19 Cu    0.00013    0.00909   -0.01979
 20 Cu   -0.01059    0.00611   -0.06738
 21 Cu    0.00138    0.00960   -0.06329
 22 Cu   -0.00468   -0.01424    0.06886
 23 Cu    0.01504   -0.00868   -0.01397
 24 Cu   -0.00807    0.03206   -0.08326
 25 Cu   -0.02542    0.01468   -0.02928
 26 Cu   -0.00043    0.00025   -0.00490
 27 Cu    0.00033    0.01486   -0.01598
 28 Cu    0.02941   -0.01698   -0.10200
 29 Cu    0.00717   -0.02174   -0.01711
 30 Cu   -0.01037    0.01092    0.06774
 31 Cu    0.01067   -0.00616   -0.01486
 32 Cu    0.00416   -0.00146   -0.07086
 33 Cu    0.01647    0.02074   -0.03196
 34 Cu    0.00447   -0.01364    0.06696
 35 Cu   -0.00781   -0.00465   -0.01979
 36 C     0.00566   -0.00327    0.14054

BFGS:    8 01:12:07    -2741.300213        0.1407
System changes: positions 

Initializing position-dependent things.

Density initialized from wave functions
                                          
                                          
                                          
                                          
                                          
                   C                      
          Cu    Cu     Cu                 
           CCu    Cu    Cu                
             Cu  Cu Cu Cu Cu              
             Cu    Cu    Cu               
              Cu     Cu    Cu             
             Cu     Cu    Cu              
               Cu     Cu    Cu            
                 Cu    Cu     Cu          
          Cu    Cu    Cu                  
            Cu    Cu    Cu                
             Cu     Cu    Cu              
                                          
                                          
                                          
                                          

Positions:
   0 Cu     0.000000    0.000000    9.999999    ( 0.0000,  0.0000,  0.0000)
   1 Cu     1.303035    0.752307   12.127846    ( 0.0000,  0.0000,  0.0000)
   2 Cu     0.001402    1.504675   14.253222    ( 0.0000,  0.0000,  0.0000)
   3 Cu     0.002146   -0.001239   16.393011    ( 0.0000,  0.0000,  0.0000)
   4 Cu    -1.303035    2.256922    9.999999    ( 0.0000,  0.0000,  0.0000)
   5 Cu     0.000000    3.009230   12.127846    ( 0.0000,  0.0000,  0.0000)
   6 Cu    -1.302861    3.762537   14.251345    ( 0.0000,  0.0000,  0.0000)
   7 Cu    -1.306039    2.255488   16.398181    ( 0.0000,  0.0000,  0.0000)
   8 Cu    -2.606069    4.513845    9.999999    ( 0.0000,  0.0000,  0.0000)
   9 Cu    -1.303035    5.266152   12.127846    ( 0.0000,  0.0000,  0.0000)
  10 Cu    -2.605645    6.018215   14.267345    ( 0.0000,  0.0000,  0.0000)
  11 Cu    -2.605870    4.515757   16.393820    ( 0.0000,  0.0000,  0.0000)
  12 Cu     2.606069    0.000000    9.999999    ( 0.0000,  0.0000,  0.0000)
  13 Cu     3.909104    0.752307   12.127846    ( 0.0000,  0.0000,  0.0000)
  14 Cu     2.605101    1.504276   14.252342    ( 0.0000,  0.0000,  0.0000)
  15 Cu     2.604514   -0.001129   16.393820    ( 0.0000,  0.0000,  0.0000)
  16 Cu     1.303035    2.256922    9.999999    ( 0.0000,  0.0000,  0.0000)
  17 Cu     2.606069    3.009230   12.127846    ( 0.0000,  0.0000,  0.0000)
  18 Cu     1.303432    3.761308   14.248908    ( 0.0000,  0.0000,  0.0000)
  19 Cu     1.302663    2.149767   16.427906    ( 0.0000,  0.0000,  0.0000)
  20 Cu     0.000000    4.513845    9.999999    ( 0.0000,  0.0000,  0.0000)
  21 Cu     1.303035    5.266152   12.127846    ( 0.0000,  0.0000,  0.0000)
  22 Cu    -0.000779    6.017809   14.251345    ( 0.0000,  0.0000,  0.0000)
  23 Cu    -0.091658    4.566764   16.428810    ( 0.0000,  0.0000,  0.0000)
  24 Cu     5.212139    0.000000    9.999999    ( 0.0000,  0.0000,  0.0000)
  25 Cu     6.515174    0.752307   12.127846    ( 0.0000,  0.0000,  0.0000)
  26 Cu     5.212019    1.504684   14.266188    ( 0.0000,  0.0000,  0.0000)
  27 Cu     5.211879    0.003319   16.398181    ( 0.0000,  0.0000,  0.0000)
  28 Cu     3.909104    2.256922    9.999999    ( 0.0000,  0.0000,  0.0000)
  29 Cu     5.212139    3.009230   12.127846    ( 0.0000,  0.0000,  0.0000)
  30 Cu     3.908914    3.762545   14.252342    ( 0.0000,  0.0000,  0.0000)
  31 Cu     3.912773    2.254804   16.398523    ( 0.0000,  0.0000,  0.0000)
  32 Cu     2.606069    4.513845    9.999999    ( 0.0000,  0.0000,  0.0000)
  33 Cu     3.909104    5.266152   12.127846    ( 0.0000,  0.0000,  0.0000)
  34 Cu     2.606718    6.017216   14.253222    ( 0.0000,  0.0000,  0.0000)
  35 Cu     2.698683    4.567744   16.427906    ( 0.0000,  0.0000,  0.0000)
  36 C      1.305218    3.760277   17.383634    ( 0.0000,  0.0000,  0.0000)

Unit cell:
           periodic     x           y           z      points  spacing
  1. axis:    yes    7.818208    0.000000    0.000000    36     0.1881
  2. axis:    yes   -3.909104    6.770767    0.000000    36     0.1881
  3. axis:    no     0.000000    0.000000   26.383539   148     0.1783

  Lengths:   7.818208   7.818208  26.383539
  Angles:   90.000000  90.000000 120.000000

Effective grid spacing dv^(1/3) = 0.1938

     iter     time        total  log10-change:
                         energy  eigst   dens
iter:   1 01:12:43 -2741.332486  -2.96
iter:   2 01:12:57 -2741.310032  -3.67  -2.90
iter:   3 01:13:11 -2741.304599c -4.39  -3.17
iter:   4 01:13:26 -2741.302396c -4.73  -3.43
iter:   5 01:13:40 -2741.302401c -5.01  -3.84
iter:   6 01:13:54 -2741.302348c -5.32  -3.99
iter:   7 01:14:09 -2741.302324c -5.51  -4.14c
iter:   8 01:14:23 -2741.302372c -5.99  -4.31c
iter:   9 01:14:37 -2741.302295c -5.78  -4.36c
iter:  10 01:14:52 -2741.302310c -6.16  -4.46c
iter:  11 01:15:06 -2741.302294c -7.39  -4.64c
iter:  12 01:15:20 -2741.302304c -7.20  -4.75c
iter:  13 01:15:34 -2741.302285c -6.92  -4.92c
iter:  14 01:15:49 -2741.302292c -7.48c -4.96c

Converged after 14 iterations.

Dipole moment: (-3.434002, -6.135796, -0.162834) |e|*Ang

Energy contributions relative to reference atoms: (reference = -1621799.894396)

Kinetic:       +215.176118
Potential:     -255.931330
External:        +0.000000
XC:            -2701.909676
Entropy (-ST):   -0.377808
Local:           +1.551501
--------------------------
Free energy:   -2741.491196
Extrapolated:  -2741.302292

Showing only first 2 kpts
 Kpt  Band  Eigenvalues  Occupancy
  0   198     -5.84408    1.99860
  0   199     -5.65652    1.99090
  0   200     -5.37848    1.86275
  0   201     -5.34811    1.81847

  1   198     -5.62038    1.98697
  1   199     -5.60258    1.98445
  1   200     -5.30727    1.73887
  1   201     -5.10763    0.94981


Fermi level: -5.11768

No gap

Forces in eV/Ang:
  0 Cu    0.00984   -0.00568   -0.04363
  1 Cu   -0.00973   -0.02514   -0.02862
  2 Cu   -0.00711   -0.00454    0.05626
  3 Cu    0.00208   -0.00120    0.00152
  4 Cu   -0.03193   -0.00915   -0.08137
  5 Cu   -0.00636   -0.00528   -0.05470
  6 Cu   -0.00802   -0.00360    0.06192
  7 Cu   -0.00997   -0.00544   -0.00605
[...]
  12 Cu     2.606069    0.000000    9.999999    ( 0.0000,  0.0000,  0.0000)
  13 Cu     3.909104    0.752307   12.127846    ( 0.0000,  0.0000,  0.0000)
  14 Cu     2.605395    1.504012   14.261353    ( 0.0000,  0.0000,  0.0000)
  15 Cu     2.604078   -0.001642   16.394442    ( 0.0000,  0.0000,  0.0000)
  16 Cu     1.303035    2.256922    9.999999    ( 0.0000,  0.0000,  0.0000)
  17 Cu     2.606069    3.009230   12.127846    ( 0.0000,  0.0000,  0.0000)
  18 Cu     1.303420    3.761315   14.262977    ( 0.0000,  0.0000,  0.0000)
  19 Cu     1.302492    2.160389   16.439950    ( 0.0000,  0.0000,  0.0000)
  20 Cu     0.000000    4.513845    9.999999    ( 0.0000,  0.0000,  0.0000)
  21 Cu     1.303035    5.266152   12.127846    ( 0.0000,  0.0000,  0.0000)
  22 Cu    -0.000868    6.018162   14.261124    ( 0.0000,  0.0000,  0.0000)
  23 Cu    -0.080602    4.560381   16.443201    ( 0.0000,  0.0000,  0.0000)
  24 Cu     5.212139    0.000000    9.999999    ( 0.0000,  0.0000,  0.0000)
  25 Cu     6.515174    0.752307   12.127846    ( 0.0000,  0.0000,  0.0000)
  26 Cu     5.211971    1.504712   14.264773    ( 0.0000,  0.0000,  0.0000)
  27 Cu     5.211840    0.004136   16.398154    ( 0.0000,  0.0000,  0.0000)
  28 Cu     3.909104    2.256922    9.999999    ( 0.0000,  0.0000,  0.0000)
  29 Cu     5.212139    3.009230   12.127846    ( 0.0000,  0.0000,  0.0000)
  30 Cu     3.909289    3.762423   14.261353    ( 0.0000,  0.0000,  0.0000)
  31 Cu     3.913477    2.254398   16.398797    ( 0.0000,  0.0000,  0.0000)
  32 Cu     2.606069    4.513845    9.999999    ( 0.0000,  0.0000,  0.0000)
  33 Cu     3.909104    5.266152   12.127846    ( 0.0000,  0.0000,  0.0000)
  34 Cu     2.606762    6.017596   14.261725    ( 0.0000,  0.0000,  0.0000)
  35 Cu     2.689398    4.562582   16.439950    ( 0.0000,  0.0000,  0.0000)
  36 C      1.307857    3.758753   17.437098    ( 0.0000,  0.0000,  0.0000)

Unit cell:
           periodic     x           y           z      points  spacing
  1. axis:    yes    7.818208    0.000000    0.000000    36     0.1881
  2. axis:    yes   -3.909104    6.770767    0.000000    36     0.1881
  3. axis:    no     0.000000    0.000000   26.383539   148     0.1783

  Lengths:   7.818208   7.818208  26.383539
  Angles:   90.000000  90.000000 120.000000

Effective grid spacing dv^(1/3) = 0.1938

     iter     time        total  log10-change:
                         energy  eigst   dens
iter:   1 01:29:54 -2741.310644  -4.14
iter:   2 01:30:08 -2741.310005  -4.58  -3.34
iter:   3 01:30:22 -2741.308303c -5.76  -3.56
iter:   4 01:30:37 -2741.308053c -5.59  -4.05c
iter:   5 01:30:51 -2741.308138c -6.50  -4.33c
iter:   6 01:31:05 -2741.308141c -6.39  -4.53c
iter:   7 01:31:19 -2741.308119c -6.69  -4.75c
iter:   8 01:31:34 -2741.308115c -7.24  -4.86c
iter:   9 01:31:48 -2741.308124c -7.66c -5.02c

Converged after 9 iterations.

Dipole moment: (-3.440059, -6.132230, -0.174558) |e|*Ang

Energy contributions relative to reference atoms: (reference = -1621799.894396)

Kinetic:       +213.702906
Potential:     -254.753614
External:        +0.000000
XC:            -2701.612853
Entropy (-ST):   -0.377852
Local:           +1.544363
--------------------------
Free energy:   -2741.497050
Extrapolated:  -2741.308124

Showing only first 2 kpts
 Kpt  Band  Eigenvalues  Occupancy
  0   198     -5.85592    1.99860
  0   199     -5.67203    1.99120
  0   200     -5.39381    1.86670
  0   201     -5.35768    1.81408

  1   198     -5.64129    1.98805
  1   199     -5.61327    1.98422
  1   200     -5.32499    1.75115
  1   201     -5.12467    0.97397


Fermi level: -5.12988

No gap

Forces in eV/Ang:
  0 Cu    0.00896   -0.00518   -0.04272
  1 Cu   -0.00941   -0.01563   -0.01207
  2 Cu    0.01046    0.00362   -0.02363
  3 Cu   -0.00282    0.00163    0.00834
  4 Cu   -0.03205   -0.00992   -0.08006
  5 Cu   -0.00249   -0.00211   -0.01779
  6 Cu    0.00998    0.00749   -0.02326
  7 Cu    0.00345    0.00127    0.00904
  8 Cu    0.00282    0.00671   -0.07837
  9 Cu   -0.02103    0.01214   -0.00691
 10 Cu   -0.00039    0.00023    0.00640
 11 Cu   -0.00002   -0.00277    0.00942
 12 Cu   -0.00440   -0.00580   -0.07837
 13 Cu    0.01364   -0.00021    0.00619
 14 Cu   -0.01072    0.00461   -0.02375
 15 Cu    0.00239    0.00140    0.00942
 16 Cu    0.00354   -0.00216   -0.06584
 17 Cu   -0.01228    0.00709   -0.00083
 18 Cu   -0.00036    0.00021   -0.04353
 19 Cu   -0.00170    0.05406    0.00425
 20 Cu   -0.01022    0.00590   -0.06228
 21 Cu    0.00059    0.00321   -0.01779
 22 Cu   -0.00150   -0.01239   -0.02326
 23 Cu    0.05455   -0.03149    0.01619
 24 Cu   -0.00743    0.03272   -0.08006
 25 Cu   -0.01716    0.00990   -0.00892
 26 Cu    0.00023   -0.00013    0.00244
 27 Cu    0.00062   -0.00362    0.00904
 28 Cu    0.02933   -0.01693   -0.09875
 29 Cu    0.00700   -0.01170    0.00619
 30 Cu   -0.00935    0.00698   -0.02375
 31 Cu   -0.00430    0.00249    0.00872
 32 Cu    0.00364   -0.00198   -0.06584
 33 Cu    0.00883    0.01596   -0.01207
 34 Cu    0.00210   -0.01087   -0.02363
 35 Cu   -0.04767   -0.02556    0.00425
 36 C     0.00347   -0.00200   -0.00353

BFGS:   14 01:31:56    -2741.308124        0.0650
System changes: positions 

Initializing position-dependent things.

Density initialized from wave functions
                                          
                                          
                                          
                                          
                                          
                   C                      
          Cu    Cu     Cu                 
            Cu    Cu    Cu                
           Cu    Cu    Cu                 
             Cu    CCu   CCu              
              Cu     Cu    Cu             
             Cu     Cu    Cu              
               Cu     Cu    Cu            
                 Cu    Cu     Cu          
          Cu    Cu    Cu                  
            Cu    Cu    Cu                
             Cu     Cu    Cu              
                                          
                                          
                                          
                                          

Positions:
   0 Cu     0.000000    0.000000    9.999999    ( 0.0000,  0.0000,  0.0000)
   1 Cu     1.303035    0.752307   12.127846    ( 0.0000,  0.0000,  0.0000)
   2 Cu     0.000702    1.504270   14.260828    ( 0.0000,  0.0000,  0.0000)
   3 Cu     0.002796   -0.001614   16.394626    ( 0.0000,  0.0000,  0.0000)
   4 Cu    -1.303035    2.256922    9.999999    ( 0.0000,  0.0000,  0.0000)
   5 Cu     0.000000    3.009230   12.127846    ( 0.0000,  0.0000,  0.0000)
   6 Cu    -1.303496    3.762205   14.260764    ( 0.0000,  0.0000,  0.0000)
   7 Cu    -1.306489    2.255271   16.399383    ( 0.0000,  0.0000,  0.0000)
   8 Cu    -2.606069    4.513845    9.999999    ( 0.0000,  0.0000,  0.0000)
   9 Cu    -1.303035    5.266152   12.127846    ( 0.0000,  0.0000,  0.0000)
  10 Cu    -2.605634    6.018208   14.264051    ( 0.0000,  0.0000,  0.0000)
  11 Cu    -2.605594    4.516384   16.395678    ( 0.0000,  0.0000,  0.0000)
  12 Cu     2.606069    0.000000    9.999999    ( 0.0000,  0.0000,  0.0000)
  13 Cu     3.909104    0.752307   12.127846    ( 0.0000,  0.0000,  0.0000)
  14 Cu     2.605792    1.503841   14.260657    ( 0.0000,  0.0000,  0.0000)
  15 Cu     2.604108   -0.001681   16.395678    ( 0.0000,  0.0000,  0.0000)
  16 Cu     1.303035    2.256922    9.999999    ( 0.0000,  0.0000,  0.0000)
  17 Cu     2.606069    3.009230   12.127846    ( 0.0000,  0.0000,  0.0000)
  18 Cu     1.303432    3.761308   14.261358    ( 0.0000,  0.0000,  0.0000)
  19 Cu     1.302307    2.166269   16.443419    ( 0.0000,  0.0000,  0.0000)
  20 Cu     0.000000    4.513845    9.999999    ( 0.0000,  0.0000,  0.0000)
  21 Cu     1.303035    5.266152   12.127846    ( 0.0000,  0.0000,  0.0000)
  22 Cu    -0.000809    6.018526   14.260764    ( 0.0000,  0.0000,  0.0000)
  23 Cu    -0.074671    4.556956   16.448050    ( 0.0000,  0.0000,  0.0000)
  24 Cu     5.212139    0.000000    9.999999    ( 0.0000,  0.0000,  0.0000)
  25 Cu     6.515174    0.752307   12.127846    ( 0.0000,  0.0000,  0.0000)
  26 Cu     5.211980    1.504707   14.264316    ( 0.0000,  0.0000,  0.0000)
  27 Cu     5.211842    0.003817   16.399383    ( 0.0000,  0.0000,  0.0000)
  28 Cu     3.909104    2.256922    9.999999    ( 0.0000,  0.0000,  0.0000)
  29 Cu     5.212139    3.009230   12.127846    ( 0.0000,  0.0000,  0.0000)
  30 Cu     3.909635    3.762164   14.260657    ( 0.0000,  0.0000,  0.0000)
  31 Cu     3.913246    2.254531   16.400057    ( 0.0000,  0.0000,  0.0000)
  32 Cu     2.606069    4.513845    9.999999    ( 0.0000,  0.0000,  0.0000)
  33 Cu     3.909104    5.266152   12.127846    ( 0.0000,  0.0000,  0.0000)
  34 Cu     2.606719    6.018025   14.260828    ( 0.0000,  0.0000,  0.0000)
  35 Cu     2.684214    4.559801   16.443419    ( 0.0000,  0.0000,  0.0000)
  36 C      1.309143    3.758011   17.451188    ( 0.0000,  0.0000,  0.0000)

Unit cell:
           periodic     x           y           z      points  spacing
  1. axis:    yes    7.818208    0.000000    0.000000    36     0.1881
  2. axis:    yes   -3.909104    6.770767    0.000000    36     0.1881
  3. axis:    no     0.000000    0.000000   26.383539   148     0.1783

  Lengths:   7.818208   7.818208  26.383539
  Angles:   90.000000  90.000000 120.000000

Effective grid spacing dv^(1/3) = 0.1938

     iter     time        total  log10-change:
                         energy  eigst   dens
iter:   1 01:32:31 -2741.334108  -3.05
iter:   2 01:32:45 -2741.321562  -3.66  -2.90
iter:   3 01:32:59 -2741.311978c -4.76  -3.10
iter:   4 01:33:14 -2741.308922c -4.59  -3.40
iter:   5 01:33:28 -2741.309058c -5.14  -3.76
iter:   6 01:33:42 -2741.308933c -5.24  -3.97
iter:   7 01:33:56 -2741.308877c -5.69  -4.18c
iter:   8 01:34:11 -2741.308865c -6.28  -4.28c
iter:   9 01:34:25 -2741.308923c -6.16  -4.37c
iter:  10 01:34:39 -2741.308889c -6.81  -4.52c
iter:  11 01:34:53 -2741.308869c -6.84  -4.66c
iter:  12 01:35:08 -2741.308857c -6.69  -4.74c
iter:  13 01:35:22 -2741.308872c -7.31  -4.81c
iter:  14 01:35:36 -2741.308865c -8.21c -4.97c

Converged after 14 iterations.

Dipole moment: (-3.471359, -6.113383, -0.176758) |e|*Ang

Energy contributions relative to reference atoms: (reference = -1621799.894396)

Kinetic:       +213.358132
Potential:     -254.478459
External:        +0.000000
XC:            -2701.543011
Entropy (-ST):   -0.377681
Local:           +1.543313
--------------------------
Free energy:   -2741.497705
Extrapolated:  -2741.308865

Showing only first 2 kpts
 Kpt  Band  Eigenvalues  Occupancy
  0   198     -5.85898    1.99860
  0   199     -5.67607    1.99133
  0   200     -5.39833    1.86923
  0   201     -5.36047    1.81461

  1   198     -5.64615    1.98833
  1   199     -5.61657    1.98434
  1   200     -5.32980    1.75619
  1   201     -5.12856    0.98103


Fermi level: -5.13235

No gap

Forces in eV/Ang:
  0 Cu    0.00884   -0.00511   -0.04290
  1 Cu   -0.00943   -0.01552   -0.01387
  2 Cu    0.02236    0.00822   -0.00621
  3 Cu   -0.00461    0.00266   -0.00169
  4 Cu   -0.03207   -0.01019   -0.08056
  5 Cu   -0.00312   -0.00215   -0.01950
  6 Cu    0.01987    0.01553   -0.01057
  7 Cu   -0.00352   -0.00277   -0.00440
  8 Cu    0.00297    0.00683   -0.07833
  9 Cu   -0.02071    0.01196   -0.00790
 10 Cu   -0.00063    0.00036    0.01436
 11 Cu    0.00067   -0.00341   -0.00106
 12 Cu   -0.00443   -0.00599   -0.07833
 13 Cu    0.01422    0.00003    0.00380
 14 Cu   -0.02291    0.00952   -0.00847
 15 Cu    0.00328    0.00113   -0.00106
 16 Cu    0.00365   -0.00179   -0.06578
 17 Cu   -0.01170    0.00675   -0.00268
 18 Cu   -0.00072    0.00042   -0.02743
 19 Cu   -0.00148    0.01930    0.01464
 20 Cu   -0.01002    0.00578   -0.06224
 21 Cu    0.00030    0.00378   -0.01950
 22 Cu   -0.00351   -0.02497   -0.01057
 23 Cu    0.02392   -0.01381    0.02709
 24 Cu   -0.00721    0.03287   -0.08056
 25 Cu   -0.01773    0.01024   -0.01225
 26 Cu   -0.00001    0.00001    0.01132
 27 Cu    0.00064    0.00443   -0.00440
 28 Cu    0.02925   -0.01689   -0.09920
 29 Cu    0.00709   -0.01233    0.00380
 30 Cu   -0.01970    0.01508   -0.00847
 31 Cu    0.00066   -0.00038   -0.00432
 32 Cu    0.00338   -0.00227   -0.06578
 33 Cu    0.00873    0.01593   -0.01387
 34 Cu    0.00406   -0.02347   -0.00621
 35 Cu   -0.01746   -0.00837    0.01464
 36 C    -0.01426    0.00824   -0.04496

BFGS:   15 01:35:44    -2741.308865        0.0479
Timing:                                      incl.     excl.
-------------------------------------------------------------------
Density initialized from wave functions:     0.961     0.573   0.0% |
 Symmetrize density:                         0.389     0.389   0.0% |
Forces:                                    128.982   128.982   3.3% ||
Hamiltonian:                                37.694     0.002   0.0% |
 Atomic:                                     0.003     0.003   0.0% |
  XC Correction:                             0.000     0.000   0.0% |
 Calculate atomic Hamiltonians:              0.005     0.005   0.0% |
 Communicate:                                2.141     2.141   0.1% |
 Hartree integrate/restrict:                 0.028     0.028   0.0% |
 Initialize Hamiltonian:                     0.000     0.000   0.0% |
 Poisson:                                    0.829     0.024   0.0% |
  Communicate from 1D:                       0.133     0.133   0.0% |
  Communicate from 2D:                       0.128     0.128   0.0% |
  Communicate to 1D:                         0.121     0.121   0.0% |
  Communicate to 2D:                         0.157     0.157   0.0% |
  FFT 1D:                                    0.160     0.160   0.0% |
  FFT 2D:                                    0.106     0.106   0.0% |
 XC 3D grid:                                34.657     3.041   0.1% |
  VdW-DF integral:                          31.616     1.647   0.0% |
   Convolution:                              2.677     2.677   0.1% |
   FFT:                                      1.873     1.873   0.0% |
   gather:                                   8.879     8.879   0.2% |
   hmm1:                                     0.583     0.583   0.0% |
   hmm2:                                     1.197     1.197   0.0% |
   iFFT:                                     1.749     1.749   0.0% |
   potential:                                8.866     0.169   0.0% |
    collect:                                 0.695     0.695   0.0% |
    p1:                                      5.339     5.339   0.1% |
    p2:                                      1.833     1.833   0.0% |
    sum:                                     0.831     0.831   0.0% |
   splines:                                  4.143     4.143   0.1% |
 vbar:                                       0.028     0.028   0.0% |
LCAO initialization:                         5.219     0.627   0.0% |
 LCAO eigensolver:                           1.406     0.003   0.0% |
  Calculate projections:                     0.000     0.000   0.0% |
  DenseAtomicCorrection:                     0.000     0.000   0.0% |
  Distribute overlap matrix:                 0.946     0.946   0.0% |
  Orbital Layouts:                           0.442     0.442   0.0% |
  Potential matrix:                          0.001     0.001   0.0% |
  Sum over cells:                            0.014     0.014   0.0% |
 LCAO to grid:                               2.626     2.626   0.1% |
 Set positions (LCAO WFS):                   0.559     0.427   0.0% |
  Basic WFS set positions:                   0.002     0.002   0.0% |
  Basis functions set positions:             0.000     0.000   0.0% |
  P tci:                                     0.001     0.001   0.0% |
  ST tci:                                    0.066     0.066   0.0% |
  mktci:                                     0.063     0.063   0.0% |
Redistribute:                                0.011     0.011   0.0% |
SCF-cycle:                                3494.463    14.235   0.4% |
 Davidson:                                2956.783   816.702  20.7% |-------|
  Apply hamiltonian:                        89.955    89.955   2.3% ||
  Subspace diag:                           318.423     0.096   0.0% |
   calc_h_matrix:                          162.946    75.323   1.9% ||
    Apply hamiltonian:                      87.623    87.623   2.2% ||
   diagonalize:                             19.863    19.863   0.5% |
   rotate_psi:                             135.517   135.517   3.4% ||
  calc. matrices:                         1311.001   524.062  13.3% |----|
   Apply hamiltonian:                      786.938   786.938  19.9% |-------|
  diagonalize:                             138.743   138.743   3.5% ||
  rotate_psi:                              281.958   281.958   7.1% |--|
 Density:                                   12.960     0.005   0.0% |
  Atomic density matrices:                   1.330     1.330   0.0% |
  Mix:                                       0.825     0.825   0.0% |
  Multipole moments:                         0.044     0.044   0.0% |
  Pseudo density:                           10.755     4.518   0.1% |
   Symmetrize density:                       6.237     6.237   0.2% |
 Hamiltonian:                              482.284     0.024   0.0% |
  Atomic:                                    0.053     0.053   0.0% |
   XC Correction:                            0.001     0.001   0.0% |
  Calculate atomic Hamiltonians:             0.064     0.064   0.0% |
  Communicate:                              30.446    30.446   0.8% |
  Hartree integrate/restrict:                0.418     0.418   0.0% |
  Poisson:                                  11.796     0.287   0.0% |
   Communicate from 1D:                      1.955     1.955   0.0% |
   Communicate from 2D:                      1.822     1.822   0.0% |
   Communicate to 1D:                        1.717     1.717   0.0% |
   Communicate to 2D:                        2.257     2.257   0.1% |
   FFT 1D:                                   2.263     2.263   0.1% |
   FFT 2D:                                   1.496     1.496   0.0% |
  XC 3D grid:                              439.367    42.621   1.1% |
   VdW-DF integral:                        396.746    24.003   0.6% |
    Convolution:                            38.555    38.555   1.0% |
    FFT:                                    26.896    26.896   0.7% |
    gather:                                129.902   129.902   3.3% ||
    hmm1:                                    8.214     8.214   0.2% |
    hmm2:                                   17.158    17.158   0.4% |
    iFFT:                                   25.051    25.051   0.6% |
    potential:                             126.966     2.436   0.1% |
     collect:                                9.936     9.936   0.3% |
     p1:                                    76.027    76.027   1.9% ||
     p2:                                    26.242    26.242   0.7% |
     sum:                                   12.326    12.326   0.3% |
    splines:                                 0.001     0.001   0.0% |
  vbar:                                      0.117     0.117   0.0% |
 Orthonormalize:                            28.201     0.008   0.0% |
  calc_s_matrix:                             2.215     2.215   0.1% |
  inverse-cholesky:                         21.168    21.168   0.5% |
  projections:                               0.002     0.002   0.0% |
  rotate_psi_s:                              4.808     4.808   0.1% |
Set symmetry:                                0.002     0.002   0.0% |
Other:                                     286.671   286.671   7.3% |--|
-------------------------------------------------------------------
Total:                                              3954.003 100.0%

Memory usage: 1.03 GiB
Date: Thu Sep 28 01:35:44 2023
