
  ___ ___ ___ _ _ _  
 |   |   |_  | | | | 
 | | | | | . | | | | 
 |__ |  _|___|_____|  22.8.0
 |___|_|             

User:   s204775@a120.nifl.fysik.dtu.dk
Date:   Thu Sep 28 01:29:38 2023
Arch:   x86_64
Pid:    28990
CWD:    /home/cat/s204775/projects/Bachelor_project/C_missing_features
Python: 3.10.4
gpaw:   /home/modules/software/GPAW/22.8.0-intel-2022a/lib/python3.10/site-packages/gpaw
_gpaw:  /home/modules/software/GPAW/22.8.0-intel-2022a/lib/python3.10/site-packages/
        _gpaw.cpython-310-x86_64-linux-gnu.so
ase:    /home/modules/software/ASE/3.22.1-intel-2022a/lib/python3.10/site-packages/ase (version 3.22.1)
numpy:  /home/modules/software/SciPy-bundle/2022.05-intel-2022a/lib/python3.10/site-packages/numpy (version 1.22.3)
scipy:  /home/modules/software/SciPy-bundle/2022.05-intel-2022a/lib/python3.10/site-packages/scipy (version 1.8.1)
libxc:  5.2.3
units:  Angstrom and eV
cores: 40
OpenMP: False
OMP_NUM_THREADS: 1

Input parameters:
  basis: dzp
  h: 0.18
  kpts: {size: (4, 4, 1)}
  xc: BEEF-vdW

System changes: positions, numbers, cell, pbc, initial_charges, initial_magmoms 

Initialize ...

species:
  Fe:
    name: Iron
    id: 37abbd8d6c3c35915a9b583b742da910
    Z: 26.0
    valence: 8
    core: 18
    charge: 0.0
    file: /home/modules/software/GPAW-setups/0.9.20000/Fe.PBE.gz
    compensation charges: {type: gauss,
                           rc: 0.33,
                           lmax: 2}
    cutoffs: {filter: 2.06,
              core: 2.67}
    valence states:
      #              energy  rcut
      - 4s(2.00)    -5.291   1.164
      - 4p(0.00)    -1.326   1.058
      - 3d(6.00)    -7.505   1.058
      -  s          21.920   1.164
      -  p          25.885   1.058
      -  d          19.706   1.058
  
    # LCAO basis set for Fe:
    #   Name: dzp
    #   File: /home/modules/software/GPAW-setups/0.9.20000/Fe.dzp.basis.gz
    #   Number of radial functions: 5
    #   Number of spherical harmonics: 15
    #     l=0, rc=8.9688 Bohr: 4s-sz confined orbital
    #     l=2, rc=5.1719 Bohr: 3d-sz confined orbital
    #     l=0, rc=5.3281 Bohr: 4s-dz split-valence wave
    #     l=2, rc=3.0938 Bohr: 3d-dz split-valence wave
    #     l=1, rc=8.9688 Bohr: p-type Gaussian polarization
    #   Number of RI-basis functions 0

  C:
    name: Carbon
    id: 4aa54d4b901d75f77cc0ea3eec22967b
    Z: 6.0
    valence: 4
    core: 2
    charge: 0.0
    file: /home/modules/software/GPAW-setups/0.9.20000/C.PBE.gz
    compensation charges: {type: gauss,
                           rc: 0.20,
                           lmax: 2}
    cutoffs: {filter: 1.14,
              core: 1.14}
    valence states:
      #              energy  rcut
      - 2s(2.00)   -13.751   0.635
      - 2p(2.00)    -5.284   0.635
      -  s          13.461   0.635
      -  p          21.927   0.635
      -  d           0.000   0.635
  
    # LCAO basis set for C:
    #   Name: dzp
    #   File: /home/modules/software/GPAW-setups/0.9.20000/C.dzp.basis.gz
    #   Number of radial functions: 5
    #   Number of spherical harmonics: 13
    #     l=0, rc=5.5469 Bohr: 2s-sz confined orbital
    #     l=1, rc=6.6719 Bohr: 2p-sz confined orbital
    #     l=0, rc=3.0312 Bohr: 2s-dz split-valence wave
    #     l=1, rc=3.7500 Bohr: 2p-dz split-valence wave
    #     l=2, rc=6.6719 Bohr: d-type Gaussian polarization
    #   Number of RI-basis functions 0

Reference energy: -1247327.993713  # eV

Spin-polarized calculation.
Magnetic moment: 97.664047

Convergence criteria:
 Maximum [total energy] change in last 3 cyles: 0.0005 eV / electron
 Maximum integral of absolute [dens]ity change: 0.0001 electrons / valence electron
 Maximum integral of absolute [eigenst]ate change: 4e-08 eV^2 / valence electron
 Maximum number of scf [iter]ations: 333
 (Square brackets indicate name in SCF output, whereas a 'c' in
 the SCF output indicates the quantity has converged.)

Symmetries present (total): 1

  ( 1  0  0)
  ( 0  1  0)
  ( 0  0  1)

16 k-points: 4 x 4 x 1 Monkhorst-Pack grid
8 k-points in the irreducible part of the Brillouin zone
       k-points in crystal coordinates                weights
   0:     0.12500000   -0.37500000    0.00000000          2/16
   1:     0.12500000   -0.12500000    0.00000000          2/16
   2:     0.12500000    0.12500000    0.00000000          2/16
   3:     0.12500000    0.37500000    0.00000000          2/16
   4:     0.37500000   -0.37500000    0.00000000          2/16
   5:     0.37500000   -0.12500000    0.00000000          2/16
   6:     0.37500000    0.12500000    0.00000000          2/16
   7:     0.37500000    0.37500000    0.00000000          2/16

Wave functions: Uniform real-space grid
  Kinetic energy operator: 8*3+1=25 point O(h^6) finite-difference Laplacian
  ScaLapack parameters: grid=1x1, blocksize=None
  Wavefunction extrapolation:
    Improved wavefunction reuse through dual PAW basis 

Occupation numbers: Fermi-Dirac:
  width: 0.1000  # eV
 

Eigensolver
   Davidson(niter=2) 

Densities:
  Coarse grid: 36*36*148 grid
  Fine grid: 72*72*296 grid
  Total Charge: 0.000000 

Density mixing:
  Method: difference
  Backend: pulay
  Linear mixing parameter: 0.05
  old densities: 5
  Damping of long wavelength oscillations: 50 

Hamiltonian:
  XC and Coulomb potentials evaluated on a 72*72*296 grid
  Using the BEEF-vdW Exchange-Correlation functional
  Interpolation: tri-quintic (5. degree polynomial)
  Poisson solver: FastPoissonSolver using
    Stencil: 8*3+1=25 point O(h^6) finite-difference Laplacian
    FFT axes: [0, 1]
    FST axes: [2]
 

XC parameters: BEEF-vdW with 2 nearest neighbor stencil

Memory estimate:
  Process memory now: 191.01 MiB
  Calculator: 480.67 MiB
    Density: 43.92 MiB
      Arrays: 10.19 MiB
      Localized functions: 29.71 MiB
      Mixer: 4.01 MiB
    Hamiltonian: 9.80 MiB
      Arrays: 7.57 MiB
      XC: 0.00 MiB
      Poisson: 0.00 MiB
      vbar: 2.23 MiB
    Wavefunctions: 426.95 MiB
      Arrays psit_nG: 272.98 MiB
      Eigensolver: 148.01 MiB
      Projections: 0.96 MiB
      Projectors: 5.00 MiB

Total number of cores used: 40
Parallelization over k-points: 8
Domain decomposition: 1 x 1 x 5

Number of atoms: 37
Number of atomic orbitals: 553
Number of bands in calculation: 238
Number of valence electrons: 292
Bands to converge: occupied

... initialized

Initializing position-dependent things.

Density initialized from atomic densities
Creating initial wave functions:
  238 bands from LCAO basis set

                                          
                                          
                                          
                                          
                                          
                   C                      
          Fe    Fe    Fe                  
           FFe   FFe   FFe                
             Fe     Fe    Fe              
             Fe    Fe    Fe               
             FFe    FFe   FFe             
                                          
               Fe     Fe    Fe            
                 Fe    Fe     Fe          
          Fe    Fe    Fe                  
            Fe    Fe    Fe                
             Fe     Fe    Fe              
                                          
                                          
                                          
                                          

Positions:
   0 Fe     0.000000    0.000000   10.000000    ( 0.0000,  0.0000,  2.7500)
   1 Fe     1.298117    0.749468   12.119817    ( 0.0000,  0.0000,  2.6728)
   2 Fe    -0.000000    1.498938   14.260075    ( 0.0000,  0.0000,  2.6756)
   3 Fe     0.000000    0.000000   16.395073    ( 0.0000,  0.0000,  2.7532)
   4 Fe    -1.298117    2.248405   10.000000    ( 0.0000,  0.0000,  2.7500)
   5 Fe     0.000000    2.997873   12.119817    ( 0.0000,  0.0000,  2.6728)
   6 Fe    -1.298117    3.747342   14.260076    ( 0.0000,  0.0000,  2.6756)
   7 Fe    -1.298117    2.248406   16.395074    ( 0.0000,  0.0000,  2.7532)
   8 Fe    -2.596234    4.496810   10.000000    ( 0.0000,  0.0000,  2.7500)
   9 Fe    -1.298117    5.246278   12.119817    ( 0.0000,  0.0000,  2.6728)
  10 Fe    -2.596234    5.995746   14.260075    ( 0.0000,  0.0000,  2.6756)
  11 Fe    -2.596234    4.496809   16.395074    ( 0.0000,  0.0000,  2.7532)
  12 Fe     2.596234    0.000000   10.000000    ( 0.0000,  0.0000,  2.7500)
  13 Fe     3.894352    0.749468   12.119817    ( 0.0000,  0.0000,  2.6728)
  14 Fe     2.596235    1.498937   14.260075    ( 0.0000,  0.0000,  2.6756)
  15 Fe     2.596235   -0.000000   16.395074    ( 0.0000,  0.0000,  2.7532)
  16 Fe     1.298117    2.248405   10.000000    ( 0.0000,  0.0000,  2.7500)
  17 Fe     2.596234    2.997873   12.119817    ( 0.0000,  0.0000,  2.6728)
  18 Fe     1.298117    3.747342   14.260076    ( 0.0000,  0.0000,  2.6756)
  19 Fe     1.298117    2.248406   16.395074    ( 0.0000,  0.0000,  2.7532)
  20 Fe     0.000000    4.496810   10.000000    ( 0.0000,  0.0000,  2.7500)
  21 Fe     1.298117    5.246278   12.119817    ( 0.0000,  0.0000,  2.6728)
  22 Fe    -0.000000    5.995746   14.260076    ( 0.0000,  0.0000,  2.6756)
  23 Fe     0.000000    4.496810   16.395074    ( 0.0000,  0.0000,  2.7532)
  24 Fe     5.192469    0.000000   10.000000    ( 0.0000,  0.0000,  2.7500)
  25 Fe     6.490586    0.749468   12.119817    ( 0.0000,  0.0000,  2.6728)
  26 Fe     5.192468    1.498937   14.260075    ( 0.0000,  0.0000,  2.6756)
  27 Fe     5.192468   -0.000000   16.395074    ( 0.0000,  0.0000,  2.7532)
  28 Fe     3.894352    2.248405   10.000000    ( 0.0000,  0.0000,  2.7500)
  29 Fe     5.192469    2.997873   12.119817    ( 0.0000,  0.0000,  2.6728)
  30 Fe     3.894352    3.747341   14.260075    ( 0.0000,  0.0000,  2.6756)
  31 Fe     3.894352    2.248405   16.395074    ( 0.0000,  0.0000,  2.7532)
  32 Fe     2.596234    4.496810   10.000000    ( 0.0000,  0.0000,  2.7500)
  33 Fe     3.894352    5.246278   12.119817    ( 0.0000,  0.0000,  2.6728)
  34 Fe     2.596234    5.995746   14.260075    ( 0.0000,  0.0000,  2.6756)
  35 Fe     2.596234    4.496809   16.395074    ( 0.0000,  0.0000,  2.7532)
  36 C      1.298117    3.747342   17.144542    ( 0.0000,  0.0000,  0.0000)

Unit cell:
           periodic     x           y           z      points  spacing
  1. axis:    yes    7.788703    0.000000    0.000000    36     0.1874
  2. axis:    yes   -3.894352    6.745215    0.000000    36     0.1874
  3. axis:    no     0.000000    0.000000   26.359450   148     0.1781

  Lengths:   7.788703   7.788703  26.359450
  Angles:   90.000000  90.000000 120.000000

Effective grid spacing dv^(1/3) = 0.1933

     iter     time        total  log10-change:  magmom
                         energy  eigst   dens
iter:   1 01:30:33 -2532.970616                  +96.7597
iter:   2 01:31:06 -2562.049214  -0.27  -1.31    +93.8947
iter:   3 01:31:38 -2540.518791  -0.57  -1.10    +91.4256
iter:   4 01:32:10 -2531.471914  -0.83  -1.24    +88.3488
iter:   5 01:32:42 -2530.002957  -0.93  -1.40    +90.8210
iter:   6 01:33:15 -2530.212887  -0.99  -1.51    +92.6578
iter:   7 01:33:47 -2530.374783  -1.31  -1.56    +93.3500
iter:   8 01:34:19 -2530.786780  -1.67  -1.60    +94.2343
iter:   9 01:34:51 -2539.669531  -1.54  -1.74    +94.2568
iter:  10 01:35:24 -2530.865474  -1.79  -1.35    +94.2664
iter:  11 01:35:56 -2530.787569  -2.46  -1.98    +94.2728
iter:  12 01:36:28 -2530.926914c -2.36  -2.08    +94.4636
iter:  13 01:37:00 -2530.838787c -2.60  -2.09    +94.4801
iter:  14 01:37:32 -2530.838955c -2.94  -2.36    +94.5610
iter:  15 01:38:05 -2530.851011c -3.07  -2.36    +94.7107
iter:  16 01:38:37 -2530.812914c -3.44  -2.34    +94.7183
iter:  17 01:39:09 -2530.803526c -3.56  -2.48    +94.7771
iter:  18 01:39:41 -2530.794451c -3.58  -2.55    +94.7648
iter:  19 01:40:14 -2530.809886c -3.91  -2.66    +94.7960
iter:  20 01:40:46 -2530.804174c -3.72  -2.66    +94.8018
iter:  21 01:41:18 -2530.804079c -4.34  -3.26    +94.7926
iter:  22 01:41:50 -2530.805101c -4.81  -3.32    +94.7839
iter:  23 01:42:23 -2530.805111c -5.10  -3.30    +94.7840
iter:  24 01:42:55 -2530.804496c -5.20  -3.40    +94.7833
iter:  25 01:43:27 -2530.804354c -5.14  -3.45    +94.7842
iter:  26 01:43:59 -2530.804624c -5.28  -3.51    +94.7843
iter:  27 01:44:31 -2530.804759c -5.49  -3.69    +94.7843
iter:  28 01:45:04 -2530.804559c -5.75  -3.77    +94.7852
iter:  29 01:45:36 -2530.804642c -6.11  -3.79    +94.7850
iter:  30 01:46:08 -2530.804791c -6.18  -3.87    +94.7852
iter:  31 01:46:40 -2530.804717c -5.99  -3.90    +94.7850
iter:  32 01:47:13 -2530.804767c -6.55  -3.83    +94.7847
iter:  33 01:47:45 -2530.804698c -6.47  -3.94    +94.7857
iter:  34 01:48:17 -2530.804713c -6.86  -4.32c   +94.7857
iter:  35 01:48:49 -2530.804720c -6.80  -4.39c   +94.7862
iter:  36 01:49:22 -2530.804782c -7.00  -4.39c   +94.7860
iter:  37 01:49:54 -2530.804723c -7.44c -4.73c   +94.7862

Converged after 37 iterations.

Dipole moment: (-3.977470, -6.828102, -0.097292) |e|*Ang

Total magnetic moment: (0.000000, 0.000000, 94.786152)
Local magnetic moments:
   0 Fe ( 0.000000,  0.000000,  2.829369)
   1 Fe ( 0.000000,  0.000000,  2.748444)
   2 Fe ( 0.000000,  0.000000,  2.735607)
   3 Fe ( 0.000000,  0.000000,  2.830109)
   4 Fe ( 0.000000,  0.000000,  2.832032)
   5 Fe ( 0.000000,  0.000000,  2.755355)
   6 Fe ( 0.000000,  0.000000,  2.736140)
   7 Fe ( 0.000000,  0.000000,  2.894917)
   8 Fe ( 0.000000,  0.000000,  2.828501)
   9 Fe ( 0.000000,  0.000000,  2.745625)
  10 Fe ( 0.000000,  0.000000,  2.739374)
  11 Fe ( 0.000000,  0.000000,  2.835026)
  12 Fe ( 0.000000,  0.000000,  2.828507)
  13 Fe ( 0.000000,  0.000000,  2.747714)
  14 Fe ( 0.000000,  0.000000,  2.733392)
  15 Fe ( 0.000000,  0.000000,  2.835033)
  16 Fe ( 0.000000,  0.000000,  2.829252)
  17 Fe ( 0.000000,  0.000000,  2.756855)
  18 Fe ( 0.000000,  0.000000,  2.777069)
  19 Fe ( 0.000000,  0.000000,  1.890249)
  20 Fe ( 0.000000,  0.000000,  2.827487)
  21 Fe ( 0.000000,  0.000000,  2.755367)
  22 Fe ( 0.000000,  0.000000,  2.736142)
  23 Fe ( 0.000000,  0.000000,  1.885406)
  24 Fe ( 0.000000,  0.000000,  2.832024)
  25 Fe ( 0.000000,  0.000000,  2.747602)
  26 Fe ( 0.000000,  0.000000,  2.750283)
  27 Fe ( 0.000000,  0.000000,  2.894991)
  28 Fe ( 0.000000,  0.000000,  2.832940)
  29 Fe ( 0.000000,  0.000000,  2.747705)
  30 Fe ( 0.000000,  0.000000,  2.733409)
  31 Fe ( 0.000000,  0.000000,  2.897215)
  32 Fe ( 0.000000,  0.000000,  2.829244)
  33 Fe ( 0.000000,  0.000000,  2.748435)
  34 Fe ( 0.000000,  0.000000,  2.735628)
  35 Fe ( 0.000000,  0.000000,  1.890181)
  36 C  ( 0.000000,  0.000000, -0.114039)

Energy contributions relative to reference atoms: (reference = -1247327.993713)

Kinetic:       +831.457499
Potential:     -726.010446
External:        +0.000000
XC:            -2637.385735
Entropy (-ST):   -1.643751
Local:           +1.955834
--------------------------
Free energy:   -2531.626599
Extrapolated:  -2530.804723

Spin contamination: 2.792576 electrons
Showing only first 2 kpts
                      Up                     Down
 Kpt  Band  Eigenvalues  Occupancy  Eigenvalues  Occupancy
  0   144     -6.52001    1.00000     -3.71989    0.00000
  0   145     -6.49882    1.00000     -3.69494    0.00000
  0   146     -6.48296    1.00000     -3.67927    0.00000
  0   147     -6.45872    1.00000     -3.65618    0.00000

  1   144     -6.42819    1.00000     -3.64020    0.00000
  1   145     -6.42388    1.00000     -3.61148    0.00000
  1   146     -6.39113    1.00000     -3.60484    0.00000
  1   147     -6.38753    1.00000     -3.59457    0.00000


Fermi level: -4.98816

No gap

Forces in eV/Ang:
  0 Fe   -0.00526    0.00321   -0.15411
  1 Fe   -0.00049   -0.00800    0.03917
  2 Fe    0.00896    0.00649   -0.02002
  3 Fe    0.06807   -0.04089    0.05383
  4 Fe    0.00894    0.00709   -0.16506
  5 Fe   -0.00184   -0.00155    0.05256
  6 Fe    0.00881    0.00154   -0.02592
  7 Fe    0.00036   -0.00001   -0.08574
  8 Fe   -0.00157   -0.00412   -0.15503
  9 Fe   -0.00746    0.00431    0.04237
 10 Fe    0.00105   -0.00088    0.09454
 11 Fe    0.00001    0.07518    0.05853
 12 Fe    0.00288    0.00363   -0.15503
 13 Fe    0.00523    0.00156    0.03530
 14 Fe   -0.00530    0.00476   -0.02335
 15 Fe   -0.06428   -0.03871    0.05918
 16 Fe   -0.00193    0.01037   -0.15941
 17 Fe    0.00110   -0.00058    0.05246
 18 Fe   -0.00147    0.00085   -0.17514
 19 Fe   -0.01208   -3.50654   -1.44941
 20 Fe    0.00554   -0.00307   -0.15809
 21 Fe    0.00047    0.00240    0.05264
 22 Fe    0.00301   -0.00852   -0.02550
 23 Fe   -3.01792    1.74323   -1.45992
 24 Fe   -0.00155   -0.01113   -0.16502
 25 Fe   -0.00587    0.00338    0.03346
 26 Fe    0.00181   -0.00107   -0.02741
 27 Fe    0.00127   -0.00253   -0.08457
 28 Fe   -0.01120    0.00661   -0.16746
 29 Fe    0.00126   -0.00533    0.03527
 30 Fe   -0.00664    0.00187   -0.02348
 31 Fe    0.00374   -0.00092   -0.08602
 32 Fe   -0.00982   -0.00331   -0.15939
 33 Fe    0.00670    0.00444    0.03923
 34 Fe   -0.00130   -0.01082   -0.01973
 35 Fe    3.03129    1.76490   -1.44974
 36 C    -0.00395    0.00188    4.82435

      Step     Time          Energy         fmax
BFGS:    0 01:50:15    -2530.804723        4.8243
System changes: positions 

Initializing position-dependent things.

Density initialized from wave functions
                                          
                                          
                                          
                                          
                                          
                   C                      
          Fe    Fe     Fe                 
           FFe   FFe   FFe                
             Fe     Fe    Fe              
             Fe    Fe    Fe               
              Fe     Fe    Fe             
             Fe     Fe    Fe              
               Fe     Fe    Fe            
                 Fe    Fe     Fe          
          Fe    Fe    Fe                  
            Fe    Fe    Fe                
             Fe     Fe    Fe              
                                          
                                          
                                          
                                          

Positions:
   0 Fe     0.000000    0.000000   10.000000    ( 0.0000,  0.0000,  2.7500)
   1 Fe     1.298117    0.749468   12.119817    ( 0.0000,  0.0000,  2.6728)
   2 Fe     0.000128    1.499030   14.259789    ( 0.0000,  0.0000,  2.6756)
   3 Fe     0.000972   -0.000584   16.395842    ( 0.0000,  0.0000,  2.7532)
   4 Fe    -1.298117    2.248405   10.000000    ( 0.0000,  0.0000,  2.7500)
   5 Fe     0.000000    2.997873   12.119817    ( 0.0000,  0.0000,  2.6728)
   6 Fe    -1.297991    3.747364   14.259705    ( 0.0000,  0.0000,  2.6756)
   7 Fe    -1.298112    2.248405   16.393849    ( 0.0000,  0.0000,  2.7532)
   8 Fe    -2.596234    4.496810   10.000000    ( 0.0000,  0.0000,  2.7500)
   9 Fe    -1.298117    5.246278   12.119817    ( 0.0000,  0.0000,  2.6728)
  10 Fe    -2.596219    5.995734   14.261426    ( 0.0000,  0.0000,  2.6756)
  11 Fe    -2.596234    4.497883   16.395910    ( 0.0000,  0.0000,  2.7532)
  12 Fe     2.596234    0.000000   10.000000    ( 0.0000,  0.0000,  2.7500)
  13 Fe     3.894352    0.749468   12.119817    ( 0.0000,  0.0000,  2.6728)
  14 Fe     2.596159    1.499005   14.259742    ( 0.0000,  0.0000,  2.6756)
  15 Fe     2.595317   -0.000553   16.395919    ( 0.0000,  0.0000,  2.7532)
  16 Fe     1.298117    2.248405   10.000000    ( 0.0000,  0.0000,  2.7500)
  17 Fe     2.596234    2.997873   12.119817    ( 0.0000,  0.0000,  2.6728)
  18 Fe     1.298096    3.747354   14.257574    ( 0.0000,  0.0000,  2.6756)
  19 Fe     1.297945    2.198312   16.374368    ( 0.0000,  0.0000,  2.7532)
  20 Fe     0.000000    4.496810   10.000000    ( 0.0000,  0.0000,  2.7500)
  21 Fe     1.298117    5.246278   12.119817    ( 0.0000,  0.0000,  2.6728)
  22 Fe     0.000043    5.995625   14.259711    ( 0.0000,  0.0000,  2.6756)
  23 Fe    -0.043113    4.521713   16.374218    ( 0.0000,  0.0000,  2.7532)
  24 Fe     5.192469    0.000000   10.000000    ( 0.0000,  0.0000,  2.7500)
  25 Fe     6.490586    0.749468   12.119817    ( 0.0000,  0.0000,  2.6728)
  26 Fe     5.192494    1.498922   14.259684    ( 0.0000,  0.0000,  2.6756)
  27 Fe     5.192486   -0.000036   16.393866    ( 0.0000,  0.0000,  2.7532)
  28 Fe     3.894352    2.248405   10.000000    ( 0.0000,  0.0000,  2.7500)
  29 Fe     5.192469    2.997873   12.119817    ( 0.0000,  0.0000,  2.6728)
  30 Fe     3.894257    3.747367   14.259740    ( 0.0000,  0.0000,  2.6756)
  31 Fe     3.894405    2.248392   16.393845    ( 0.0000,  0.0000,  2.7532)
  32 Fe     2.596234    4.496810   10.000000    ( 0.0000,  0.0000,  2.7500)
  33 Fe     3.894352    5.246278   12.119817    ( 0.0000,  0.0000,  2.6728)
  34 Fe     2.596215    5.995591   14.259793    ( 0.0000,  0.0000,  2.6756)
  35 Fe     2.639538    4.522022   16.374363    ( 0.0000,  0.0000,  2.7532)
  36 C      1.298061    3.747369   17.213461    ( 0.0000,  0.0000,  0.0000)

Unit cell:
           periodic     x           y           z      points  spacing
  1. axis:    yes    7.788703    0.000000    0.000000    36     0.1874
  2. axis:    yes   -3.894352    6.745215    0.000000    36     0.1874
  3. axis:    no     0.000000    0.000000   26.359450   148     0.1781

  Lengths:   7.788703   7.788703  26.359450
  Angles:   90.000000  90.000000 120.000000

Effective grid spacing dv^(1/3) = 0.1933

     iter     time        total  log10-change:  magmom
                         energy  eigst   dens
iter:   1 01:51:40 -2538.486840  -0.87           +94.7992
iter:   2 01:52:12 -2644.904765  -0.62  -1.49    +96.0101
iter:   3 01:52:45 -2535.284653  -0.94  -0.84    +90.7167
iter:   4 01:53:17 -2531.363057  -1.82  -1.53    +88.8310
iter:   5 01:53:49 -2531.166493  -2.10  -1.98    +92.2822
iter:   6 01:54:22 -2531.236833  -2.48  -2.14    +92.6491
iter:   7 01:54:54 -2531.245324c -2.63  -2.10    +93.4433
iter:   8 01:55:26 -2531.350043c -2.43  -2.28    +94.8919
iter:   9 01:55:59 -2531.397632  -2.66  -2.74    +95.0195
iter:  10 01:56:31 -2531.416395c -3.21  -2.67    +94.9097
iter:  11 01:57:03 -2531.407206c -3.27  -2.60    +94.8674
iter:  12 01:57:36 -2531.401976c -3.40  -2.77    +94.8900
iter:  13 01:58:08 -2531.406348c -3.75  -2.83    +94.9109
iter:  14 01:58:40 -2531.408960c -3.97  -2.87    +94.9238
iter:  15 01:59:13 -2531.399562c -3.96  -2.79    +94.9217
iter:  16 01:59:45 -2531.400167c -4.40  -3.20    +94.9363
iter:  17 02:00:17 -2531.398797c -4.65  -3.09    +94.9460
iter:  18 02:00:50 -2531.399463c -4.93  -3.36    +94.9497
iter:  19 02:01:22 -2531.400199c -5.09  -3.42    +94.9668
iter:  20 02:01:54 -2531.399860c -4.85  -3.25    +94.9647
iter:  21 02:02:27 -2531.399806c -5.01  -3.53    +94.9664
iter:  22 02:02:59 -2531.399873c -4.99  -3.57    +94.9711
iter:  23 02:03:32 -2531.399713c -5.37  -3.66    +94.9720
iter:  24 02:04:04 -2531.400421c -5.71  -3.70    +94.9715
iter:  25 02:04:36 -2531.399935c -5.44  -3.53    +94.9728
iter:  26 02:05:09 -2531.399950c -5.70  -3.74    +94.9723
iter:  27 02:05:41 -2531.399759c -6.13  -3.74    +94.9709
iter:  28 02:06:13 -2531.400068c -6.13  -3.82    +94.9711
iter:  29 02:06:45 -2531.400002c -6.08  -3.87    +94.9713
iter:  30 02:07:18 -2531.399975c -6.58  -4.20c   +94.9722
iter:  31 02:07:50 -2531.400001c -6.56  -3.93    +94.9722
iter:  32 02:08:22 -2531.399994c -7.10  -4.38c   +94.9723
iter:  33 02:08:55 -2531.399954c -7.06  -4.43c   +94.9723
iter:  34 02:09:27 -2531.400027c -7.41c -4.42c   +94.9727

Converged after 34 iterations.

Dipole moment: (-4.045372, -6.786742, -0.114987) |e|*Ang

Total magnetic moment: (0.000000, 0.000000, 94.972737)
Local magnetic moments:
   0 Fe ( 0.000000,  0.000000,  2.827610)
   1 Fe ( 0.000000,  0.000000,  2.748301)
   2 Fe ( 0.000000,  0.000000,  2.729907)
   3 Fe ( 0.000000,  0.000000,  2.819462)
   4 Fe ( 0.000000,  0.000000,  2.830250)
   5 Fe ( 0.000000,  0.000000,  2.756296)
   6 Fe ( 0.000000,  0.000000,  2.730297)
   7 Fe ( 0.000000,  0.000000,  2.899680)
   8 Fe ( 0.000000,  0.000000,  2.826725)
   9 Fe ( 0.000000,  0.000000,  2.746145)
  10 Fe ( 0.000000,  0.000000,  2.748031)
  11 Fe ( 0.000000,  0.000000,  2.823974)
  12 Fe ( 0.000000,  0.000000,  2.826732)
  13 Fe ( 0.000000,  0.000000,  2.745650)
  14 Fe ( 0.000000,  0.000000,  2.727476)
  15 Fe ( 0.000000,  0.000000,  2.823944)
  16 Fe ( 0.000000,  0.000000,  2.827143)
  17 Fe ( 0.000000,  0.000000,  2.757438)
  18 Fe ( 0.000000,  0.000000,  2.791580)
  19 Fe ( 0.000000,  0.000000,  1.982422)
  20 Fe ( 0.000000,  0.000000,  2.825464)
  21 Fe ( 0.000000,  0.000000,  2.756312)
  22 Fe ( 0.000000,  0.000000,  2.730300)
  23 Fe ( 0.000000,  0.000000,  1.976029)
  24 Fe ( 0.000000,  0.000000,  2.830245)
  25 Fe ( 0.000000,  0.000000,  2.745126)
  26 Fe ( 0.000000,  0.000000,  2.752484)
  27 Fe ( 0.000000,  0.000000,  2.899787)
  28 Fe ( 0.000000,  0.000000,  2.831181)
  29 Fe ( 0.000000,  0.000000,  2.745637)
  30 Fe ( 0.000000,  0.000000,  2.727466)
  31 Fe ( 0.000000,  0.000000,  2.901341)
  32 Fe ( 0.000000,  0.000000,  2.827136)
  33 Fe ( 0.000000,  0.000000,  2.748297)
  34 Fe ( 0.000000,  0.000000,  2.729901)
  35 Fe ( 0.000000,  0.000000,  1.982416)
  36 C  ( 0.000000,  0.000000, -0.129012)

Energy contributions relative to reference atoms: (reference = -1247327.993713)

Kinetic:       +819.977184
Potential:     -716.844044
External:        +0.000000
XC:            -2635.639685
Entropy (-ST):   -1.647970
Local:           +1.930502
--------------------------
Free energy:   -2532.224012
Extrapolated:  -2531.400027

Spin contamination: 2.831255 electrons
Showing only first 2 kpts
                      Up                     Down
 Kpt  Band  Eigenvalues  Occupancy  Eigenvalues  Occupancy
  0   144     -6.53568    1.00000     -3.73812    0.00000
  0   145     -6.52132    1.00000     -3.71577    0.00000
  0   146     -6.50277    1.00000     -3.69607    0.00000
  0   147     -6.47884    1.00000     -3.67616    0.00000

  1   144     -6.44925    1.00000     -3.66052    0.00000
  1   145     -6.43725    1.00000     -3.63154    0.00000
  1   146     -6.40682    1.00000     -3.62345    0.00000
  1   147     -6.40654    1.00000     -3.61058    0.00000


Fermi level: -5.00801

No gap

Forces in eV/Ang:
  0 Fe   -0.00433    0.00267   -0.15171
  1 Fe   -0.00059   -0.01171    0.03742
  2 Fe   -0.02712    0.00481   -0.07786
  3 Fe    0.02917   -0.01829    0.10020
  4 Fe    0.01106    0.00880   -0.16385
  5 Fe   -0.01013   -0.00654    0.04144
  6 Fe   -0.01046   -0.02746   -0.08266
  7 Fe   -0.01869   -0.01109   -0.04711
  8 Fe   -0.00142   -0.00330   -0.15280
  9 Fe   -0.01069    0.00617    0.04088
 10 Fe    0.00115   -0.00085    0.07410
 11 Fe    0.00032    0.03040    0.10263
 12 Fe    0.00225    0.00310   -0.15280
 13 Fe    0.00674    0.00266    0.04367
 14 Fe    0.02985    0.00345   -0.08053
 15 Fe   -0.02569   -0.01664    0.10325
 16 Fe   -0.00243    0.01033   -0.15868
 17 Fe    0.00973   -0.00556    0.04189
 18 Fe   -0.00050    0.00028   -0.14530
 19 Fe   -0.00904   -1.05841   -0.43899
 20 Fe    0.00520   -0.00287   -0.15797
 21 Fe    0.00065    0.01208    0.04152
 22 Fe    0.01864    0.02287   -0.08238
 23 Fe   -0.90362    0.52198   -0.44971
 24 Fe   -0.00198   -0.01382   -0.16382
 25 Fe   -0.00734    0.00423    0.04231
 26 Fe    0.00141   -0.00079   -0.04357
 27 Fe    0.00172    0.01939   -0.04528
 28 Fe   -0.01303    0.00766   -0.16594
 29 Fe    0.00107   -0.00721    0.04364
 30 Fe    0.01202   -0.02774   -0.08078
 31 Fe    0.02193   -0.01100   -0.04825
 32 Fe   -0.01001   -0.00283   -0.15866
 33 Fe    0.00987    0.00637    0.03752
 34 Fe   -0.01791    0.02132   -0.07783
 35 Fe    0.91342    0.53809   -0.43877
 36 C     0.00107   -0.00124    1.84508

BFGS:    1 02:09:48    -2531.400027        1.8451
System changes: positions 

Initializing position-dependent things.

Density initialized from wave functions
                                          
                                          
                                          
                                          
                                          
                   C                      
          Fe    Fe     Fe                 
           FFe   FFe   FFe                
             Fe     Fe    Fe              
             Fe    Fe    Fe               
              Fe     Fe    Fe             
             Fe     Fe    Fe              
               Fe     Fe    Fe            
                 Fe    Fe     Fe          
          Fe    Fe    Fe                  
            Fe    Fe    Fe                
             Fe     Fe    Fe              
                                          
                                          
                                          
                                          

Positions:
   0 Fe     0.000000    0.000000   10.000000    ( 0.0000,  0.0000,  2.7500)
   1 Fe     1.298117    0.749468   12.119817    ( 0.0000,  0.0000,  2.6728)
   2 Fe    -0.000450    1.499134   14.258125    ( 0.0000,  0.0000,  2.6756)
   3 Fe     0.001601   -0.000978   16.397985    ( 0.0000,  0.0000,  2.7532)
   4 Fe    -1.298117    2.248405   10.000000    ( 0.0000,  0.0000,  2.7500)
   5 Fe     0.000000    2.997873   12.119817    ( 0.0000,  0.0000,  2.6728)
   6 Fe    -1.298214    3.746778   14.257939    ( 0.0000,  0.0000,  2.6756)
   7 Fe    -1.298511    2.248169   16.392836    ( 0.0000,  0.0000,  2.7532)
   8 Fe    -2.596234    4.496810   10.000000    ( 0.0000,  0.0000,  2.7500)
   9 Fe    -1.298117    5.246278   12.119817    ( 0.0000,  0.0000,  2.6728)
  10 Fe    -2.596194    5.995715   14.263015    ( 0.0000,  0.0000,  2.6756)
  11 Fe    -2.596227    4.498538   16.398106    ( 0.0000,  0.0000,  2.7532)
  12 Fe     2.596234    0.000000   10.000000    ( 0.0000,  0.0000,  2.7500)
  13 Fe     3.894352    0.749468   12.119817    ( 0.0000,  0.0000,  2.6728)
  14 Fe     2.596796    1.499079   14.258021    ( 0.0000,  0.0000,  2.6756)
  15 Fe     2.594763   -0.000912   16.398128    ( 0.0000,  0.0000,  2.7532)
  16 Fe     1.298117    2.248405   10.000000    ( 0.0000,  0.0000,  2.7500)
  17 Fe     2.596234    2.997873   12.119817    ( 0.0000,  0.0000,  2.6728)
  18 Fe     1.298085    3.747360   14.254458    ( 0.0000,  0.0000,  2.6756)
  19 Fe     1.297751    2.175433   16.364879    ( 0.0000,  0.0000,  2.7532)
  20 Fe     0.000000    4.496810   10.000000    ( 0.0000,  0.0000,  2.7500)
  21 Fe     1.298117    5.246278   12.119817    ( 0.0000,  0.0000,  2.6728)
  22 Fe     0.000441    5.996112   14.257951    ( 0.0000,  0.0000,  2.6756)
  23 Fe    -0.062649    4.532998   16.364499    ( 0.0000,  0.0000,  2.7532)
  24 Fe     5.192469    0.000000   10.000000    ( 0.0000,  0.0000,  2.7500)
  25 Fe     6.490586    0.749468   12.119817    ( 0.0000,  0.0000,  2.6728)
  26 Fe     5.192524    1.498905   14.258751    ( 0.0000,  0.0000,  2.6756)
  27 Fe     5.192523    0.000377   16.392892    ( 0.0000,  0.0000,  2.7532)
  28 Fe     3.894352    2.248405   10.000000    ( 0.0000,  0.0000,  2.7500)
  29 Fe     5.192469    2.997873   12.119817    ( 0.0000,  0.0000,  2.6728)
  30 Fe     3.894513    3.746776   14.258014    ( 0.0000,  0.0000,  2.6756)
  31 Fe     3.894874    2.248157   16.392808    ( 0.0000,  0.0000,  2.7532)
  32 Fe     2.596234    4.496810   10.000000    ( 0.0000,  0.0000,  2.7500)
  33 Fe     3.894352    5.246278   12.119817    ( 0.0000,  0.0000,  2.6728)
  34 Fe     2.595833    5.996046   14.258130    ( 0.0000,  0.0000,  2.6756)
  35 Fe     2.659284    4.533653   16.364879    ( 0.0000,  0.0000,  2.7532)
  36 C      1.298083    3.747343   17.253241    ( 0.0000,  0.0000,  0.0000)

Unit cell:
           periodic     x           y           z      points  spacing
  1. axis:    yes    7.788703    0.000000    0.000000    36     0.1874
  2. axis:    yes   -3.894352    6.745215    0.000000    36     0.1874
  3. axis:    no     0.000000    0.000000   26.359450   148     0.1781

  Lengths:   7.788703   7.788703  26.359450
  Angles:   90.000000  90.000000 120.000000

Effective grid spacing dv^(1/3) = 0.1933

     iter     time        total  log10-change:  magmom
                         energy  eigst   dens
iter:   1 02:11:13 -2533.312607  -1.55           +94.9788
iter:   2 02:11:45 -2561.283483  -1.22  -1.77    +95.5343
iter:   3 02:12:18 -2532.308296  -1.54  -1.13    +93.7478
iter:   4 02:12:51 -2531.607969  -2.47  -1.87    +93.3161
iter:   5 02:13:23 -2531.442827  -2.80  -2.20    +94.3229
iter:   6 02:13:56 -2531.498931  -3.20  -2.77    +94.4468
iter:   7 02:14:29 -2531.478544c -3.57  -2.44    +94.5825
iter:   8 02:15:01 -2531.491043c -3.19  -2.74    +94.8981
iter:   9 02:15:34 -2531.500738c -3.24  -3.16    +95.0829
iter:  10 02:16:07 -2531.500388c -3.94  -3.20    +94.9336
iter:  11 02:16:39 -2531.502309c -3.94  -3.37    +94.8835
iter:  12 02:17:12 -2531.505635c -4.15  -3.39    +94.9469
iter:  13 02:17:45 -2531.506861c -4.43  -3.34    +94.9938
iter:  14 02:18:17 -2531.507869c -4.36  -3.38    +95.0561
iter:  15 02:18:50 -2531.508811c -4.74  -3.37    +95.0668
iter:  16 02:19:22 -2531.508350c -5.29  -3.25    +95.0580
iter:  17 02:19:55 -2531.511668c -4.58  -3.38    +95.0707
iter:  18 02:20:28 -2531.508396c -5.07  -3.03    +95.0645
iter:  19 02:21:00 -2531.508092c -5.11  -3.29    +95.0629
iter:  20 02:21:33 -2531.507173c -5.27  -3.34    +95.0649
iter:  21 02:22:06 -2531.508208c -5.76  -3.49    +95.0659
iter:  22 02:22:38 -2531.508087c -5.64  -3.34    +95.0687
iter:  23 02:23:11 -2531.507850c -5.99  -3.67    +95.0688
iter:  24 02:23:44 -2531.507840c -5.98  -3.46    +95.0693
iter:  25 02:24:16 -2531.508147c -5.96  -3.77    +95.0691
iter:  26 02:24:49 -2531.507858c -5.80  -3.86    +95.0713
iter:  27 02:25:22 -2531.508240c -5.86  -3.59    +95.0699
iter:  28 02:25:54 -2531.508302c -5.42  -3.99    +95.0615
iter:  29 02:26:27 -2531.508000c -5.35  -3.62    +95.0790
iter:  30 02:27:00 -2531.507939c -5.57  -4.04c   +95.0838
iter:  31 02:27:32 -2531.508140c -6.53  -4.30c   +95.0808
iter:  32 02:28:04 -2531.508538c -6.40  -4.25c   +95.0743
iter:  33 02:28:37 -2531.508314c -7.03  -4.04c   +95.0768
iter:  34 02:29:10 -2531.508185c -6.82  -4.20c   +95.0784
iter:  35 02:29:42 -2531.508047c -6.55  -4.04c   +95.0795
iter:  36 02:30:15 -2531.508209c -7.33  -4.10c   +95.0782
iter:  37 02:30:48 -2531.508394c -6.15  -4.32c   +95.0731
iter:  38 02:31:20 -2531.508108c -6.67  -3.93    +95.0745
iter:  39 02:31:53 -2531.508124c -6.54  -4.26c   +95.0716
iter:  40 02:32:26 -2531.507910c -5.94  -4.47c   +95.0791
iter:  41 02:32:58 -2531.507716c -6.08  -3.75    +95.0813
iter:  42 02:33:31 -2531.507854c -7.12  -3.80    +95.0797
iter:  43 02:34:03 -2531.508112c -6.27  -3.97    +95.0756
iter:  44 02:34:36 -2531.508109c -6.95  -4.37c   +95.0754
iter:  45 02:35:09 -2531.508066c -7.54c -4.46c   +95.0754

Converged after 45 iterations.

Dipole moment: (-4.077426, -6.764361, -0.125724) |e|*Ang

Total magnetic moment: (0.000000, 0.000000, 95.075410)
Local magnetic moments:
   0 Fe ( 0.000000,  0.000000,  2.828203)
   1 Fe ( 0.000000,  0.000000,  2.748638)
   2 Fe ( 0.000000,  0.000000,  2.726812)
   3 Fe ( 0.000000,  0.000000,  2.813458)
   4 Fe ( 0.000000,  0.000000,  2.831465)
   5 Fe ( 0.000000,  0.000000,  2.756943)
   6 Fe ( 0.000000,  0.000000,  2.727129)
   7 Fe ( 0.000000,  0.000000,  2.900364)
   8 Fe ( 0.000000,  0.000000,  2.827366)
   9 Fe ( 0.000000,  0.000000,  2.746812)
  10 Fe ( 0.000000,  0.000000,  2.752496)
  11 Fe ( 0.000000,  0.000000,  2.817680)
  12 Fe ( 0.000000,  0.000000,  2.827376)
  13 Fe ( 0.000000,  0.000000,  2.744939)
  14 Fe ( 0.000000,  0.000000,  2.724399)
  15 Fe ( 0.000000,  0.000000,  2.817673)
  16 Fe ( 0.000000,  0.000000,  2.828105)
  17 Fe ( 0.000000,  0.000000,  2.757925)
  18 Fe ( 0.000000,  0.000000,  2.797340)
  19 Fe ( 0.000000,  0.000000,  2.029557)
  20 Fe ( 0.000000,  0.000000,  2.826512)
  21 Fe ( 0.000000,  0.000000,  2.756958)
  22 Fe ( 0.000000,  0.000000,  2.727132)
  23 Fe ( 0.000000,  0.000000,  2.022562)
  24 Fe ( 0.000000,  0.000000,  2.831456)
  25 Fe ( 0.000000,  0.000000,  2.744200)
  26 Fe ( 0.000000,  0.000000,  2.752309)
  27 Fe ( 0.000000,  0.000000,  2.900447)
  28 Fe ( 0.000000,  0.000000,  2.832382)
  29 Fe ( 0.000000,  0.000000,  2.744922)
  30 Fe ( 0.000000,  0.000000,  2.724374)
  31 Fe ( 0.000000,  0.000000,  2.901874)
  32 Fe ( 0.000000,  0.000000,  2.828092)
  33 Fe ( 0.000000,  0.000000,  2.748633)
  34 Fe ( 0.000000,  0.000000,  2.726790)
  35 Fe ( 0.000000,  0.000000,  2.029696)
  36 C  ( 0.000000,  0.000000, -0.137109)

Energy contributions relative to reference atoms: (reference = -1247327.993713)

Kinetic:       +816.041779
Potential:     -713.666410
External:        +0.000000
XC:            -2634.978889
Entropy (-ST):   -1.647867
Local:           +1.919388
--------------------------
Free energy:   -2532.332000
Extrapolated:  -2531.508066

Spin contamination: 2.855647 electrons
Showing only first 2 kpts
                      Up                     Down
 Kpt  Band  Eigenvalues  Occupancy  Eigenvalues  Occupancy
  0   144     -6.54535    1.00000     -3.74853    0.00000
  0   145     -6.53499    1.00000     -3.72810    0.00000
  0   146     -6.51428    1.00000     -3.70531    0.00000
  0   147     -6.49022    1.00000     -3.68743    0.00000

  1   144     -6.46218    1.00000     -3.66344    0.00000
  1   145     -6.44650    1.00000     -3.64211    0.00000
  1   146     -6.41782    1.00000     -3.63495    0.00000
  1   147     -6.41614    1.00000     -3.61955    0.00000


Fermi level: -5.01892

No gap

Forces in eV/Ang:
  0 Fe   -0.00435    0.00268   -0.15017
  1 Fe   -0.00063   -0.01562    0.03650
  2 Fe   -0.03015   -0.00112   -0.08643
  3 Fe    0.00936   -0.00624    0.10838
  4 Fe    0.01132    0.00914   -0.16223
  5 Fe   -0.01338   -0.00850    0.02827
  6 Fe   -0.01672   -0.02642   -0.09030
  7 Fe   -0.02482   -0.01444   -0.02617
  8 Fe   -0.00138   -0.00333   -0.15114
  9 Fe   -0.01415    0.00817    0.03988
 10 Fe    0.00067   -0.00046    0.07568
 11 Fe    0.00061    0.00810    0.10934
 12 Fe    0.00230    0.00309   -0.15115
 13 Fe    0.00883    0.00411    0.03960
 14 Fe    0.03180   -0.00187   -0.08796
 15 Fe   -0.00651   -0.00531    0.10988
 16 Fe   -0.00270    0.01070   -0.15796
 17 Fe    0.01311   -0.00752    0.02904
 18 Fe    0.00034   -0.00017   -0.11217
 19 Fe   -0.00743   -0.35815   -0.04671
 20 Fe    0.00540   -0.00299   -0.15751
 21 Fe    0.00072    0.01587    0.02835
 22 Fe    0.01468    0.02788   -0.09003
 23 Fe   -0.30134    0.17412   -0.05595
 24 Fe   -0.00214   -0.01421   -0.16220
 25 Fe   -0.00942    0.00543    0.03880
 26 Fe    0.00104   -0.00062   -0.04599
 27 Fe    0.00135    0.02689   -0.02442
 28 Fe   -0.01314    0.00773   -0.16397
 29 Fe    0.00085   -0.00976    0.03956
 30 Fe    0.01755   -0.02664   -0.08836
 31 Fe    0.02691   -0.01411   -0.02775
 32 Fe   -0.01045   -0.00278   -0.15794
 33 Fe    0.01323    0.00836    0.03662
 34 Fe   -0.01428    0.02689   -0.08656
 35 Fe    0.30756    0.18629   -0.04601
 36 C     0.00217   -0.00191    0.67055

BFGS:    2 02:35:30    -2531.508066        0.6706
System changes: positions 

Initializing position-dependent things.

Density initialized from wave functions
                                          
                                          
                                          
                                          
                                          
                   C                      
          Fe    Fe     Fe                 
           FFe   FFe   FFe                
             Fe     Fe    Fe              
             Fe    Fe    Fe               
              Fe     Fe    Fe             
             Fe     Fe    Fe              
               Fe     Fe    Fe            
                 Fe    Fe     Fe          
          Fe    Fe    Fe                  
            Fe    Fe    Fe                
             Fe     Fe    Fe              
                                          
                                          
                                          
                                          

Positions:
   0 Fe     0.000000    0.000000   10.000000    ( 0.0000,  0.0000,  2.7500)
   1 Fe     1.298117    0.749468   12.119817    ( 0.0000,  0.0000,  2.6728)
   2 Fe    -0.001209    1.499128   14.255947    ( 0.0000,  0.0000,  2.6756)
   3 Fe     0.001923   -0.001188   16.400730    ( 0.0000,  0.0000,  2.7532)
   4 Fe    -1.298117    2.248405   10.000000    ( 0.0000,  0.0000,  2.7500)
   5 Fe     0.000000    2.997873   12.119817    ( 0.0000,  0.0000,  2.6728)
   6 Fe    -1.298616    3.746098   14.255657    ( 0.0000,  0.0000,  2.6756)
   7 Fe    -1.299122    2.247812   16.392078    ( 0.0000,  0.0000,  2.7532)
   8 Fe    -2.596234    4.496810   10.000000    ( 0.0000,  0.0000,  2.7500)
   9 Fe    -1.298117    5.246278   12.119817    ( 0.0000,  0.0000,  2.6728)
  10 Fe    -2.596175    5.995702   14.264952    ( 0.0000,  0.0000,  2.6756)
  11 Fe    -2.596212    4.498839   16.400881    ( 0.0000,  0.0000,  2.7532)
  12 Fe     2.596234    0.000000   10.000000    ( 0.0000,  0.0000,  2.7500)
  13 Fe     3.894352    0.749468   12.119817    ( 0.0000,  0.0000,  2.6728)
  14 Fe     2.597602    1.499052   14.255798    ( 0.0000,  0.0000,  2.6756)
  15 Fe     2.594516   -0.001095   16.400917    ( 0.0000,  0.0000,  2.7532)
  16 Fe     1.298117    2.248405   10.000000    ( 0.0000,  0.0000,  2.7500)
  17 Fe     2.596234    2.997873   12.119817    ( 0.0000,  0.0000,  2.6728)
  18 Fe     1.298091    3.747357   14.251445    ( 0.0000,  0.0000,  2.6756)
  19 Fe     1.297554    2.163251   16.362034    ( 0.0000,  0.0000,  2.7532)
  20 Fe     0.000000    4.496810   10.000000    ( 0.0000,  0.0000,  2.7500)
  21 Fe     1.298117    5.246278   12.119817    ( 0.0000,  0.0000,  2.6728)
  22 Fe     0.000832    5.996805   14.255676    ( 0.0000,  0.0000,  2.6756)
  23 Fe    -0.072955    4.538952   16.361412    ( 0.0000,  0.0000,  2.7532)
  24 Fe     5.192469    0.000000   10.000000    ( 0.0000,  0.0000,  2.7500)
  25 Fe     6.490586    0.749468   12.119817    ( 0.0000,  0.0000,  2.6728)
  26 Fe     5.192552    1.498888   14.257582    ( 0.0000,  0.0000,  2.6756)
  27 Fe     5.192559    0.001036   16.392179    ( 0.0000,  0.0000,  2.7532)
  28 Fe     3.894352    2.248405   10.000000    ( 0.0000,  0.0000,  2.7500)
  29 Fe     5.192469    2.997873   12.119817    ( 0.0000,  0.0000,  2.6728)
  30 Fe     3.894940    3.746090   14.255782    ( 0.0000,  0.0000,  2.6756)
  31 Fe     3.895543    2.247808   16.392012    ( 0.0000,  0.0000,  2.7532)
  32 Fe     2.596234    4.496810   10.000000    ( 0.0000,  0.0000,  2.7500)
  33 Fe     3.894352    5.246278   12.119817    ( 0.0000,  0.0000,  2.6728)
  34 Fe     2.595453    5.996711   14.255949    ( 0.0000,  0.0000,  2.6756)
  35 Fe     2.669764    4.539935   16.362050    ( 0.0000,  0.0000,  2.7532)
  36 C      1.298134    3.747296   17.275370    ( 0.0000,  0.0000,  0.0000)

Unit cell:
           periodic     x           y           z      points  spacing
  1. axis:    yes    7.788703    0.000000    0.000000    36     0.1874
  2. axis:    yes   -3.894352    6.745215    0.000000    36     0.1874
  3. axis:    no     0.000000    0.000000   26.359450   148     0.1781

  Lengths:   7.788703   7.788703  26.359450
  Angles:   90.000000  90.000000 120.000000

Effective grid spacing dv^(1/3) = 0.1933

     iter     time        total  log10-change:  magmom
                         energy  eigst   dens
iter:   1 02:36:56 -2532.359852  -2.11           +95.0787
iter:   2 02:37:28 -2548.445935  -1.48  -1.91    +95.4074
iter:   3 02:38:01 -2531.660675  -1.86  -1.23    +94.5097
iter:   4 02:38:34 -2531.525078  -2.88  -2.24    +94.5855
iter:   5 02:39:06 -2531.514579  -3.36  -2.76    +94.8613
iter:   6 02:39:38 -2531.523914c -3.76  -2.95    +94.8995
iter:   7 02:40:11 -2531.522458c -4.03  -2.79    +94.9607
iter:   8 02:40:44 -2531.524653c -3.74  -3.00    +95.0738
iter:   9 02:41:16 -2531.526332c -4.07  -3.49    +95.1038
iter:  10 02:41:49 -2531.525772c -4.46  -3.42    +95.1117
iter:  11 02:42:22 -2531.526467c -4.54  -3.58    +95.1222
iter:  12 02:42:55 -2531.525733c -4.95  -3.26    +95.1250
iter:  13 02:43:27 -2531.526004c -5.06  -3.64    +95.1290
iter:  14 02:44:00 -2531.526079c -5.39  -3.34    +95.1293
iter:  15 02:44:33 -2531.525783c -5.52  -3.49    +95.1324
iter:  16 02:45:06 -2531.525644c -5.80  -3.67    +95.1320
iter:  17 02:45:39 -2531.526553c -5.69  -3.76    +95.1327
iter:  18 02:46:12 -2531.526115c -5.71  -3.64    +95.1334
iter:  19 02:46:44 -2531.525976c -6.28  -3.66    +95.1354
iter:  20 02:47:17 -2531.525836c -6.47  -3.95    +95.1338
iter:  21 02:47:50 -2531.525915c -6.61  -4.22c   +95.1338
iter:  22 02:48:23 -2531.525938c -6.95  -4.47c   +95.1342
iter:  23 02:48:56 -2531.525641c -6.66  -4.48c   +95.1347
iter:  24 02:49:29 -2531.525478c -6.41  -4.28c   +95.1370
iter:  25 02:50:01 -2531.525557c -7.04  -4.03c   +95.1386
iter:  26 02:50:34 -2531.525529c -7.55c -3.94    +95.1386
iter:  27 02:51:07 -2531.525705c -6.97  -3.95    +95.1394
iter:  28 02:51:40 -2531.525722c -6.55  -3.88    +95.1399
iter:  29 02:52:13 -2531.525800c -6.44  -3.69    +95.1398
iter:  30 02:52:46 -2531.525878c -6.96  -4.05c   +95.1399
iter:  31 02:53:18 -2531.525852c -7.15  -4.02c   +95.1398
iter:  32 02:53:51 -2531.525774c -6.05  -4.34c   +95.1415
iter:  33 02:54:25 -2531.525861c -6.19  -3.79    +95.1393
iter:  34 02:54:57 -2531.525902c -6.46  -4.75c   +95.1383
iter:  35 02:55:30 -2531.525854c -7.05  -4.33c   +95.1377
iter:  36 02:56:03 -2531.525869c -7.55c -4.39c   +95.1371

Converged after 36 iterations.

Dipole moment: (-4.080764, -6.758634, -0.131832) |e|*Ang

Total magnetic moment: (0.000000, 0.000000, 95.137106)
Local magnetic moments:
   0 Fe ( 0.000000,  0.000000,  2.828490)
   1 Fe ( 0.000000,  0.000000,  2.748204)
   2 Fe ( 0.000000,  0.000000,  2.725699)
   3 Fe ( 0.000000,  0.000000,  2.811520)
   4 Fe ( 0.000000,  0.000000,  2.831137)
   5 Fe ( 0.000000,  0.000000,  2.756361)
   6 Fe ( 0.000000,  0.000000,  2.726032)
   7 Fe ( 0.000000,  0.000000,  2.901486)
   8 Fe ( 0.000000,  0.000000,  2.827600)
   9 Fe ( 0.000000,  0.000000,  2.746599)
  10 Fe ( 0.000000,  0.000000,  2.755461)
  11 Fe ( 0.000000,  0.000000,  2.815647)
  12 Fe ( 0.000000,  0.000000,  2.827608)
  13 Fe ( 0.000000,  0.000000,  2.743617)
  14 Fe ( 0.000000,  0.000000,  2.723353)
  15 Fe ( 0.000000,  0.000000,  2.815645)
  16 Fe ( 0.000000,  0.000000,  2.827913)
  17 Fe ( 0.000000,  0.000000,  2.757244)
  18 Fe ( 0.000000,  0.000000,  2.800536)
  19 Fe ( 0.000000,  0.000000,  2.059299)
  20 Fe ( 0.000000,  0.000000,  2.826251)
  21 Fe ( 0.000000,  0.000000,  2.756381)
  22 Fe ( 0.000000,  0.000000,  2.726035)
  23 Fe ( 0.000000,  0.000000,  2.052208)
  24 Fe ( 0.000000,  0.000000,  2.831135)
  25 Fe ( 0.000000,  0.000000,  2.742758)
  26 Fe ( 0.000000,  0.000000,  2.751501)
  27 Fe ( 0.000000,  0.000000,  2.901601)
  28 Fe ( 0.000000,  0.000000,  2.832024)
  29 Fe ( 0.000000,  0.000000,  2.743598)
  30 Fe ( 0.000000,  0.000000,  2.723327)
  31 Fe ( 0.000000,  0.000000,  2.902923)
  32 Fe ( 0.000000,  0.000000,  2.827907)
  33 Fe ( 0.000000,  0.000000,  2.748205)
  34 Fe ( 0.000000,  0.000000,  2.725675)
  35 Fe ( 0.000000,  0.000000,  2.059553)
  36 C  ( 0.000000,  0.000000, -0.142019)

Energy contributions relative to reference atoms: (reference = -1247327.993713)

Kinetic:       +814.278092
Potential:     -712.231969
External:        +0.000000
XC:            -2634.662510
Entropy (-ST):   -1.646881
Local:           +1.913959
--------------------------
Free energy:   -2532.349310
Extrapolated:  -2531.525869

Spin contamination: 2.872569 electrons
Showing only first 2 kpts
                      Up                     Down
 Kpt  Band  Eigenvalues  Occupancy  Eigenvalues  Occupancy
  0   144     -6.55151    1.00000     -3.75489    0.00000
  0   145     -6.54324    1.00000     -3.73557    0.00000
  0   146     -6.52116    1.00000     -3.71110    0.00000
  0   147     -6.49690    1.00000     -3.69406    0.00000

  1   144     -6.47003    1.00000     -3.66391    0.00000
  1   145     -6.45253    1.00000     -3.64840    0.00000
  1   146     -6.42404    1.00000     -3.64221    0.00000
  1   147     -6.42222    1.00000     -3.62541    0.00000


Fermi level: -5.02522

No gap

Forces in eV/Ang:
  0 Fe   -0.00394    0.00244   -0.14800
  1 Fe   -0.00067   -0.02131    0.03433
  2 Fe   -0.01870   -0.00222   -0.06803
  3 Fe   -0.00559    0.00291    0.10307
  4 Fe    0.01154    0.00935   -0.15975
  5 Fe   -0.01562   -0.00994    0.01316
  6 Fe   -0.01169   -0.01557   -0.07084
  7 Fe   -0.02050   -0.01193   -0.02025
  8 Fe   -0.00144   -0.00283   -0.14889
  9 Fe   -0.01920    0.01110    0.03751
 10 Fe    0.00027   -0.00014    0.07939
 11 Fe    0.00064   -0.00837    0.10278
 12 Fe    0.00184    0.00289   -0.14890
 13 Fe    0.01058    0.00528    0.02973
 14 Fe    0.01965   -0.00248   -0.06848
 15 Fe    0.00763    0.00334    0.10325
 16 Fe   -0.00281    0.01114   -0.15656
 17 Fe    0.01546   -0.00889    0.01418
 18 Fe    0.00097   -0.00051   -0.06470
 19 Fe   -0.00681    0.00546    0.12338
 20 Fe    0.00575   -0.00319   -0.15617
 21 Fe    0.00083    0.01853    0.01325
 22 Fe    0.00778    0.01812   -0.07057
 23 Fe    0.01101   -0.00625    0.11603
 24 Fe   -0.00220   -0.01450   -0.15973
 25 Fe   -0.01110    0.00640    0.02935
 26 Fe    0.00066   -0.00045   -0.04114
 27 Fe    0.00088    0.02254   -0.01868
 28 Fe   -0.01332    0.00783   -0.16128
 29 Fe    0.00071   -0.01187    0.02965
 30 Fe    0.01193   -0.01574   -0.06893
 31 Fe    0.02123   -0.01135   -0.02197
 32 Fe   -0.01088   -0.00290   -0.15655
 33 Fe    0.01813    0.01125    0.03444
 34 Fe   -0.00756    0.01746   -0.06821
 35 Fe   -0.00754    0.00361    0.12439
 36 C     0.00246   -0.00241    0.13648

BFGS:    3 02:56:24    -2531.525869        0.1365
System changes: positions 

Initializing position-dependent things.

Density initialized from wave functions
                                          
                                          
                                          
                                          
                                          
                   C                      
          Fe    Fe     Fe                 
           FFe   FFe   FFe                
             Fe     Fe    Fe              
             Fe    Fe    Fe               
              Fe     Fe    Fe             
             Fe     Fe    Fe              
               Fe     Fe    Fe            
                 Fe    Fe     Fe          
          Fe    Fe    Fe                  
            Fe    Fe    Fe                
             Fe     Fe    Fe              
                                          
                                          
                                          
                                          

Positions:
   0 Fe     0.000000    0.000000   10.000000    ( 0.0000,  0.0000,  2.7500)
   1 Fe     1.298117    0.749468   12.119817    ( 0.0000,  0.0000,  2.6728)
   2 Fe    -0.001596    1.499094   14.254595    ( 0.0000,  0.0000,  2.6756)
   3 Fe     0.001875   -0.001168   16.402719    ( 0.0000,  0.0000,  2.7532)
   4 Fe    -1.298117    2.248405   10.000000    ( 0.0000,  0.0000,  2.7500)
   5 Fe     0.000000    2.997873   12.119817    ( 0.0000,  0.0000,  2.6728)
   6 Fe    -1.298849    3.745769   14.254248    ( 0.0000,  0.0000,  2.6756)
   7 Fe    -1.299523    2.247579   16.391653    ( 0.0000,  0.0000,  2.7532)
   8 Fe    -2.596234    4.496810   10.000000    ( 0.0000,  0.0000,  2.7500)
   9 Fe    -1.298117    5.246278   12.119817    ( 0.0000,  0.0000,  2.6728)
  10 Fe    -2.596168    5.995698   14.266470    ( 0.0000,  0.0000,  2.6756)
  11 Fe    -2.596200    4.498744   16.402869    ( 0.0000,  0.0000,  2.7532)
  12 Fe     2.596234    0.000000   10.000000    ( 0.0000,  0.0000,  2.7500)
  13 Fe     3.894352    0.749468   12.119817    ( 0.0000,  0.0000,  2.6728)
  14 Fe     2.598010    1.499011   14.254435    ( 0.0000,  0.0000,  2.6756)
  15 Fe     2.594606   -0.001065   16.402915    ( 0.0000,  0.0000,  2.7532)
  16 Fe     1.298117    2.248405   10.000000    ( 0.0000,  0.0000,  2.7500)
  17 Fe     2.596234    2.997873   12.119817    ( 0.0000,  0.0000,  2.6728)
  18 Fe     1.298107    3.747349   14.250038    ( 0.0000,  0.0000,  2.6756)
  19 Fe     1.297419    2.161636   16.363560    ( 0.0000,  0.0000,  2.7532)
  20 Fe     0.000000    4.496810   10.000000    ( 0.0000,  0.0000,  2.7500)
  21 Fe     1.298117    5.246278   12.119817    ( 0.0000,  0.0000,  2.6728)
  22 Fe     0.001004    5.997175   14.254272    ( 0.0000,  0.0000,  2.6756)
  23 Fe    -0.074222    4.539686   16.362790    ( 0.0000,  0.0000,  2.7532)
  24 Fe     5.192469    0.000000   10.000000    ( 0.0000,  0.0000,  2.7500)
  25 Fe     6.490586    0.749468   12.119817    ( 0.0000,  0.0000,  2.6728)
  26 Fe     5.192567    1.498879   14.256780    ( 0.0000,  0.0000,  2.6756)
  27 Fe     5.192578    0.001474   16.391785    ( 0.0000,  0.0000,  2.7532)
  28 Fe     3.894352    2.248405   10.000000    ( 0.0000,  0.0000,  2.7500)
  29 Fe     5.192469    2.997873   12.119817    ( 0.0000,  0.0000,  2.6728)
  30 Fe     3.895179    3.745757   14.254409    ( 0.0000,  0.0000,  2.6756)
  31 Fe     3.895962    2.247585   16.391554    ( 0.0000,  0.0000,  2.7532)
  32 Fe     2.596234    4.496810   10.000000    ( 0.0000,  0.0000,  2.7500)
  33 Fe     3.894352    5.246278   12.119817    ( 0.0000,  0.0000,  2.6728)
  34 Fe     2.595287    5.997067   14.254594    ( 0.0000,  0.0000,  2.6756)
  35 Fe     2.671109    4.540869   16.363594    ( 0.0000,  0.0000,  2.7532)
  36 C      1.298180    3.747252   17.280606    ( 0.0000,  0.0000,  0.0000)

Unit cell:
           periodic     x           y           z      points  spacing
  1. axis:    yes    7.788703    0.000000    0.000000    36     0.1874
  2. axis:    yes   -3.894352    6.745215    0.000000    36     0.1874
  3. axis:    no     0.000000    0.000000   26.359450   148     0.1781

  Lengths:   7.788703   7.788703  26.359450
  Angles:   90.000000  90.000000 120.000000

Effective grid spacing dv^(1/3) = 0.1933

     iter     time        total  log10-change:  magmom
                         energy  eigst   dens
iter:   1 02:57:49 -2531.703693  -3.21           +95.1381
iter:   2 02:58:22 -2535.920404  -2.07  -2.21    +95.2514
iter:   3 02:58:54 -2531.530776  -2.53  -1.51    +95.0989
iter:   4 02:59:27 -2531.528864  -3.40  -3.10    +95.1334
iter:   5 03:00:00 -2531.528635c -4.12  -3.15    +95.1382
iter:   6 03:00:32 -2531.528152c -4.60  -3.34    +95.1420
iter:   7 03:01:04 -2531.528069c -4.80  -3.70    +95.1421
iter:   8 03:01:37 -2531.528256c -5.03  -3.91    +95.1420
iter:   9 03:02:10 -2531.528468c -5.29  -3.93    +95.1419
iter:  10 03:02:42 -2531.528494c -5.50  -4.06c   +95.1464
iter:  11 03:03:15 -2531.528458c -5.71  -4.04c   +95.1492
iter:  12 03:03:48 -2531.528561c -6.22  -4.12c   +95.1491
iter:  13 03:04:20 -2531.528507c -6.45  -4.17c   +95.1504
iter:  14 03:04:53 -2531.528534c -6.82  -4.31c   +95.1508
iter:  15 03:05:25 -2531.528566c -6.96  -4.09c   +95.1510
iter:  16 03:05:58 -2531.528517c -6.66  -4.39c   +95.1512
iter:  17 03:06:31 -2531.528505c -7.06  -4.55c   +95.1515
iter:  18 03:07:03 -2531.528537c -7.37  -4.57c   +95.1517
iter:  19 03:07:35 -2531.528517c -7.49c -4.69c   +95.1518

Converged after 19 iterations.

Dipole moment: (-4.062351, -6.767560, -0.133428) |e|*Ang

Total magnetic moment: (0.000000, 0.000000, 95.151795)
Local magnetic moments:
   0 Fe ( 0.000000,  0.000000,  2.829292)
   1 Fe ( 0.000000,  0.000000,  2.748031)
   2 Fe ( 0.000000,  0.000000,  2.726035)
   3 Fe ( 0.000000,  0.000000,  2.811104)
   4 Fe ( 0.000000,  0.000000,  2.831913)
   5 Fe ( 0.000000,  0.000000,  2.756171)
   6 Fe ( 0.000000,  0.000000,  2.726370)
   7 Fe ( 0.000000,  0.000000,  2.900334)
   8 Fe ( 0.000000,  0.000000,  2.828411)
   9 Fe ( 0.000000,  0.000000,  2.746466)
  10 Fe ( 0.000000,  0.000000,  2.756283)
  11 Fe ( 0.000000,  0.000000,  2.815307)
  12 Fe ( 0.000000,  0.000000,  2.828420)
  13 Fe ( 0.000000,  0.000000,  2.743058)
  14 Fe ( 0.000000,  0.000000,  2.723718)
  15 Fe ( 0.000000,  0.000000,  2.815320)
  16 Fe ( 0.000000,  0.000000,  2.828609)
  17 Fe ( 0.000000,  0.000000,  2.757033)
  18 Fe ( 0.000000,  0.000000,  2.801424)
  19 Fe ( 0.000000,  0.000000,  2.064234)
  20 Fe ( 0.000000,  0.000000,  2.826962)
  21 Fe ( 0.000000,  0.000000,  2.756191)
  22 Fe ( 0.000000,  0.000000,  2.726372)
  23 Fe ( 0.000000,  0.000000,  2.057208)
  24 Fe ( 0.000000,  0.000000,  2.831911)
  25 Fe ( 0.000000,  0.000000,  2.742175)
  26 Fe ( 0.000000,  0.000000,  2.750947)
  27 Fe ( 0.000000,  0.000000,  2.900472)
  28 Fe ( 0.000000,  0.000000,  2.832791)
  29 Fe ( 0.000000,  0.000000,  2.743038)
  30 Fe ( 0.000000,  0.000000,  2.723695)
  31 Fe ( 0.000000,  0.000000,  2.901711)
  32 Fe ( 0.000000,  0.000000,  2.828600)
  33 Fe ( 0.000000,  0.000000,  2.748031)
  34 Fe ( 0.000000,  0.000000,  2.726013)
  35 Fe ( 0.000000,  0.000000,  2.064580)
  36 C  ( 0.000000,  0.000000, -0.142753)

Energy contributions relative to reference atoms: (reference = -1247327.993713)

Kinetic:       +813.855984
Potential:     -711.890562
External:        +0.000000
XC:            -2634.583218
Entropy (-ST):   -1.646253
Local:           +1.912405
--------------------------
Free energy:   -2532.351643
Extrapolated:  -2531.528517

Spin contamination: 2.875770 electrons
Showing only first 2 kpts
                      Up                     Down
 Kpt  Band  Eigenvalues  Occupancy  Eigenvalues  Occupancy
  0   144     -6.55333    1.00000     -3.75643    0.00000
  0   145     -6.54516    1.00000     -3.73732    0.00000
  0   146     -6.52277    1.00000     -3.71279    0.00000
  0   147     -6.49843    1.00000     -3.69549    0.00000

  1   144     -6.47149    1.00000     -3.66462    0.00000
  1   145     -6.45419    1.00000     -3.65019    0.00000
  1   146     -6.42532    1.00000     -3.64406    0.00000
  1   147     -6.42388    1.00000     -3.62716    0.00000


Fermi level: -5.02648

No gap

Forces in eV/Ang:
  0 Fe   -0.00395    0.00244   -0.15042
  1 Fe   -0.00073   -0.02500    0.03310
  2 Fe   -0.00807   -0.00383   -0.04788
  3 Fe   -0.00665    0.00369    0.09314
  4 Fe    0.01124    0.00925   -0.16191
  5 Fe   -0.01552   -0.00996    0.00417
  6 Fe   -0.00758   -0.00526   -0.05005
  7 Fe   -0.01419   -0.00815   -0.02487
  8 Fe   -0.00138   -0.00286   -0.15140
  9 Fe   -0.02241    0.01297    0.03618
 10 Fe    0.00021   -0.00007    0.08009
 11 Fe    0.00082   -0.00895    0.09227
 12 Fe    0.00189    0.00284   -0.15141
 13 Fe    0.01160    0.00587    0.02141
 14 Fe    0.00870   -0.00414   -0.04789
 15 Fe    0.00822    0.00364    0.09266
 16 Fe   -0.00283    0.01148   -0.15910
 17 Fe    0.01533   -0.00883    0.00527
 18 Fe    0.00093   -0.00047   -0.03613
 19 Fe   -0.00618    0.05545    0.13214
 20 Fe    0.00598   -0.00333   -0.15880
 21 Fe    0.00088    0.01845    0.00426
 22 Fe    0.00089    0.00938   -0.04976
 23 Fe    0.05315   -0.03056    0.12577
 24 Fe   -0.00228   -0.01421   -0.16190
 25 Fe   -0.01205    0.00696    0.02121
 26 Fe    0.00052   -0.00038   -0.03634
 27 Fe    0.00049    0.01552   -0.02334
 28 Fe   -0.01302    0.00765   -0.16342
 29 Fe    0.00072   -0.01306    0.02130
 30 Fe    0.00786   -0.00541   -0.04831
 31 Fe    0.01437   -0.00769   -0.02679
 32 Fe   -0.01120   -0.00307   -0.15909
 33 Fe    0.02130    0.01316    0.03320
 34 Fe   -0.00083    0.00900   -0.04800
 35 Fe   -0.05075   -0.02204    0.13326
 36 C     0.00287   -0.00258    0.06408

BFGS:    4 03:07:56    -2531.528517        0.1443
System changes: positions 

Initializing position-dependent things.

Density initialized from wave functions
                                          
                                          
                                          
                                          
                                          
                   C                      
          Fe    Fe     Fe                 
           FFe   FFe   FFe                
             Fe     Fe    Fe              
             Fe    Fe    Fe               
              Fe     Fe    Fe             
             Fe     Fe    Fe              
               Fe     Fe    Fe            
                 Fe    Fe     Fe          
          Fe    Fe    Fe                  
            Fe    Fe    Fe                
             Fe     Fe    Fe              
                                          
                                          
                                          
                                          

Positions:
   0 Fe     0.000000    0.000000   10.000000    ( 0.0000,  0.0000,  2.7500)
   1 Fe     1.298117    0.749468   12.119817    ( 0.0000,  0.0000,  2.6728)
   2 Fe    -0.002567    1.498875   14.250374    ( 0.0000,  0.0000,  2.6756)
   3 Fe     0.001558   -0.001006   16.409901    ( 0.0000,  0.0000,  2.7532)
   4 Fe    -1.298117    2.248405   10.000000    ( 0.0000,  0.0000,  2.7500)
   5 Fe     0.000000    2.997873   12.119817    ( 0.0000,  0.0000,  2.6728)
   6 Fe    -1.299549    3.745011   14.249838    ( 0.0000,  0.0000,  2.6756)
   7 Fe    -1.300770    2.246858   16.389866    ( 0.0000,  0.0000,  2.7532)
   8 Fe    -2.596234    4.496810   10.000000    ( 0.0000,  0.0000,  2.7500)
   9 Fe    -1.298117    5.246278   12.119817    ( 0.0000,  0.0000,  2.6728)
  10 Fe    -2.596148    5.995688   14.272341    ( 0.0000,  0.0000,  2.6756)
  11 Fe    -2.596146    4.498259   16.410015    ( 0.0000,  0.0000,  2.7532)
  12 Fe     2.596234    0.000000   10.000000    ( 0.0000,  0.0000,  2.7500)
  13 Fe     3.894352    0.749468   12.119817    ( 0.0000,  0.0000,  2.6728)
  14 Fe     2.599044    1.498766   14.250190    ( 0.0000,  0.0000,  2.6756)
  15 Fe     2.595059   -0.000888   16.410093    ( 0.0000,  0.0000,  2.7532)
  16 Fe     1.298117    2.248405   10.000000    ( 0.0000,  0.0000,  2.7500)
  17 Fe     2.596234    2.997873   12.119817    ( 0.0000,  0.0000,  2.6728)
  18 Fe     1.298170    3.747316   14.246154    ( 0.0000,  0.0000,  2.6756)
  19 Fe     1.296937    2.160148   16.371050    ( 0.0000,  0.0000,  2.7532)
  20 Fe     0.000000    4.496810   10.000000    ( 0.0000,  0.0000,  2.7500)
  21 Fe     1.298117    5.246278   12.119817    ( 0.0000,  0.0000,  2.6728)
  22 Fe     0.001320    5.998174   14.249883    ( 0.0000,  0.0000,  2.6756)
  23 Fe    -0.075073    4.540187   16.369766    ( 0.0000,  0.0000,  2.7532)
  24 Fe     5.192469    0.000000   10.000000    ( 0.0000,  0.0000,  2.7500)
  25 Fe     6.490586    0.749468   12.119817    ( 0.0000,  0.0000,  2.6728)
  26 Fe     5.192612    1.498847   14.253930    ( 0.0000,  0.0000,  2.6756)
  27 Fe     5.192629    0.002838   16.390114    ( 0.0000,  0.0000,  2.7532)
  28 Fe     3.894352    2.248405   10.000000    ( 0.0000,  0.0000,  2.7500)
  29 Fe     5.192469    2.997873   12.119817    ( 0.0000,  0.0000,  2.6728)
  30 Fe     3.895904    3.744987   14.250134    ( 0.0000,  0.0000,  2.6756)
  31 Fe     3.897250    2.246899   16.389633    ( 0.0000,  0.0000,  2.7532)
  32 Fe     2.596234    4.496810   10.000000    ( 0.0000,  0.0000,  2.7500)
  33 Fe     3.894352    5.246278   12.119817    ( 0.0000,  0.0000,  2.6728)
  34 Fe     2.594982    5.998027   14.250363    ( 0.0000,  0.0000,  2.6756)
  35 Fe     2.672193    4.542061   16.371161    ( 0.0000,  0.0000,  2.7532)
  36 C      1.298375    3.747071   17.293637    ( 0.0000,  0.0000,  0.0000)

Unit cell:
           periodic     x           y           z      points  spacing
  1. axis:    yes    7.788703    0.000000    0.000000    36     0.1874
  2. axis:    yes   -3.894352    6.745215    0.000000    36     0.1874
  3. axis:    no     0.000000    0.000000   26.359450   148     0.1781

  Lengths:   7.788703   7.788703  26.359450
  Angles:   90.000000  90.000000 120.000000

Effective grid spacing dv^(1/3) = 0.1933

     iter     time        total  log10-change:  magmom
                         energy  eigst   dens
iter:   1 03:09:21 -2531.914024  -2.44           +95.1558
iter:   2 03:09:54 -2540.415296  -1.74  -2.03    +95.3006
iter:   3 03:10:26 -2531.551252  -2.20  -1.36    +94.9451
iter:   4 03:10:59 -2531.542010  -3.04  -2.72    +95.0667
iter:   5 03:11:31 -2531.538235c -3.79  -2.75    +95.1037
iter:   6 03:12:03 -2531.534238c -4.00  -2.89    +95.1449
iter:   7 03:12:36 -2531.533678c -4.02  -3.24    +95.1464
iter:   8 03:13:08 -2531.534952c -4.30  -3.44    +95.1641
iter:   9 03:13:40 -2531.534346c -4.37  -3.41    +95.1807
iter:  10 03:14:13 -2531.534858c -5.04  -3.36    +95.1793
iter:  11 03:14:45 -2531.536634c -5.13  -3.39    +95.1819
iter:  12 03:15:17 -2531.535245c -5.33  -3.13    +95.1815
iter:  13 03:15:50 -2531.534498c -5.28  -3.29    +95.1828
iter:  14 03:16:22 -2531.534917c -5.18  -3.44    +95.1840
iter:  15 03:16:54 -2531.534475c -5.94  -3.74    +95.1840
iter:  16 03:17:27 -2531.534324c -6.16  -3.61    +95.1857
iter:  17 03:17:59 -2531.534638c -6.15  -3.79    +95.1868
iter:  18 03:18:32 -2531.534489c -6.28  -4.00c   +95.1889
iter:  19 03:19:04 -2531.534947c -6.32  -4.02c   +95.1908
iter:  20 03:19:36 -2531.535445c -5.44  -4.01c   +95.1933
iter:  21 03:20:09 -2531.535446c -6.39  -3.65    +95.1922
iter:  22 03:20:41 -2531.535813c -6.45  -3.64    +95.1925
iter:  23 03:21:14 -2531.535599c -6.96  -3.50    +95.1925
iter:  24 03:21:46 -2531.535210c -6.52  -3.55    +95.1941
iter:  25 03:22:18 -2531.534800c -5.90  -3.72    +95.1936
iter:  26 03:22:51 -2531.534919c -6.69  -3.95    +95.1939
iter:  27 03:23:23 -2531.534839c -6.55  -3.95    +95.1947
iter:  28 03:23:55 -2531.534859c -6.71  -4.16c   +95.1943
iter:  29 03:24:28 -2531.534776c -5.97  -4.13c   +95.1927
iter:  30 03:25:00 -2531.534880c -6.57  -3.98    +95.1908
iter:  31 03:25:32 -2531.534910c -5.82  -3.97    +95.1860
iter:  32 03:26:05 -2531.534902c -6.21  -4.00    +95.1884
iter:  33 03:26:37 -2531.534910c -6.20  -3.99    +95.1859
iter:  34 03:27:10 -2531.534761c -5.49  -4.23c   +95.1934
iter:  35 03:27:42 -2531.534760c -6.34  -3.73    +95.1925
iter:  36 03:28:14 -2531.534742c -6.83  -3.99    +95.1927
iter:  37 03:28:47 -2531.534853c -6.51  -3.94    +95.1904
iter:  38 03:29:19 -2531.534922c -6.40  -4.29c   +95.1889
iter:  39 03:29:51 -2531.534889c -7.31  -4.45c   +95.1899
iter:  40 03:30:24 -2531.534938c -7.44c -4.40c   +95.1912

Converged after 40 iterations.

Dipole moment: (-3.987427, -6.805863, -0.135426) |e|*Ang

Total magnetic moment: (0.000000, 0.000000, 95.191209)
Local magnetic moments:
   0 Fe ( 0.000000,  0.000000,  2.831081)
   1 Fe ( 0.000000,  0.000000,  2.747313)
   2 Fe ( 0.000000,  0.000000,  2.727439)
   3 Fe ( 0.000000,  0.000000,  2.814456)
   4 Fe ( 0.000000,  0.000000,  2.832121)
   5 Fe ( 0.000000,  0.000000,  2.755253)
   6 Fe ( 0.000000,  0.000000,  2.727823)
   7 Fe ( 0.000000,  0.000000,  2.897221)
   8 Fe ( 0.000000,  0.000000,  2.829995)
   9 Fe ( 0.000000,  0.000000,  2.745871)
  10 Fe ( 0.000000,  0.000000,  2.757479)
  11 Fe ( 0.000000,  0.000000,  2.818595)
  12 Fe ( 0.000000,  0.000000,  2.829997)
  13 Fe ( 0.000000,  0.000000,  2.741340)
  14 Fe ( 0.000000,  0.000000,  2.725197)
  15 Fe ( 0.000000,  0.000000,  2.818593)
  16 Fe ( 0.000000,  0.000000,  2.830133)
  17 Fe ( 0.000000,  0.000000,  2.756030)
  18 Fe ( 0.000000,  0.000000,  2.803512)
  19 Fe ( 0.000000,  0.000000,  2.076426)
  20 Fe ( 0.000000,  0.000000,  2.828334)
  21 Fe ( 0.000000,  0.000000,  2.755279)
  22 Fe ( 0.000000,  0.000000,  2.727823)
  23 Fe ( 0.000000,  0.000000,  2.070034)
  24 Fe ( 0.000000,  0.000000,  2.832126)
  25 Fe ( 0.000000,  0.000000,  2.740393)
  26 Fe ( 0.000000,  0.000000,  2.749420)
  27 Fe ( 0.000000,  0.000000,  2.897633)
  28 Fe ( 0.000000,  0.000000,  2.832771)
  29 Fe ( 0.000000,  0.000000,  2.741315)
  30 Fe ( 0.000000,  0.000000,  2.725192)
  31 Fe ( 0.000000,  0.000000,  2.898162)
  32 Fe ( 0.000000,  0.000000,  2.830127)
  33 Fe ( 0.000000,  0.000000,  2.747319)
  34 Fe ( 0.000000,  0.000000,  2.727433)
  35 Fe ( 0.000000,  0.000000,  2.077040)
  36 C  ( 0.000000,  0.000000, -0.144394)

Energy contributions relative to reference atoms: (reference = -1247327.993713)

Kinetic:       +812.884770
Potential:     -711.104675
External:        +0.000000
XC:            -2634.400863
Entropy (-ST):   -1.643965
Local:           +1.907813
--------------------------
Free energy:   -2532.356920
Extrapolated:  -2531.534938

Spin contamination: 2.883804 electrons
Showing only first 2 kpts
                      Up                     Down
 Kpt  Band  Eigenvalues  Occupancy  Eigenvalues  Occupancy
  0   144     -6.55806    1.00000     -3.75991    0.00000
  0   145     -6.54963    1.00000     -3.74092    0.00000
  0   146     -6.52637    1.00000     -3.71685    0.00000
  0   147     -6.50192    1.00000     -3.69843    0.00000

  1   144     -6.47413    1.00000     -3.66693    0.00000
  1   145     -6.45806    1.00000     -3.65446    0.00000
  1   146     -6.42801    1.00000     -3.64821    0.00000
  1   147     -6.42778    1.00000     -3.63051    0.00000


Fermi level: -5.02904

No gap

Forces in eV/Ang:
  0 Fe   -0.00296    0.00186   -0.15254
  1 Fe   -0.00074   -0.03796    0.03033
  2 Fe    0.02459   -0.00309    0.02604
  3 Fe   -0.00828    0.00517    0.04262
  4 Fe    0.01127    0.00920   -0.16282
  5 Fe   -0.01495   -0.00980   -0.02086
  6 Fe    0.00975    0.02238    0.02572
  7 Fe    0.01974    0.01153   -0.05067
  8 Fe   -0.00143   -0.00156   -0.15318
  9 Fe   -0.03400    0.01969    0.03282
 10 Fe   -0.00056    0.00041    0.07069
 11 Fe    0.00050   -0.00885    0.04050
 12 Fe    0.00073    0.00223   -0.15318
 13 Fe    0.01344    0.00718   -0.00458
 14 Fe   -0.02481   -0.00272    0.02684
 15 Fe    0.00798    0.00440    0.04065
 16 Fe   -0.00292    0.01251   -0.16212
 17 Fe    0.01493   -0.00865   -0.01944
 18 Fe    0.00075   -0.00036    0.05147
 19 Fe   -0.00430    0.11259    0.10935
 20 Fe    0.00694   -0.00388   -0.16166
 21 Fe    0.00099    0.01787   -0.02072
 22 Fe   -0.01449   -0.01956    0.02601
 23 Fe    0.10137   -0.05842    0.10510
 24 Fe   -0.00222   -0.01420   -0.16282
 25 Fe   -0.01379    0.00796   -0.00413
 26 Fe   -0.00009   -0.00005   -0.01679
 27 Fe   -0.00048   -0.02245   -0.04947
 28 Fe   -0.01302    0.00765   -0.16400
 29 Fe    0.00051   -0.01534   -0.00480
 30 Fe   -0.01016    0.02293    0.02674
 31 Fe   -0.02141    0.01196   -0.05235
 32 Fe   -0.01213   -0.00350   -0.16213
 33 Fe    0.03252    0.01968    0.03036
 34 Fe    0.01498   -0.01982    0.02623
 35 Fe   -0.09996   -0.05268    0.11039
 36 C     0.00197   -0.00099   -0.01774

BFGS:    5 03:30:45    -2531.534938        0.1580
System changes: positions 

Initializing position-dependent things.

Density initialized from wave functions
                                          
                                          
                                          
                                          
                                          
                   C                      
          Fe    Fe     Fe                 
           FFe   FFe   FFe                
             Fe     Fe    Fe              
             Fe    Fe    Fe               
              Fe     Fe    Fe             
             Fe     Fe    Fe              
               Fe     Fe    Fe            
                 Fe    Fe     Fe          
          Fe    Fe    Fe                  
            Fe    Fe    Fe                
             Fe     Fe    Fe              
                                          
                                          
                                          
                                          

Positions:
   0 Fe     0.000000    0.000000   10.000000    ( 0.0000,  0.0000,  2.7500)
   1 Fe     1.298117    0.749468   12.119817    ( 0.0000,  0.0000,  2.6728)
   2 Fe    -0.002662    1.498719   14.248602    ( 0.0000,  0.0000,  2.6756)
   3 Fe     0.001230   -0.000820   16.414407    ( 0.0000,  0.0000,  2.7532)
   4 Fe    -1.298117    2.248405   10.000000    ( 0.0000,  0.0000,  2.7500)
   5 Fe     0.000000    2.997873   12.119817    ( 0.0000,  0.0000,  2.6728)
   6 Fe    -1.299743    3.744981   14.247961    ( 0.0000,  0.0000,  2.6756)
   7 Fe    -1.301058    2.246693   16.388032    ( 0.0000,  0.0000,  2.7532)
   8 Fe    -2.596234    4.496810   10.000000    ( 0.0000,  0.0000,  2.7500)
   9 Fe    -1.298117    5.246278   12.119817    ( 0.0000,  0.0000,  2.6728)
  10 Fe    -2.596148    5.995691   14.276651    ( 0.0000,  0.0000,  2.6756)
  11 Fe    -2.596111    4.497829   16.414465    ( 0.0000,  0.0000,  2.7532)
  12 Fe     2.596234    0.000000   10.000000    ( 0.0000,  0.0000,  2.7500)
  13 Fe     3.894352    0.749468   12.119817    ( 0.0000,  0.0000,  2.6728)
  14 Fe     2.599168    1.498607   14.248419    ( 0.0000,  0.0000,  2.6756)
  15 Fe     2.595454   -0.000705   16.414563    ( 0.0000,  0.0000,  2.7532)
  16 Fe     1.298117    2.248405   10.000000    ( 0.0000,  0.0000,  2.7500)
  17 Fe     2.596234    2.997873   12.119817    ( 0.0000,  0.0000,  2.6728)
  18 Fe     1.298218    3.747292   14.245002    ( 0.0000,  0.0000,  2.6756)
  19 Fe     1.296607    2.161622   16.377105    ( 0.0000,  0.0000,  2.7532)
  20 Fe     0.000000    4.496810   10.000000    ( 0.0000,  0.0000,  2.7500)
  21 Fe     1.298117    5.246278   12.119817    ( 0.0000,  0.0000,  2.6728)
  22 Fe     0.001255    5.998366   14.248023    ( 0.0000,  0.0000,  2.6756)
  23 Fe    -0.073493    4.539282   16.375473    ( 0.0000,  0.0000,  2.7532)
  24 Fe     5.192469    0.000000   10.000000    ( 0.0000,  0.0000,  2.7500)
  25 Fe     6.490586    0.749468   12.119817    ( 0.0000,  0.0000,  2.6728)
  26 Fe     5.192634    1.498830   14.252138    ( 0.0000,  0.0000,  2.6756)
  27 Fe     5.192648    0.003137   16.388361    ( 0.0000,  0.0000,  2.7532)
  28 Fe     3.894352    2.248405   10.000000    ( 0.0000,  0.0000,  2.7500)
  29 Fe     5.192469    2.997873   12.119817    ( 0.0000,  0.0000,  2.6728)
  30 Fe     3.896101    3.744962   14.248345    ( 0.0000,  0.0000,  2.6756)
  31 Fe     3.897529    2.246761   16.387701    ( 0.0000,  0.0000,  2.7532)
  32 Fe     2.596234    4.496810   10.000000    ( 0.0000,  0.0000,  2.7500)
  33 Fe     3.894352    5.246278   12.119817    ( 0.0000,  0.0000,  2.6728)
  34 Fe     2.595064    5.998191   14.248589    ( 0.0000,  0.0000,  2.6756)
  35 Fe     2.670766    4.541623   16.377274    ( 0.0000,  0.0000,  2.7532)
  36 C      1.298507    3.746964   17.299696    ( 0.0000,  0.0000,  0.0000)

Unit cell:
           periodic     x           y           z      points  spacing
  1. axis:    yes    7.788703    0.000000    0.000000    36     0.1874
  2. axis:    yes   -3.894352    6.745215    0.000000    36     0.1874
  3. axis:    no     0.000000    0.000000   26.359450   148     0.1781

  Lengths:   7.788703   7.788703  26.359450
  Angles:   90.000000  90.000000 120.000000

Effective grid spacing dv^(1/3) = 0.1933

     iter     time        total  log10-change:  magmom
                         energy  eigst   dens
iter:   1 03:32:10 -2531.587921  -2.92           +95.1938
iter:   2 03:32:43 -2532.382332  -2.69  -2.49    +95.1365
iter:   3 03:33:15 -2531.554590  -3.08  -1.86    +95.1733
iter:   4 03:33:48 -2531.538441  -3.93  -2.72    +95.1684
iter:   5 03:34:20 -2531.538552c -4.72  -3.13    +95.1692
iter:   6 03:34:53 -2531.539614c -4.50  -3.27    +95.1833
iter:   7 03:35:26 -2531.538577c -4.83  -3.19    +95.1909
iter:   8 03:35:58 -2531.538541c -5.01  -3.46    +95.2043
iter:   9 03:36:30 -2531.538399c -5.12  -3.54    +95.2138
iter:  10 03:37:03 -2531.537873c -5.24  -3.84    +95.2087
iter:  11 03:37:36 -2531.538337c -5.64  -3.95    +95.2096
iter:  12 03:38:08 -2531.538201c -5.78  -3.96    +95.2071
iter:  13 03:38:41 -2531.538166c -6.02  -4.15c   +95.2065
iter:  14 03:39:13 -2531.538100c -6.19  -4.13c   +95.2058
iter:  15 03:39:46 -2531.538236c -6.45  -4.24c   +95.2047
iter:  16 03:40:19 -2531.538214c -6.67  -4.17c   +95.2048
iter:  17 03:40:51 -2531.538049c -6.58  -4.25c   +95.2054
iter:  18 03:41:23 -2531.538065c -7.22  -4.48c   +95.2051
iter:  19 03:41:56 -2531.538036c -7.42c -4.31c   +95.2049

Converged after 19 iterations.

Dipole moment: (-3.951689, -6.825311, -0.137377) |e|*Ang

Total magnetic moment: (0.000000, 0.000000, 95.204904)
Local magnetic moments:
   0 Fe ( 0.000000,  0.000000,  2.829914)
   1 Fe ( 0.000000,  0.000000,  2.747894)
   2 Fe ( 0.000000,  0.000000,  2.728542)
   3 Fe ( 0.000000,  0.000000,  2.814863)
   4 Fe ( 0.000000,  0.000000,  2.832368)
   5 Fe ( 0.000000,  0.000000,  2.755278)
   6 Fe ( 0.000000,  0.000000,  2.728912)
   7 Fe ( 0.000000,  0.000000,  2.896900)
   8 Fe ( 0.000000,  0.000000,  2.829087)
   9 Fe ( 0.000000,  0.000000,  2.746466)
  10 Fe ( 0.000000,  0.000000,  2.758322)
  11 Fe ( 0.000000,  0.000000,  2.819363)
  12 Fe ( 0.000000,  0.000000,  2.829089)
  13 Fe ( 0.000000,  0.000000,  2.741275)
  14 Fe ( 0.000000,  0.000000,  2.726321)
  15 Fe ( 0.000000,  0.000000,  2.819403)
  16 Fe ( 0.000000,  0.000000,  2.829366)
  17 Fe ( 0.000000,  0.000000,  2.756067)
  18 Fe ( 0.000000,  0.000000,  2.804792)
  19 Fe ( 0.000000,  0.000000,  2.079951)
  20 Fe ( 0.000000,  0.000000,  2.827730)
  21 Fe ( 0.000000,  0.000000,  2.755303)
  22 Fe ( 0.000000,  0.000000,  2.728903)
  23 Fe ( 0.000000,  0.000000,  2.073543)
  24 Fe ( 0.000000,  0.000000,  2.832371)
  25 Fe ( 0.000000,  0.000000,  2.740265)
  26 Fe ( 0.000000,  0.000000,  2.748438)
  27 Fe ( 0.000000,  0.000000,  2.897222)
  28 Fe ( 0.000000,  0.000000,  2.833153)
  29 Fe ( 0.000000,  0.000000,  2.741252)
  30 Fe ( 0.000000,  0.000000,  2.726336)
  31 Fe ( 0.000000,  0.000000,  2.898398)
  32 Fe ( 0.000000,  0.000000,  2.829357)
  33 Fe ( 0.000000,  0.000000,  2.747901)
  34 Fe ( 0.000000,  0.000000,  2.728547)
  35 Fe ( 0.000000,  0.000000,  2.080615)
  36 C  ( 0.000000,  0.000000, -0.144608)

Energy contributions relative to reference atoms: (reference = -1247327.993713)

Kinetic:       +812.607604
Potential:     -710.889403
External:        +0.000000
XC:            -2634.340694
Entropy (-ST):   -1.642685
Local:           +1.905800
--------------------------
Free energy:   -2532.359378
Extrapolated:  -2531.538036

Spin contamination: 2.885820 electrons
Showing only first 2 kpts
                      Up                     Down
 Kpt  Band  Eigenvalues  Occupancy  Eigenvalues  Occupancy
  0   144     -6.56072    1.00000     -3.76148    0.00000
  0   145     -6.55157    1.00000     -3.74201    0.00000
  0   146     -6.52796    1.00000     -3.71875    0.00000
  0   147     -6.50362    1.00000     -3.70001    0.00000

  1   144     -6.47487    1.00000     -3.66874    0.00000
  1   145     -6.45986    1.00000     -3.65646    0.00000
  1   146     -6.42999    1.00000     -3.65014    0.00000
  1   147     -6.42898    1.00000     -3.63145    0.00000


Fermi level: -5.03024

No gap

Forces in eV/Ang:
  0 Fe   -0.00381    0.00236   -0.14699
  1 Fe   -0.00077   -0.04635    0.03195
  2 Fe    0.03492   -0.00329    0.06384
  3 Fe   -0.00568    0.00384    0.01949
  4 Fe    0.01014    0.00863   -0.15931
  5 Fe   -0.01485   -0.00983   -0.03108
  6 Fe    0.01498    0.03183    0.06454
  7 Fe    0.02887    0.01687   -0.04318
  8 Fe   -0.00139   -0.00260   -0.14807
  9 Fe   -0.04134    0.02396    0.03419
 10 Fe   -0.00068    0.00047    0.04850
 11 Fe    0.00016   -0.00481    0.01739
 12 Fe    0.00165    0.00272   -0.14808
 13 Fe    0.01446    0.00784   -0.01602
 14 Fe   -0.03566   -0.00308    0.06492
 15 Fe    0.00428    0.00284    0.01740
 16 Fe   -0.00287    0.01318   -0.15779
 17 Fe    0.01494   -0.00869   -0.02950
 18 Fe    0.00040   -0.00017    0.08950
 19 Fe   -0.00169    0.08651    0.08400
 20 Fe    0.00744   -0.00418   -0.15767
 21 Fe    0.00103    0.01780   -0.03091
 22 Fe   -0.02011   -0.02892    0.06484
 23 Fe    0.07731   -0.04465    0.08084
 24 Fe   -0.00229   -0.01294   -0.15931
 25 Fe   -0.01480    0.00856   -0.01534
 26 Fe   -0.00031    0.00010   -0.01018
 27 Fe   -0.00089   -0.03236   -0.04284
 28 Fe   -0.01192    0.00701   -0.16066
 29 Fe    0.00045   -0.01658   -0.01629
 30 Fe   -0.01526    0.03250    0.06509
 31 Fe   -0.03138    0.01732   -0.04360
 32 Fe   -0.01268   -0.00389   -0.15780
[...]
  23 Fe ( 0.000000,  0.000000,  2.128435)
  24 Fe ( 0.000000,  0.000000,  2.830849)
  25 Fe ( 0.000000,  0.000000,  2.741634)
  26 Fe ( 0.000000,  0.000000,  2.752232)
  27 Fe ( 0.000000,  0.000000,  2.882729)
  28 Fe ( 0.000000,  0.000000,  2.831788)
  29 Fe ( 0.000000,  0.000000,  2.743059)
  30 Fe ( 0.000000,  0.000000,  2.732913)
  31 Fe ( 0.000000,  0.000000,  2.885907)
  32 Fe ( 0.000000,  0.000000,  2.827384)
  33 Fe ( 0.000000,  0.000000,  2.747545)
  34 Fe ( 0.000000,  0.000000,  2.734778)
  35 Fe ( 0.000000,  0.000000,  2.121513)
  36 C  ( 0.000000,  0.000000, -0.149530)

Energy contributions relative to reference atoms: (reference = -1247327.993713)

Kinetic:       +809.628692
Potential:     -708.481595
External:        +0.000000
XC:            -2633.782924
Entropy (-ST):   -1.629554
Local:           +1.880724
--------------------------
Free energy:   -2532.384658
Extrapolated:  -2531.569881

Spin contamination: 2.906333 electrons
Showing only first 2 kpts
                      Up                     Down
 Kpt  Band  Eigenvalues  Occupancy  Eigenvalues  Occupancy
  0   144     -6.58917    1.00000     -3.77812    0.00000
  0   145     -6.57612    1.00000     -3.75231    0.00000
  0   146     -6.55191    1.00000     -3.73703    0.00000
  0   147     -6.52868    1.00000     -3.71997    0.00000

  1   144     -6.49146    1.00000     -3.69871    0.00000
  1   145     -6.48123    1.00000     -3.66620    0.00000
  1   146     -6.44993    1.00000     -3.66536    0.00000
  1   147     -6.44910    1.00000     -3.64948    0.00000


Fermi level: -5.05057

No gap

Forces in eV/Ang:
  0 Fe   -0.00632    0.00385   -0.15321
  1 Fe   -0.00057   -0.02767    0.07434
  2 Fe   -0.00660   -0.00048   -0.00024
  3 Fe   -0.00411    0.00226   -0.00878
  4 Fe    0.00848    0.00778   -0.17045
  5 Fe    0.01273    0.00625    0.09696
  6 Fe   -0.00392   -0.00622    0.00327
  7 Fe    0.00432    0.00215    0.00002
  8 Fe   -0.00134   -0.00550   -0.15426
  9 Fe   -0.02612    0.01546    0.07753
 10 Fe    0.00003   -0.00000    0.03766
 11 Fe    0.00016   -0.00313   -0.00928
 12 Fe    0.00415    0.00414   -0.15420
 13 Fe   -0.03643   -0.02261    0.00308
 14 Fe    0.00676   -0.00015    0.00123
 15 Fe    0.00299    0.00143   -0.00933
 16 Fe   -0.00292    0.01097   -0.16359
 17 Fe   -0.01264    0.00736    0.09957
 18 Fe    0.00072   -0.00034   -0.00246
 19 Fe   -0.00318   -0.01360   -0.01676
 20 Fe    0.00559   -0.00312   -0.16329
 21 Fe    0.00100   -0.01380    0.09808
 22 Fe    0.00349    0.00646    0.00292
 23 Fe   -0.00791    0.00437   -0.01839
 24 Fe   -0.00237   -0.01107   -0.17039
 25 Fe    0.03635   -0.02135    0.00483
 26 Fe   -0.00012    0.00004    0.02940
 27 Fe    0.00032   -0.00487   -0.00013
 28 Fe   -0.01022    0.00604   -0.17145
 29 Fe    0.00104    0.04265    0.00248
 30 Fe    0.00355   -0.00573    0.00116
 31 Fe   -0.00639    0.00374    0.00145
 32 Fe   -0.01081   -0.00277   -0.16360
 33 Fe    0.02343    0.01456    0.07501
 34 Fe   -0.00289    0.00592   -0.00060
 35 Fe    0.01076    0.00960   -0.01667
 36 C     0.01213   -0.00779    0.05294

BFGS:   18 07:03:21    -2531.569881        0.0549
System changes: positions 

Initializing position-dependent things.

Density initialized from wave functions
                                          
                                          
                                          
                                          
                                          
                   C                      
          Fe    Fe     Fe                 
            Fe    Fe    Fe                
           FeFe  Fe Fe Fe                 
             Fe    Fe    FFe              
              Fe     Fe    Fe             
             Fe     Fe    Fe              
               Fe     Fe    Fe            
                 Fe    Fe     Fe          
          Fe    Fe    Fe                  
            Fe    Fe    Fe                
             Fe     Fe    Fe              
                                          
                                          
                                          
                                          

Positions:
   0 Fe     0.000000    0.000000   10.000000    ( 0.0000,  0.0000,  2.7500)
   1 Fe     1.298117    0.749468   12.119817    ( 0.0000,  0.0000,  2.6728)
   2 Fe     0.004950    1.499142   14.264110    ( 0.0000,  0.0000,  2.6756)
   3 Fe     0.002328   -0.001461   16.418740    ( 0.0000,  0.0000,  2.7532)
   4 Fe    -1.298117    2.248405   10.000000    ( 0.0000,  0.0000,  2.7500)
   5 Fe     0.000000    2.997873   12.119817    ( 0.0000,  0.0000,  2.6728)
   6 Fe    -1.295266    3.751430   14.263754    ( 0.0000,  0.0000,  2.6756)
   7 Fe    -1.296319    2.249657   16.362791    ( 0.0000,  0.0000,  2.7532)
   8 Fe    -2.596234    4.496810   10.000000    ( 0.0000,  0.0000,  2.7500)
   9 Fe    -1.298117    5.246278   12.119817    ( 0.0000,  0.0000,  2.6728)
  10 Fe    -2.596344    5.995816   14.274615    ( 0.0000,  0.0000,  2.6756)
  11 Fe    -2.595761    4.499201   16.417110    ( 0.0000,  0.0000,  2.7532)
  12 Fe     2.596234    0.000000   10.000000    ( 0.0000,  0.0000,  2.7500)
  13 Fe     3.894352    0.749468   12.119817    ( 0.0000,  0.0000,  2.6728)
  14 Fe     2.591588    1.499156   14.264056    ( 0.0000,  0.0000,  2.6756)
  15 Fe     2.594452   -0.001702   16.417310    ( 0.0000,  0.0000,  2.7532)
  16 Fe     1.298117    2.248405   10.000000    ( 0.0000,  0.0000,  2.7500)
  17 Fe     2.596234    2.997873   12.119817    ( 0.0000,  0.0000,  2.6728)
  18 Fe     1.298239    3.747269   14.283738    ( 0.0000,  0.0000,  2.6756)
  19 Fe     1.293097    2.185531   16.453226    ( 0.0000,  0.0000,  2.7532)
  20 Fe     0.000000    4.496810   10.000000    ( 0.0000,  0.0000,  2.7500)
  21 Fe     1.298117    5.246278   12.119817    ( 0.0000,  0.0000,  2.6728)
  22 Fe    -0.002088    5.991279   14.264002    ( 0.0000,  0.0000,  2.6756)
  23 Fe    -0.048289    4.524787   16.454832    ( 0.0000,  0.0000,  2.7532)
  24 Fe     5.192469    0.000000   10.000000    ( 0.0000,  0.0000,  2.7500)
  25 Fe     6.490586    0.749468   12.119817    ( 0.0000,  0.0000,  2.6728)
  26 Fe     5.192541    1.498872   14.235159    ( 0.0000,  0.0000,  2.6756)
  27 Fe     5.192362   -0.002317   16.363414    ( 0.0000,  0.0000,  2.7532)
  28 Fe     3.894352    2.248405   10.000000    ( 0.0000,  0.0000,  2.7500)
  29 Fe     5.192469    2.997873   12.119817    ( 0.0000,  0.0000,  2.6728)
  30 Fe     3.891805    3.751253   14.264059    ( 0.0000,  0.0000,  2.6756)
  31 Fe     3.891774    2.249999   16.363277    ( 0.0000,  0.0000,  2.7532)
  32 Fe     2.596234    4.496810   10.000000    ( 0.0000,  0.0000,  2.7500)
  33 Fe     3.894352    5.246278   12.119817    ( 0.0000,  0.0000,  2.6728)
  34 Fe     2.598485    5.991373   14.264353    ( 0.0000,  0.0000,  2.6756)
  35 Fe     2.647826    4.532508   16.453651    ( 0.0000,  0.0000,  2.7532)
  36 C      1.304878    3.742632   17.416017    ( 0.0000,  0.0000,  0.0000)

Unit cell:
           periodic     x           y           z      points  spacing
  1. axis:    yes    7.788703    0.000000    0.000000    36     0.1874
  2. axis:    yes   -3.894352    6.745215    0.000000    36     0.1874
  3. axis:    no     0.000000    0.000000   26.359450   148     0.1781

  Lengths:   7.788703   7.788703  26.359450
  Angles:   90.000000  90.000000 120.000000

Effective grid spacing dv^(1/3) = 0.1933

     iter     time        total  log10-change:  magmom
                         energy  eigst   dens
iter:   1 07:04:47 -2531.570322  -4.03           +95.3345
iter:   2 07:05:19 -2531.577984  -4.48  -3.35    +95.3424
iter:   3 07:05:51 -2531.571655c -4.86  -2.89    +95.3378
iter:   4 07:06:24 -2531.570126c -5.59  -3.35    +95.3381
iter:   5 07:06:56 -2531.570140c -6.16  -4.04c   +95.3374
iter:   6 07:07:28 -2531.570279c -5.68  -4.05c   +95.3386
iter:   7 07:08:00 -2531.570058c -6.02  -4.18c   +95.3388
iter:   8 07:08:33 -2531.570162c -6.30  -4.21c   +95.3402
iter:   9 07:09:05 -2531.570118c -6.81  -4.32c   +95.3411
iter:  10 07:09:37 -2531.570173c -6.92  -4.39c   +95.3410
iter:  11 07:10:09 -2531.570121c -7.07  -4.67c   +95.3410
iter:  12 07:10:41 -2531.570139c -7.29  -4.49c   +95.3409
iter:  13 07:11:14 -2531.570113c -7.46c -4.59c   +95.3408

Converged after 13 iterations.

Dipole moment: (-4.134959, -6.738118, -0.156836) |e|*Ang

Total magnetic moment: (0.000000, 0.000000, 95.340786)
Local magnetic moments:
   0 Fe ( 0.000000,  0.000000,  2.829506)
   1 Fe ( 0.000000,  0.000000,  2.747053)
   2 Fe ( 0.000000,  0.000000,  2.733993)
   3 Fe ( 0.000000,  0.000000,  2.820308)
   4 Fe ( 0.000000,  0.000000,  2.831839)
   5 Fe ( 0.000000,  0.000000,  2.761197)
   6 Fe ( 0.000000,  0.000000,  2.735333)
   7 Fe ( 0.000000,  0.000000,  2.881818)
   8 Fe ( 0.000000,  0.000000,  2.828966)
   9 Fe ( 0.000000,  0.000000,  2.746198)
  10 Fe ( 0.000000,  0.000000,  2.748872)
  11 Fe ( 0.000000,  0.000000,  2.825420)
  12 Fe ( 0.000000,  0.000000,  2.828963)
  13 Fe ( 0.000000,  0.000000,  2.742511)
  14 Fe ( 0.000000,  0.000000,  2.732194)
  15 Fe ( 0.000000,  0.000000,  2.825430)
  16 Fe ( 0.000000,  0.000000,  2.828637)
  17 Fe ( 0.000000,  0.000000,  2.762266)
  18 Fe ( 0.000000,  0.000000,  2.809583)
  19 Fe ( 0.000000,  0.000000,  2.123068)
  20 Fe ( 0.000000,  0.000000,  2.827014)
  21 Fe ( 0.000000,  0.000000,  2.761255)
  22 Fe ( 0.000000,  0.000000,  2.735361)
  23 Fe ( 0.000000,  0.000000,  2.132870)
  24 Fe ( 0.000000,  0.000000,  2.831842)
  25 Fe ( 0.000000,  0.000000,  2.741068)
  26 Fe ( 0.000000,  0.000000,  2.752212)
  27 Fe ( 0.000000,  0.000000,  2.882160)
  28 Fe ( 0.000000,  0.000000,  2.832747)
  29 Fe ( 0.000000,  0.000000,  2.742493)
  30 Fe ( 0.000000,  0.000000,  2.732298)
  31 Fe ( 0.000000,  0.000000,  2.885483)
  32 Fe ( 0.000000,  0.000000,  2.828632)
  33 Fe ( 0.000000,  0.000000,  2.747118)
  34 Fe ( 0.000000,  0.000000,  2.734131)
  35 Fe ( 0.000000,  0.000000,  2.124496)
  36 C  ( 0.000000,  0.000000, -0.150036)

Energy contributions relative to reference atoms: (reference = -1247327.993713)

Kinetic:       +809.393998
Potential:     -708.285088
External:        +0.000000
XC:            -2633.743639
Entropy (-ST):   -1.629452
Local:           +1.879342
--------------------------
Free energy:   -2532.384839
Extrapolated:  -2531.570113

Spin contamination: 2.907599 electrons
Showing only first 2 kpts
                      Up                     Down
 Kpt  Band  Eigenvalues  Occupancy  Eigenvalues  Occupancy
  0   144     -6.59085    1.00000     -3.77930    0.00000
  0   145     -6.57792    1.00000     -3.75354    0.00000
  0   146     -6.55344    1.00000     -3.73854    0.00000
  0   147     -6.53034    1.00000     -3.72145    0.00000

  1   144     -6.49306    1.00000     -3.69996    0.00000
  1   145     -6.48278    1.00000     -3.66753    0.00000
  1   146     -6.45174    1.00000     -3.66667    0.00000
  1   147     -6.45069    1.00000     -3.65084    0.00000


Fermi level: -5.05201

No gap

Forces in eV/Ang:
  0 Fe   -0.00636    0.00387   -0.15497
  1 Fe   -0.00046   -0.02897    0.07440
  2 Fe   -0.01681    0.00085    0.00251
  3 Fe   -0.00198    0.00089    0.00022
  4 Fe    0.00824    0.00767   -0.17159
  5 Fe    0.01180    0.00610    0.09762
  6 Fe   -0.00846   -0.01527    0.00511
  7 Fe   -0.00592   -0.00322    0.00019
  8 Fe   -0.00135   -0.00557   -0.15594
  9 Fe   -0.02704    0.01597    0.07833
 10 Fe    0.00035   -0.00022    0.02639
 11 Fe    0.00019   -0.00152   -0.00059
 12 Fe    0.00419    0.00418   -0.15587
 13 Fe   -0.03494   -0.02199    0.00561
 14 Fe    0.01723    0.00080    0.00418
 15 Fe    0.00149    0.00038   -0.00056
 16 Fe   -0.00291    0.01105   -0.16543
 17 Fe   -0.01189    0.00690    0.10012
 18 Fe    0.00064   -0.00034    0.00732
 19 Fe   -0.00303    0.00189   -0.00968
 20 Fe    0.00564   -0.00316   -0.16499
 21 Fe    0.00064   -0.01295    0.09867
 22 Fe    0.00907    0.01489    0.00484
 23 Fe    0.00554   -0.00337   -0.01073
 24 Fe   -0.00241   -0.01081   -0.17154
 25 Fe    0.03472   -0.02035    0.00689
 26 Fe   -0.00041    0.00024    0.02996
 27 Fe   -0.00002    0.00651    0.00004
 28 Fe   -0.01001    0.00591   -0.17259
 29 Fe    0.00130    0.04104    0.00503
 30 Fe    0.00800   -0.01528    0.00428
 31 Fe    0.00376   -0.00199    0.00139
 32 Fe   -0.01089   -0.00283   -0.16545
 33 Fe    0.02466    0.01511    0.07500
 34 Fe   -0.00916    0.01411    0.00242
 35 Fe   -0.00239    0.00182   -0.00969
 36 C     0.00704   -0.00425    0.02535

BFGS:   19 07:11:35    -2531.570113        0.0300
Timing:                                      incl.     excl.
-------------------------------------------------------------------
Density initialized from wave functions:     1.164     1.163   0.0% |
 Symmetrize density:                         0.001     0.001   0.0% |
Forces:                                    362.575   362.575   1.8% ||
Hamiltonian:                                56.109     0.018   0.0% |
 Atomic:                                     0.004     0.004   0.0% |
  XC Correction:                             0.000     0.000   0.0% |
 Calculate atomic Hamiltonians:              0.006     0.006   0.0% |
 Communicate:                                4.192     4.192   0.0% |
 Hartree integrate/restrict:                 0.264     0.264   0.0% |
 Initialize Hamiltonian:                     0.001     0.001   0.0% |
 Poisson:                                    2.467     0.099   0.0% |
  Communicate from 1D:                       0.200     0.200   0.0% |
  Communicate from 2D:                       0.365     0.365   0.0% |
  Communicate to 1D:                         0.112     0.112   0.0% |
  Communicate to 2D:                         0.478     0.478   0.0% |
  FFT 1D:                                    0.655     0.655   0.0% |
  FFT 2D:                                    0.557     0.557   0.0% |
 XC 3D grid:                                49.118    17.258   0.1% |
  VdW-DF integral:                          31.860     1.907   0.0% |
   Convolution:                              3.171     3.171   0.0% |
   FFT:                                      1.995     1.995   0.0% |
   gather:                                   8.677     8.677   0.0% |
   hmm1:                                     0.572     0.572   0.0% |
   hmm2:                                     1.268     1.268   0.0% |
   iFFT:                                     1.899     1.899   0.0% |
   potential:                                8.921     0.238   0.0% |
    collect:                                 0.734     0.734   0.0% |
    p1:                                      5.375     5.375   0.0% |
    p2:                                      1.906     1.906   0.0% |
    sum:                                     0.668     0.668   0.0% |
   splines:                                  3.450     3.450   0.0% |
 vbar:                                       0.039     0.039   0.0% |
LCAO initialization:                        12.843     0.476   0.0% |
 LCAO eigensolver:                           5.375     0.002   0.0% |
  Calculate projections:                     0.000     0.000   0.0% |
  DenseAtomicCorrection:                     0.000     0.000   0.0% |
  Distribute overlap matrix:                 5.120     5.120   0.0% |
  Orbital Layouts:                           0.242     0.242   0.0% |
  Potential matrix:                          0.001     0.001   0.0% |
  Sum over cells:                            0.009     0.009   0.0% |
 LCAO to grid:                               6.307     6.307   0.0% |
 Set positions (LCAO WFS):                   0.686     0.528   0.0% |
  Basic WFS set positions:                   0.001     0.001   0.0% |
  Basis functions set positions:             0.000     0.000   0.0% |
  P tci:                                     0.000     0.000   0.0% |
  ST tci:                                    0.105     0.105   0.0% |
  mktci:                                     0.051     0.051   0.0% |
Redistribute:                                0.011     0.011   0.0% |
SCF-cycle:                               19111.585    36.477   0.2% |
 Davidson:                               17449.453  6178.911  30.1% |-----------|
  Apply hamiltonian:                       380.677   380.677   1.9% ||
  Subspace diag:                          1449.266     0.141   0.0% |
   calc_h_matrix:                          773.486   369.611   1.8% ||
    Apply hamiltonian:                     403.875   403.875   2.0% ||
   diagonalize:                             28.473    28.473   0.1% |
   rotate_psi:                             647.166   647.166   3.2% ||
  calc. matrices:                         8018.063  2409.017  11.7% |----|
   Apply hamiltonian:                     5609.046  5609.046  27.3% |----------|
  diagonalize:                             179.571   179.571   0.9% |
  rotate_psi:                             1242.964  1242.964   6.1% |-|
 Density:                                   41.473     0.012   0.0% |
  Atomic density matrices:                   3.675     3.675   0.0% |
  Mix:                                      10.829    10.829   0.1% |
  Multipole moments:                         0.207     0.207   0.0% |
  Pseudo density:                           26.749    26.734   0.1% |
   Symmetrize density:                       0.015     0.015   0.0% |
 Hamiltonian:                             1490.135     0.483   0.0% |
  Atomic:                                    0.120     0.118   0.0% |
   XC Correction:                            0.002     0.002   0.0% |
  Calculate atomic Hamiltonians:             0.175     0.175   0.0% |
  Communicate:                             118.940   118.940   0.6% |
  Hartree integrate/restrict:                7.344     7.344   0.0% |
  Poisson:                                  69.884     2.781   0.0% |
   Communicate from 1D:                      5.668     5.668   0.0% |
   Communicate from 2D:                     10.404    10.404   0.1% |
   Communicate to 1D:                        3.166     3.166   0.0% |
   Communicate to 2D:                       13.579    13.579   0.1% |
   FFT 1D:                                  18.573    18.573   0.1% |
   FFT 2D:                                  15.713    15.713   0.1% |
  XC 3D grid:                             1292.335   484.060   2.4% ||
   VdW-DF integral:                        808.274    54.177   0.3% |
    Convolution:                            89.338    89.338   0.4% |
    FFT:                                    56.432    56.432   0.3% |
    gather:                                248.657   248.657   1.2% |
    hmm1:                                   16.378    16.378   0.1% |
    hmm2:                                   35.606    35.606   0.2% |
    iFFT:                                   54.476    54.476   0.3% |
    potential:                             253.207     6.780   0.0% |
     collect:                               20.778    20.778   0.1% |
     p1:                                   153.086   153.086   0.7% |
     p2:                                    54.584    54.584   0.3% |
     sum:                                   17.979    17.979   0.1% |
    splines:                                 0.003     0.003   0.0% |
  vbar:                                      0.855     0.855   0.0% |
 Orthonormalize:                            94.047     0.006   0.0% |
  calc_s_matrix:                             5.468     5.468   0.0% |
  inverse-cholesky:                         77.030    77.030   0.4% |
  projections:                               0.002     0.002   0.0% |
  rotate_psi_s:                             11.541    11.541   0.1% |
Set symmetry:                                0.001     0.001   0.0% |
Other:                                     972.624   972.624   4.7% |-|
-------------------------------------------------------------------
Total:                                             20516.911 100.0%

Memory usage: 1.25 GiB
Date: Thu Sep 28 07:11:35 2023
