
  ___ ___ ___ _ _ _  
 |   |   |_  | | | | 
 | | | | | . | | | | 
 |__ |  _|___|_____|  22.8.0
 |___|_|             

User:   s204775@c034.nifl.fysik.dtu.dk
Date:   Thu Sep 28 01:35:48 2023
Arch:   x86_64
Pid:    35042
CWD:    /home/cat/s204775/projects/Bachelor_project/C_missing_features
Python: 3.10.4
gpaw:   /home/modules/software/GPAW/22.8.0-intel-2022a/lib/python3.10/site-packages/gpaw
_gpaw:  /home/modules/software/GPAW/22.8.0-intel-2022a/lib/python3.10/site-packages/
        _gpaw.cpython-310-x86_64-linux-gnu.so
ase:    /home/modules/software/ASE/3.22.1-intel-2022a/lib/python3.10/site-packages/ase (version 3.22.1)
numpy:  /home/modules/software/SciPy-bundle/2022.05-intel-2022a/lib/python3.10/site-packages/numpy (version 1.22.3)
scipy:  /home/modules/software/SciPy-bundle/2022.05-intel-2022a/lib/python3.10/site-packages/scipy (version 1.8.1)
libxc:  5.2.3
units:  Angstrom and eV
cores: 40
OpenMP: False
OMP_NUM_THREADS: 1

Input parameters:
  basis: dzp
  h: 0.18
  kpts: {size: (4, 4, 1)}
  xc: BEEF-vdW

System changes: positions, numbers, cell, pbc, initial_charges, initial_magmoms 

Initialize ...

species:
  Hg:
    name: Mercury
    id: 0b51cb891d82143d22b15bac899cb056
    Z: 80.0
    valence: 18
    core: 62
    charge: 0.0
    file: /home/modules/software/GPAW-setups/0.9.20000/Hg.PBE.gz
    compensation charges: {type: gauss,
                           rc: 0.41,
                           lmax: 2}
    cutoffs: {filter: 2.17,
              core: 2.06}
    valence states:
      #              energy  rcut
      - 6s(2.00)    -6.783   1.307
      - 5p(6.00)   -66.572   1.291
      - 6p(0.00)    -1.056   1.291
      - 5d(10.00)    -9.891   1.302
      -  s          20.429   1.307
      -  d          17.320   1.302
  
    # LCAO basis set for Hg:
    #   Name: dzp
    #   File: /home/modules/software/GPAW-setups/0.9.20000/Hg.dzp.basis.gz
    #   Number of radial functions: 9
    #   Number of spherical harmonics: 27
    #     l=0, rc=7.9688 Bohr: 6s-sz confined orbital
    #     l=1, rc=3.3594 Bohr: 5p-sz confined orbital
    #     l=1, rc=12.7031 Bohr: 6p-sz confined orbital
    #     l=2, rc=5.3594 Bohr: 5d-sz confined orbital
    #     l=0, rc=4.6406 Bohr: 6s-dz split-valence wave
    #     l=1, rc=2.2656 Bohr: 5p-dz split-valence wave
    #     l=1, rc=7.7500 Bohr: 6p-dz split-valence wave
    #     l=2, rc=3.2656 Bohr: 5d-dz split-valence wave
    #     l=1, rc=7.9688 Bohr: p-type Gaussian polarization
    #   Number of RI-basis functions 0

  C:
    name: Carbon
    id: 4aa54d4b901d75f77cc0ea3eec22967b
    Z: 6.0
    valence: 4
    core: 2
    charge: 0.0
    file: /home/modules/software/GPAW-setups/0.9.20000/C.PBE.gz
    compensation charges: {type: gauss,
                           rc: 0.20,
                           lmax: 2}
    cutoffs: {filter: 1.14,
              core: 1.14}
    valence states:
      #              energy  rcut
      - 2s(2.00)   -13.751   0.635
      - 2p(2.00)    -5.284   0.635
      -  s          13.461   0.635
      -  p          21.927   0.635
      -  d           0.000   0.635
  
    # LCAO basis set for C:
    #   Name: dzp
    #   File: /home/modules/software/GPAW-setups/0.9.20000/C.dzp.basis.gz
    #   Number of radial functions: 5
    #   Number of spherical harmonics: 13
    #     l=0, rc=5.5469 Bohr: 2s-sz confined orbital
    #     l=1, rc=6.6719 Bohr: 2p-sz confined orbital
    #     l=0, rc=3.0312 Bohr: 2s-dz split-valence wave
    #     l=1, rc=3.7500 Bohr: 2p-dz split-valence wave
    #     l=2, rc=6.6719 Bohr: d-type Gaussian polarization
    #   Number of RI-basis functions 0

Reference energy: -19194635.662305  # eV

Spin-paired calculation

Convergence criteria:
 Maximum [total energy] change in last 3 cyles: 0.0005 eV / electron
 Maximum integral of absolute [dens]ity change: 0.0001 electrons / valence electron
 Maximum integral of absolute [eigenst]ate change: 4e-08 eV^2 / valence electron
 Maximum number of scf [iter]ations: 333
 (Square brackets indicate name in SCF output, whereas a 'c' in
 the SCF output indicates the quantity has converged.)

Symmetries present (total): 2

  ( 1  0  0)  (-1  0  0)
  ( 0  1  0)  (-1  1  0)
  ( 0  0  1)  ( 0  0  1)
Note: your k-points are not as symmetric as your crystal!

16 k-points: 4 x 4 x 1 Monkhorst-Pack grid
8 k-points in the irreducible part of the Brillouin zone
       k-points in crystal coordinates                weights
   0:     0.12500000   -0.37500000    0.00000000          2/16
   1:     0.12500000   -0.12500000    0.00000000          2/16
   2:     0.12500000    0.12500000    0.00000000          2/16
   3:     0.12500000    0.37500000    0.00000000          2/16
   4:     0.37500000   -0.37500000    0.00000000          2/16
   5:     0.37500000   -0.12500000    0.00000000          2/16
   6:     0.37500000    0.12500000    0.00000000          2/16
   7:     0.37500000    0.37500000    0.00000000          2/16

Wave functions: Uniform real-space grid
  Kinetic energy operator: 8*3+1=25 point O(h^6) finite-difference Laplacian
  ScaLapack parameters: grid=1x1, blocksize=None
  Wavefunction extrapolation:
    Improved wavefunction reuse through dual PAW basis 

Occupation numbers: Fermi-Dirac:
  width: 0.1000  # eV
 

Eigensolver
   Davidson(niter=2) 

Densities:
  Coarse grid: 52*52*160 grid
  Fine grid: 104*104*320 grid
  Total Charge: 0.000000 

Density mixing:
  Method: separate
  Backend: pulay
  Linear mixing parameter: 0.05
  old densities: 5
  Damping of long wavelength oscillations: 50 

Hamiltonian:
  XC and Coulomb potentials evaluated on a 104*104*320 grid
  Using the BEEF-vdW Exchange-Correlation functional
  Interpolation: tri-quintic (5. degree polynomial)
  Poisson solver: FastPoissonSolver using
    Stencil: 8*3+1=25 point O(h^6) finite-difference Laplacian
    FFT axes: [0, 1]
    FST axes: [2]
 

XC parameters: BEEF-vdW with 2 nearest neighbor stencil

Memory estimate:
  Process memory now: 245.91 MiB
  Calculator: 1131.87 MiB
    Density: 67.60 MiB
      Arrays: 16.88 MiB
      Localized functions: 44.33 MiB
      Mixer: 6.40 MiB
    Hamiltonian: 13.84 MiB
      Arrays: 11.04 MiB
      XC: 0.00 MiB
      Poisson: 0.00 MiB
      vbar: 2.80 MiB
    Wavefunctions: 1050.44 MiB
      Arrays psit_nG: 506.50 MiB
      Eigensolver: 536.84 MiB
      Projections: 0.80 MiB
      Projectors: 6.29 MiB

Total number of cores used: 40
Parallelization over k-points: 8
Domain decomposition: 1 x 1 x 5

Number of atoms: 37
Number of atomic orbitals: 985
Number of bands in calculation: 396
Number of valence electrons: 652
Bands to converge: occupied

... initialized

Initializing position-dependent things.

Density initialized from atomic densities
Creating initial wave functions:
  396 bands from LCAO basis set

                                                              
                                                              
                                                              
                                                              
                                       C                      
                                   Hg       Hg       Hg       
                                                              
                             Hg       Hg       Hg             
                                                              
                      Hg       Hg       Hg                    
                         Hg       Hg       Hg                 
                                                              
                   Hg      Hg       Hg                        
                              Hg       Hg       Hg            
            Hg       Hg       Hg                              
                        Hg       Hg      Hg                   
                                                              
                 Hg       Hg       Hg                         
                    Hg       Hg       Hg                      
                                                              
             Hg       Hg       Hg                             
       Hg       Hg       Hg                                   
                                                              
                                                              
                                                              
                                                              

Positions:
   0 Hg     0.000000    0.000000   10.000000    ( 0.0000,  0.0000,  0.0000)
   1 Hg     3.603292    2.080362   12.942076    ( 0.0000,  0.0000,  0.0000)
   2 Hg     1.809013    1.044434   15.886304    ( 0.0000,  0.0000,  0.0000)
   3 Hg     5.404939    3.120543   18.930235    ( 0.0000,  0.0000,  0.0000)
   4 Hg     1.801646    3.120543   10.000000    ( 0.0000,  0.0000,  0.0000)
   5 Hg     5.404939    5.200905   12.942076    ( 0.0000,  0.0000,  0.0000)
   6 Hg     3.616813    4.152917   15.866715    ( 0.0000,  0.0000,  0.0000)
   7 Hg     7.191366    6.267569   18.938926    ( 0.0000,  0.0000,  0.0000)
   8 Hg     3.603292    6.241086   10.000000    ( 0.0000,  0.0000,  0.0000)
   9 Hg     7.206585    8.321447   12.942076    ( 0.0000,  0.0000,  0.0000)
  10 Hg     5.404939    7.272760   15.886304    ( 0.0000,  0.0000,  0.0000)
  11 Hg     8.977686    9.361566   18.938926    ( 0.0000,  0.0000,  0.0000)
  12 Hg     3.603292    0.000000   10.000000    ( 0.0000,  0.0000,  0.0000)
  13 Hg     7.206585    2.080362   12.942076    ( 0.0000,  0.0000,  0.0000)
  14 Hg     5.404939    1.055793   15.866715    ( 0.0000,  0.0000,  0.0000)
  15 Hg     9.023557    3.094121   18.938926    ( 0.0000,  0.0000,  0.0000)
  16 Hg     5.404939    3.120543   10.000000    ( 0.0000,  0.0000,  0.0000)
  17 Hg     9.008231    5.200905   12.942076    ( 0.0000,  0.0000,  0.0000)
  18 Hg     7.193064    4.152917   15.866715    ( 0.0000,  0.0000,  0.0000)
  19 Hg    10.809877    6.241086   18.929682    ( 0.0000,  0.0000,  0.0000)
  20 Hg     7.206585    6.241086   10.000000    ( 0.0000,  0.0000,  0.0000)
  21 Hg    10.809877    8.321447   12.942076    ( 0.0000,  0.0000,  0.0000)
  22 Hg     8.994409    7.289247   15.879143    ( 0.0000,  0.0000,  0.0000)
  23 Hg    12.642068    9.361566   18.938926    ( 0.0000,  0.0000,  0.0000)
  24 Hg     7.206585    0.000000   10.000000    ( 0.0000,  0.0000,  0.0000)
  25 Hg    10.809877    2.080362   12.942076    ( 0.0000,  0.0000,  0.0000)
  26 Hg     9.000864    1.044434   15.886304    ( 0.0000,  0.0000,  0.0000)
  27 Hg    12.596197    3.094121   18.938926    ( 0.0000,  0.0000,  0.0000)
  28 Hg     9.008231    3.120543   10.000000    ( 0.0000,  0.0000,  0.0000)
  29 Hg    12.611524    5.200905   12.942076    ( 0.0000,  0.0000,  0.0000)
  30 Hg    10.809877    4.144763   15.879143    ( 0.0000,  0.0000,  0.0000)
  31 Hg    14.428388    6.267569   18.938926    ( 0.0000,  0.0000,  0.0000)
  32 Hg    10.809877    6.241086   10.000000    ( 0.0000,  0.0000,  0.0000)
  33 Hg    14.413170    8.321447   12.942076    ( 0.0000,  0.0000,  0.0000)
  34 Hg    12.625346    7.289247   15.879143    ( 0.0000,  0.0000,  0.0000)
  35 Hg    16.214816    9.361628   18.940525    ( 0.0000,  0.0000,  0.0000)
  36 C     10.809877    8.330297   19.974288    ( 0.0000,  0.0000,  0.0000)

Unit cell:
           periodic     x           y           z      points  spacing
  1. axis:    yes   10.809877    0.000000    0.000000    52     0.1800
  2. axis:    yes    5.404939    9.361628    0.000000    52     0.1800
  3. axis:    no     0.000000    0.000000   28.826228   160     0.1802

  Lengths:  10.809877  10.809877  28.826228
  Angles:   90.000000  90.000000  60.000000

Effective grid spacing dv^(1/3) = 0.1889

     iter     time        total  log10-change:
                         energy  eigst   dens
iter:   1 01:37:39 -12228.787044
iter:   2 01:38:42 -12229.703914  -0.46  -1.50
iter:   3 01:39:44 -12229.659264  -1.00  -1.53
iter:   4 01:40:46 -12231.453055  -1.03  -1.59
iter:   5 01:41:48 -12233.150326  -1.05  -1.84
iter:   6 01:42:51 -12233.555343  -1.18  -2.00
iter:   7 01:43:53 -12233.707656  -1.37  -2.11
iter:   8 01:44:55 -12233.334264  -1.64  -2.20
iter:   9 01:45:57 -12233.142793  -2.16  -2.38
iter:  10 01:46:59 -12233.145192c -2.59  -2.59
iter:  11 01:48:02 -12233.130436c -2.68  -2.64
iter:  12 01:49:04 -12233.102856c -3.06  -2.68
iter:  13 01:50:06 -12233.097498c -4.04  -2.87
iter:  14 01:51:08 -12233.096639c -4.55  -2.87
iter:  15 01:52:11 -12233.083739c -3.89  -2.90
iter:  16 01:53:13 -12233.078945c -3.55  -3.09
iter:  17 01:54:15 -12233.072892c -3.93  -3.16
iter:  18 01:55:17 -12233.072923c -4.28  -3.52
iter:  19 01:56:20 -12233.072636c -4.83  -3.63
iter:  20 01:57:22 -12233.072577c -5.14  -3.85
iter:  21 01:58:24 -12233.072437c -5.60  -3.99
iter:  22 01:59:26 -12233.072343c -6.12  -4.09c
iter:  23 02:00:29 -12233.072353c -6.57  -4.33c
iter:  24 02:01:31 -12233.072370c -6.57  -4.37c
iter:  25 02:02:33 -12233.072366c -6.97  -4.64c
iter:  26 02:03:35 -12233.072358c -7.39  -4.75c
iter:  27 02:04:37 -12233.072362c -7.73c -4.82c

Converged after 27 iterations.

Dipole moment: (-19.709779, -10.930583, -0.132720) |e|*Ang

Energy contributions relative to reference atoms: (reference = -19194635.662305)

Kinetic:       +2017.407094
Potential:     -1801.109794
External:        +0.000000
XC:            -12362.011071
Entropy (-ST):   -0.270606
Local:          -87.223289
--------------------------
Free energy:   -12233.207666
Extrapolated:  -12233.072362

Showing only first 2 kpts
 Kpt  Band  Eigenvalues  Occupancy
  0   324     -5.31660    1.99932
  0   325     -4.68608    1.68588
  0   326     -4.50779    0.94873
  0   327     -4.28959    0.18479

  1   324     -5.29145    1.99912
  1   325     -4.42541    0.56729
  1   326     -4.29055    0.18642
  1   327     -4.15408    0.05117


Fermi level: -4.51806

No gap

Forces in eV/Ang:
  0 Hg   -0.00000    0.00120   -0.07285
  1 Hg   -0.01225   -0.01637    0.01884
  2 Hg    0.02578   -0.02162    0.06989
  3 Hg   -0.00000    0.02047    0.04589
  4 Hg   -0.01297   -0.02284   -0.07206
  5 Hg   -0.00000    0.01992    0.00635
  6 Hg    0.00921   -0.00836    0.02802
  7 Hg   -0.00944   -0.02096    0.00686
  8 Hg    0.01182    0.02226   -0.07149
  9 Hg    0.01064   -0.00248    0.02325
 10 Hg   -0.00000    0.01256    0.04186
 11 Hg    0.06555   -0.02849    0.12920
 12 Hg   -0.02504    0.00056   -0.07683
 13 Hg    0.01225   -0.01637    0.01884
 14 Hg    0.00000   -0.00449    0.03106
 15 Hg   -0.05108    0.03504   -0.01177
 16 Hg    0.00000   -0.00169   -0.06885
 17 Hg    0.01433    0.01414    0.04468
 18 Hg   -0.00921   -0.00836    0.02802
 19 Hg   -0.00000    0.04287    0.15248
 20 Hg   -0.01182    0.02226   -0.07149
 21 Hg    0.00000   -0.01266    0.02482
 22 Hg    0.02723    0.00186    0.04853
 23 Hg   -0.06555   -0.02849    0.12920
 24 Hg    0.02504    0.00056   -0.07683
 25 Hg   -0.00000    0.00254    0.04709
 26 Hg   -0.02578   -0.02162    0.06989
 27 Hg    0.05108    0.03504   -0.01177
 28 Hg    0.01297   -0.02284   -0.07206
 29 Hg   -0.01433    0.01414    0.04468
 30 Hg   -0.00000    0.04909    0.07635
 31 Hg    0.00944   -0.02096    0.00686
 32 Hg    0.00000   -0.00006   -0.07451
 33 Hg   -0.01064   -0.00248    0.02325
 34 Hg   -0.02723    0.00186    0.04853
 35 Hg    0.00000   -0.05059   -0.04335
 36 C     0.00000   -0.00574   -0.61631

      Step     Time          Energy         fmax
BFGS:    0 02:04:55   -12233.072362        0.6163
System changes: positions 

Initializing position-dependent things.

Density initialized from wave functions
                                                              
                                                              
                                                              
                                                              
                                       C                      
                                   Hg       Hg       Hg       
                                                              
                             Hg       Hg       Hg             
                                                              
                      Hg       Hg       Hg                    
                         Hg       Hg       Hg                 
                                                              
                   Hg      Hg       Hg                        
                              Hg       Hg       Hg            
            Hg       Hg       Hg                              
                        Hg       Hg      Hg                   
                                                              
                 Hg       Hg       Hg                         
                    Hg       Hg       Hg                      
             Hg       Hg       Hg                             
                                                              
       Hg       Hg       Hg                                   
                                                              
                                                              
                                                              
                                                              

Positions:
   0 Hg     0.000000    0.000000   10.000000    ( 0.0000,  0.0000,  0.0000)
   1 Hg     3.603292    2.080362   12.942076    ( 0.0000,  0.0000,  0.0000)
   2 Hg     1.809382    1.044125   15.887302    ( 0.0000,  0.0000,  0.0000)
   3 Hg     5.404939    3.120835   18.930891    ( 0.0000,  0.0000,  0.0000)
   4 Hg     1.801646    3.120543   10.000000    ( 0.0000,  0.0000,  0.0000)
   5 Hg     5.404939    5.200905   12.942076    ( 0.0000,  0.0000,  0.0000)
   6 Hg     3.616945    4.152798   15.867115    ( 0.0000,  0.0000,  0.0000)
   7 Hg     7.191231    6.267270   18.939024    ( 0.0000,  0.0000,  0.0000)
   8 Hg     3.603292    6.241086   10.000000    ( 0.0000,  0.0000,  0.0000)
   9 Hg     7.206585    8.321447   12.942076    ( 0.0000,  0.0000,  0.0000)
  10 Hg     5.404939    7.272939   15.886902    ( 0.0000,  0.0000,  0.0000)
  11 Hg     8.978623    9.361159   18.940772    ( 0.0000,  0.0000,  0.0000)
  12 Hg     3.603292    0.000000   10.000000    ( 0.0000,  0.0000,  0.0000)
  13 Hg     7.206585    2.080362   12.942076    ( 0.0000,  0.0000,  0.0000)
  14 Hg     5.404939    1.055729   15.867159    ( 0.0000,  0.0000,  0.0000)
  15 Hg     9.022828    3.094622   18.938758    ( 0.0000,  0.0000,  0.0000)
  16 Hg     5.404939    3.120543   10.000000    ( 0.0000,  0.0000,  0.0000)
  17 Hg     9.008231    5.200905   12.942076    ( 0.0000,  0.0000,  0.0000)
  18 Hg     7.192932    4.152798   15.867115    ( 0.0000,  0.0000,  0.0000)
  19 Hg    10.809877    6.241698   18.931860    ( 0.0000,  0.0000,  0.0000)
  20 Hg     7.206585    6.241086   10.000000    ( 0.0000,  0.0000,  0.0000)
  21 Hg    10.809877    8.321447   12.942076    ( 0.0000,  0.0000,  0.0000)
  22 Hg     8.994798    7.289273   15.879837    ( 0.0000,  0.0000,  0.0000)
  23 Hg    12.641132    9.361159   18.940772    ( 0.0000,  0.0000,  0.0000)
  24 Hg     7.206585    0.000000   10.000000    ( 0.0000,  0.0000,  0.0000)
  25 Hg    10.809877    2.080362   12.942076    ( 0.0000,  0.0000,  0.0000)
  26 Hg     9.000496    1.044125   15.887302    ( 0.0000,  0.0000,  0.0000)
  27 Hg    12.596927    3.094622   18.938758    ( 0.0000,  0.0000,  0.0000)
  28 Hg     9.008231    3.120543   10.000000    ( 0.0000,  0.0000,  0.0000)
  29 Hg    12.611524    5.200905   12.942076    ( 0.0000,  0.0000,  0.0000)
  30 Hg    10.809877    4.145464   15.880234    ( 0.0000,  0.0000,  0.0000)
  31 Hg    14.428523    6.267270   18.939024    ( 0.0000,  0.0000,  0.0000)
  32 Hg    10.809877    6.241086   10.000000    ( 0.0000,  0.0000,  0.0000)
  33 Hg    14.413170    8.321447   12.942076    ( 0.0000,  0.0000,  0.0000)
  34 Hg    12.624957    7.289273   15.879837    ( 0.0000,  0.0000,  0.0000)
  35 Hg    16.214816    9.360906   18.939906    ( 0.0000,  0.0000,  0.0000)
  36 C     10.809877    8.330215   19.965483    ( 0.0000,  0.0000,  0.0000)

Unit cell:
           periodic     x           y           z      points  spacing
  1. axis:    yes   10.809877    0.000000    0.000000    52     0.1800
  2. axis:    yes    5.404939    9.361628    0.000000    52     0.1800
  3. axis:    no     0.000000    0.000000   28.826228   160     0.1802

  Lengths:  10.809877  10.809877  28.826228
  Angles:   90.000000  90.000000  60.000000

Effective grid spacing dv^(1/3) = 0.1889

     iter     time        total  log10-change:
                         energy  eigst   dens
iter:   1 02:06:47 -12233.082852  -3.82
iter:   2 02:07:50 -12233.080466  -4.70  -3.52
iter:   3 02:08:52 -12233.080243c -5.29  -3.94
iter:   4 02:09:55 -12233.080112c -5.63  -4.21c
iter:   5 02:10:57 -12233.080107c -5.87  -4.45c
iter:   6 02:12:00 -12233.080082c -6.66  -4.44c
iter:   7 02:13:02 -12233.080082c -6.67  -4.71c
iter:   8 02:14:04 -12233.080103c -7.21  -4.82c
iter:   9 02:15:07 -12233.080104c -7.74c -4.98c

Converged after 9 iterations.

Dipole moment: (-19.726038, -10.858151, -0.130079) |e|*Ang

Energy contributions relative to reference atoms: (reference = -19194635.662305)

Kinetic:       +2018.233925
Potential:     -1801.845185
External:        +0.000000
XC:            -12362.051931
Entropy (-ST):   -0.269174
Local:          -87.282326
--------------------------
Free energy:   -12233.214691
Extrapolated:  -12233.080104

Showing only first 2 kpts
 Kpt  Band  Eigenvalues  Occupancy
  0   324     -5.31664    1.99931
  0   325     -4.68801    1.68879
  0   326     -4.50818    0.94652
  0   327     -4.28852    0.18165

  1   324     -5.29159    1.99912
  1   325     -4.42880    0.57777
  1   326     -4.28882    0.18214
  1   327     -4.15044    0.04899


Fermi level: -4.51888

No gap

Forces in eV/Ang:
  0 Hg   -0.00000    0.00095   -0.07868
  1 Hg   -0.01241   -0.01597    0.01532
  2 Hg    0.02830   -0.02222    0.06646
  3 Hg   -0.00000    0.01812    0.04162
  4 Hg   -0.01275   -0.02271   -0.07794
  5 Hg   -0.00000    0.01996    0.00591
  6 Hg    0.01076   -0.00667    0.02622
  7 Hg   -0.00686   -0.01956    0.00430
  8 Hg    0.01076    0.02286   -0.07715
  9 Hg    0.01023   -0.00262    0.01971
 10 Hg   -0.00000    0.00892    0.03960
 11 Hg    0.04773   -0.01719    0.11621
 12 Hg   -0.02373   -0.00020   -0.08216
 13 Hg    0.01241   -0.01597    0.01532
 14 Hg    0.00000   -0.00538    0.03363
 15 Hg   -0.05286    0.03640   -0.01068
 16 Hg    0.00000   -0.00291   -0.07453
 17 Hg    0.01389    0.01379    0.04116
 18 Hg   -0.01076   -0.00667    0.02622
 19 Hg   -0.00000    0.02009    0.13669
 20 Hg   -0.01076    0.02286   -0.07715
 21 Hg    0.00000   -0.01251    0.01889
 22 Hg    0.02659    0.00225    0.05107
 23 Hg   -0.04773   -0.01719    0.11621
 24 Hg    0.02373   -0.00020   -0.08216
 25 Hg   -0.00000    0.00256    0.04373
 26 Hg   -0.02830   -0.02222    0.06646
 27 Hg    0.05286    0.03640   -0.01068
 28 Hg    0.01275   -0.02271   -0.07794
 29 Hg   -0.01389    0.01379    0.04116
 30 Hg   -0.00000    0.04946    0.07295
 31 Hg    0.00686   -0.01956    0.00430
 32 Hg   -0.00000    0.00148   -0.07987
 33 Hg   -0.01023   -0.00262    0.01971
 34 Hg   -0.02659    0.00225    0.05107
 35 Hg    0.00000   -0.05134   -0.04067
 36 C     0.00000   -0.00528   -0.60408

BFGS:    1 02:15:24   -12233.080104        0.6041
System changes: positions 

Initializing position-dependent things.

Density initialized from wave functions
                                                              
                                                              
                                                              
                                                              
                                       C                      
                                   Hg       Hg       Hg       
                                                              
                             Hg       Hg       Hg             
                      Hg       Hg       Hg                    
                                                              
                         Hg       Hg       Hg                 
                                                              
                   Hg      Hg       Hg                        
            Hg       Hg       Hg       Hg       Hg            
                                                              
                        Hg       Hg      Hg                   
                 Hg       Hg       Hg                         
                                                              
                    Hg       Hg       Hg                      
             Hg       Hg       Hg                             
                                                              
       Hg       Hg       Hg                                   
                                                              
                                                              
                                                              
                                                              

Positions:
   0 Hg     0.000000    0.000000   10.000000    ( 0.0000,  0.0000,  0.0000)
   1 Hg     3.603292    2.080362   12.942076    ( 0.0000,  0.0000,  0.0000)
   2 Hg     1.818665    1.036798   15.909365    ( 0.0000,  0.0000,  0.0000)
   3 Hg     5.404939    3.126889   18.944765    ( 0.0000,  0.0000,  0.0000)
   4 Hg     1.801646    3.120543   10.000000    ( 0.0000,  0.0000,  0.0000)
   5 Hg     5.404939    5.200905   12.942076    ( 0.0000,  0.0000,  0.0000)
   6 Hg     3.620456    4.150545   15.875831    ( 0.0000,  0.0000,  0.0000)
   7 Hg     7.188892    6.260765   18.940517    ( 0.0000,  0.0000,  0.0000)
   8 Hg     3.603292    6.241086   10.000000    ( 0.0000,  0.0000,  0.0000)
   9 Hg     7.206585    8.321447   12.942076    ( 0.0000,  0.0000,  0.0000)
  10 Hg     5.404939    7.275989   15.900054    ( 0.0000,  0.0000,  0.0000)
  11 Hg     8.994899    9.355160   18.979546    ( 0.0000,  0.0000,  0.0000)
  12 Hg     3.603292    0.000000   10.000000    ( 0.0000,  0.0000,  0.0000)
  13 Hg     7.206585    2.080362   12.942076    ( 0.0000,  0.0000,  0.0000)
  14 Hg     5.404939    1.053977   15.878201    ( 0.0000,  0.0000,  0.0000)
  15 Hg     9.005408    3.106613   18.935197    ( 0.0000,  0.0000,  0.0000)
  16 Hg     5.404939    3.120543   10.000000    ( 0.0000,  0.0000,  0.0000)
  17 Hg     9.008231    5.200905   12.942076    ( 0.0000,  0.0000,  0.0000)
  18 Hg     7.189421    4.150545   15.875831    ( 0.0000,  0.0000,  0.0000)
  19 Hg    10.809877    6.248980   18.977481    ( 0.0000,  0.0000,  0.0000)
  20 Hg     7.206585    6.241086   10.000000    ( 0.0000,  0.0000,  0.0000)
  21 Hg    10.809877    8.321447   12.942076    ( 0.0000,  0.0000,  0.0000)
  22 Hg     9.003603    7.290005   15.896645    ( 0.0000,  0.0000,  0.0000)
  23 Hg    12.624856    9.355160   18.979546    ( 0.0000,  0.0000,  0.0000)
  24 Hg     7.206585    0.000000   10.000000    ( 0.0000,  0.0000,  0.0000)
  25 Hg    10.809877    2.080362   12.942076    ( 0.0000,  0.0000,  0.0000)
  26 Hg     8.991212    1.036798   15.909365    ( 0.0000,  0.0000,  0.0000)
  27 Hg    12.614346    3.106613   18.935197    ( 0.0000,  0.0000,  0.0000)
  28 Hg     9.008231    3.120543   10.000000    ( 0.0000,  0.0000,  0.0000)
  29 Hg    12.611524    5.200905   12.942076    ( 0.0000,  0.0000,  0.0000)
  30 Hg    10.809877    4.161800   15.904440    ( 0.0000,  0.0000,  0.0000)
  31 Hg    14.430863    6.260765   18.940517    ( 0.0000,  0.0000,  0.0000)
  32 Hg    10.809877    6.241086   10.000000    ( 0.0000,  0.0000,  0.0000)
  33 Hg    14.413170    8.321447   12.942076    ( 0.0000,  0.0000,  0.0000)
  34 Hg    12.616151    7.290005   15.896645    ( 0.0000,  0.0000,  0.0000)
  35 Hg    16.214816    9.343959   18.926389    ( 0.0000,  0.0000,  0.0000)
  36 C     10.809877    8.328457   19.765491    ( 0.0000,  0.0000,  0.0000)

Unit cell:
           periodic     x           y           z      points  spacing
  1. axis:    yes   10.809877    0.000000    0.000000    52     0.1800
  2. axis:    yes    5.404939    9.361628    0.000000    52     0.1800
  3. axis:    no     0.000000    0.000000   28.826228   160     0.1802

  Lengths:  10.809877  10.809877  28.826228
  Angles:   90.000000  90.000000  60.000000

Effective grid spacing dv^(1/3) = 0.1889

     iter     time        total  log10-change:
                         energy  eigst   dens
iter:   1 02:17:16 -12234.505219  -1.23
iter:   2 02:18:18 -12233.299146  -2.07  -2.19
iter:   3 02:19:21 -12233.224099  -2.70  -2.72
iter:   4 02:20:23 -12233.193196c -3.25  -2.87
iter:   5 02:21:25 -12233.177165c -3.11  -3.04
iter:   6 02:22:28 -12233.173669c -3.99  -3.15
iter:   7 02:23:30 -12233.174325c -4.11  -3.39
iter:   8 02:24:32 -12233.173083c -4.65  -3.48
iter:   9 02:25:35 -12233.172826c -4.87  -3.74
iter:  10 02:26:37 -12233.172678c -5.42  -3.78
iter:  11 02:27:39 -12233.172508c -5.25  -3.84
iter:  12 02:28:42 -12233.172530c -6.02  -4.13c
iter:  13 02:29:44 -12233.172525c -6.08  -4.21c
iter:  14 02:30:46 -12233.172511c -6.51  -4.41c
iter:  15 02:31:48 -12233.172506c -6.53  -4.47c
iter:  16 02:32:51 -12233.172523c -7.11  -4.59c
iter:  17 02:33:53 -12233.172551c -7.14  -4.66c
iter:  18 02:34:55 -12233.172554c -7.71c -4.81c

Converged after 18 iterations.

Dipole moment: (-20.262015, -9.529237, -0.106497) |e|*Ang

Energy contributions relative to reference atoms: (reference = -19194635.662305)

Kinetic:       +2020.717006
Potential:     -1803.764828
External:        +0.000000
XC:            -12362.749554
Entropy (-ST):   -0.235276
Local:          -87.257541
--------------------------
Free energy:   -12233.290192
Extrapolated:  -12233.172554

Showing only first 2 kpts
 Kpt  Band  Eigenvalues  Occupancy
  0   324     -5.28936    1.99901
  0   325     -4.72129    1.74658
  0   326     -4.49444    0.83255
  0   327     -4.24820    0.11459

  1   324     -5.28077    1.99892
  1   325     -4.50569    0.88767
  1   326     -4.22993    0.09639
  1   327     -4.05491    0.01744


Fermi level: -4.52825

No gap

Forces in eV/Ang:
  0 Hg   -0.00000    0.00140   -0.07971
  1 Hg   -0.01584   -0.01939    0.02369
  2 Hg    0.02273   -0.00920    0.05711
  3 Hg   -0.00000    0.02863    0.04390
  4 Hg   -0.01316   -0.02288   -0.07878
  5 Hg   -0.00000    0.02208    0.01292
  6 Hg   -0.00200   -0.00289    0.00241
  7 Hg   -0.01444   -0.02511    0.02562
  8 Hg    0.01079    0.02275   -0.07781
  9 Hg    0.01210   -0.00027    0.02980
 10 Hg    0.00000   -0.00013    0.02317
 11 Hg   -0.28095    0.17917   -0.01307
 12 Hg   -0.02286   -0.00069   -0.08381
 13 Hg    0.01584   -0.01939    0.02369
 14 Hg    0.00000   -0.00820   -0.00800
 15 Hg   -0.04321    0.04212    0.02723
 16 Hg    0.00000   -0.00283   -0.07554
 17 Hg    0.01687    0.01365    0.05052
 18 Hg    0.00200   -0.00289    0.00241
 19 Hg    0.00000   -0.37831   -0.06573
 20 Hg   -0.01079    0.02275   -0.07781
 21 Hg    0.00000   -0.01262    0.02321
 22 Hg    0.00814    0.00070    0.00471
 23 Hg    0.28095    0.17917   -0.01307
 24 Hg    0.02286   -0.00069   -0.08381
 25 Hg   -0.00000    0.00332    0.05431
 26 Hg   -0.02273   -0.00920    0.05711
 27 Hg    0.04321    0.04212    0.02723
 28 Hg    0.01316   -0.02288   -0.07878
 29 Hg   -0.01687    0.01365    0.05052
 30 Hg   -0.00000    0.01811    0.04545
 31 Hg    0.01444   -0.02511    0.02562
 32 Hg   -0.00000    0.00249   -0.08123
 33 Hg   -0.01210   -0.00027    0.02980
 34 Hg   -0.00814    0.00070    0.00471
 35 Hg    0.00000   -0.00456    0.01267
 36 C    -0.00000    0.01260   -0.00669

BFGS:    2 02:35:13   -12233.172554        0.3840
System changes: positions 

Initializing position-dependent things.

Density initialized from wave functions
                                                              
                                                              
                                                              
                                                              
                                       C                      
                                   Hg       Hg       Hg       
                                                              
                             Hg       Hg       Hg             
                      Hg       Hg       Hg                    
                                                              
                         Hg       Hg       Hg                 
                                                              
                   Hg      Hg       Hg                        
            Hg       Hg       Hg       Hg       Hg            
                                                              
                        Hg       Hg      Hg                   
                 Hg       Hg       Hg                         
                                                              
                    Hg       Hg       Hg                      
             Hg       Hg       Hg                             
                                                              
       Hg       Hg       Hg                                   
                                                              
                                                              
                                                              
                                                              

Positions:
   0 Hg     0.000000    0.000000   10.000000    ( 0.0000,  0.0000,  0.0000)
   1 Hg     3.603292    2.080362   12.942076    ( 0.0000,  0.0000,  0.0000)
   2 Hg     1.818756    1.036824   15.909763    ( 0.0000,  0.0000,  0.0000)
   3 Hg     5.404939    3.127195   18.945155    ( 0.0000,  0.0000,  0.0000)
   4 Hg     1.801646    3.120543   10.000000    ( 0.0000,  0.0000,  0.0000)
   5 Hg     5.404939    5.200905   12.942076    ( 0.0000,  0.0000,  0.0000)
   6 Hg     3.620338    4.150524   15.875722    ( 0.0000,  0.0000,  0.0000)
   7 Hg     7.188703    6.260530   18.940873    ( 0.0000,  0.0000,  0.0000)
   8 Hg     3.603292    6.241086   10.000000    ( 0.0000,  0.0000,  0.0000)
   9 Hg     7.206585    8.321447   12.942076    ( 0.0000,  0.0000,  0.0000)
  10 Hg     5.404939    7.275982   15.900147    ( 0.0000,  0.0000,  0.0000)
  11 Hg     8.991041    9.357536   18.978812    ( 0.0000,  0.0000,  0.0000)
  12 Hg     3.603292    0.000000   10.000000    ( 0.0000,  0.0000,  0.0000)
  13 Hg     7.206585    2.080362   12.942076    ( 0.0000,  0.0000,  0.0000)
  14 Hg     5.404939    1.053913   15.877841    ( 0.0000,  0.0000,  0.0000)
  15 Hg     9.005186    3.106931   18.935619    ( 0.0000,  0.0000,  0.0000)
  16 Hg     5.404939    3.120543   10.000000    ( 0.0000,  0.0000,  0.0000)
  17 Hg     9.008231    5.200905   12.942076    ( 0.0000,  0.0000,  0.0000)
  18 Hg     7.189539    4.150524   15.875722    ( 0.0000,  0.0000,  0.0000)
  19 Hg    10.809877    6.244050   18.975943    ( 0.0000,  0.0000,  0.0000)
  20 Hg     7.206585    6.241086   10.000000    ( 0.0000,  0.0000,  0.0000)
  21 Hg    10.809877    8.321447   12.942076    ( 0.0000,  0.0000,  0.0000)
  22 Hg     9.003553    7.289995   15.896346    ( 0.0000,  0.0000,  0.0000)
  23 Hg    12.628714    9.357536   18.978812    ( 0.0000,  0.0000,  0.0000)
  24 Hg     7.206585    0.000000   10.000000    ( 0.0000,  0.0000,  0.0000)
  25 Hg    10.809877    2.080362   12.942076    ( 0.0000,  0.0000,  0.0000)
  26 Hg     8.991122    1.036824   15.909763    ( 0.0000,  0.0000,  0.0000)
  27 Hg    12.614568    3.106931   18.935619    ( 0.0000,  0.0000,  0.0000)
  28 Hg     9.008231    3.120543   10.000000    ( 0.0000,  0.0000,  0.0000)
  29 Hg    12.611524    5.200905   12.942076    ( 0.0000,  0.0000,  0.0000)
  30 Hg    10.809877    4.161724   15.904638    ( 0.0000,  0.0000,  0.0000)
  31 Hg    14.431052    6.260530   18.940873    ( 0.0000,  0.0000,  0.0000)
  32 Hg    10.809877    6.241086   10.000000    ( 0.0000,  0.0000,  0.0000)
  33 Hg    14.413170    8.321447   12.942076    ( 0.0000,  0.0000,  0.0000)
  34 Hg    12.616202    7.289995   15.896346    ( 0.0000,  0.0000,  0.0000)
  35 Hg    16.214816    9.344236   18.926782    ( 0.0000,  0.0000,  0.0000)
  36 C     10.809877    8.328655   19.769089    ( 0.0000,  0.0000,  0.0000)

Unit cell:
           periodic     x           y           z      points  spacing
  1. axis:    yes   10.809877    0.000000    0.000000    52     0.1800
  2. axis:    yes    5.404939    9.361628    0.000000    52     0.1800
  3. axis:    no     0.000000    0.000000   28.826228   160     0.1802

  Lengths:  10.809877  10.809877  28.826228
  Angles:   90.000000  90.000000  60.000000

Effective grid spacing dv^(1/3) = 0.1889

     iter     time        total  log10-change:
                         energy  eigst   dens
iter:   1 02:37:05 -12233.180946  -3.43
iter:   2 02:38:08 -12233.178122  -4.27  -3.61
iter:   3 02:39:10 -12233.177131c -4.88  -3.93
iter:   4 02:40:13 -12233.177231c -5.57  -4.18c
iter:   5 02:41:15 -12233.177151c -5.94  -4.39c
iter:   6 02:42:18 -12233.177069c -6.43  -4.39c
iter:   7 02:43:20 -12233.177074c -6.55  -4.66c
iter:   8 02:44:23 -12233.177061c -7.00  -4.77c
iter:   9 02:45:25 -12233.177060c -7.32  -4.94c
iter:  10 02:46:27 -12233.177067c -7.93c -4.94c

Converged after 10 iterations.

Dipole moment: (-20.433818, -9.806491, -0.106620) |e|*Ang

Energy contributions relative to reference atoms: (reference = -19194635.662305)

Kinetic:       +2020.432984
Potential:     -1803.534868
External:        +0.000000
XC:            -12362.696836
Entropy (-ST):   -0.235921
Local:          -87.260386
--------------------------
Free energy:   -12233.295028
Extrapolated:  -12233.177067

Showing only first 2 kpts
 Kpt  Band  Eigenvalues  Occupancy
  0   324     -5.28926    1.99901
  0   325     -4.72071    1.74531
  0   326     -4.49556    0.83806
  0   327     -4.24817    0.11457

  1   324     -5.28072    1.99892
  1   325     -4.50383    0.87854
  1   326     -4.23209    0.09839
  1   327     -4.05636    0.01769


Fermi level: -4.52824

No gap

Forces in eV/Ang:
  0 Hg   -0.00000    0.00087   -0.07882
  1 Hg   -0.01518   -0.01864    0.02041
  2 Hg    0.02123   -0.00800    0.05635
  3 Hg   -0.00000    0.02724    0.04353
  4 Hg   -0.01267   -0.02252   -0.07770
  5 Hg   -0.00000    0.02150    0.01065
  6 Hg   -0.00064   -0.00258    0.00308
  7 Hg   -0.01309   -0.02593    0.02552
  8 Hg    0.01040    0.02287   -0.07646
  9 Hg    0.01197   -0.00082    0.02641
 10 Hg    0.00000   -0.00139    0.02297
 11 Hg   -0.23603    0.15584    0.00106
 12 Hg   -0.02199   -0.00116   -0.08232
 13 Hg    0.01518   -0.01864    0.02041
 14 Hg    0.00000   -0.00843   -0.00168
 15 Hg   -0.04646    0.04380    0.02577
 16 Hg    0.00000   -0.00322   -0.07391
 17 Hg    0.01639    0.01368    0.04736
 18 Hg    0.00064   -0.00258    0.00308
 19 Hg    0.00000   -0.32725   -0.04780
 20 Hg   -0.01040    0.02287   -0.07646
 21 Hg    0.00000   -0.01271    0.01766
 22 Hg    0.00994    0.00091    0.01085
 23 Hg    0.23603    0.15584    0.00106
 24 Hg    0.02199   -0.00116   -0.08232
 25 Hg   -0.00000    0.00354    0.05419
 26 Hg   -0.02123   -0.00800    0.05635
 27 Hg    0.04646    0.04380    0.02577
 28 Hg    0.01267   -0.02252   -0.07770
 29 Hg   -0.01639    0.01368    0.04736
 30 Hg   -0.00000    0.01680    0.04485
 31 Hg    0.01309   -0.02593    0.02552
 32 Hg   -0.00000    0.00340   -0.07961
 33 Hg   -0.01197   -0.00082    0.02641
 34 Hg   -0.00994    0.00091    0.01085
 35 Hg    0.00000   -0.00768    0.00934
 36 C    -0.00000    0.01090   -0.04386

BFGS:    3 02:46:45   -12233.177067        0.3307
System changes: positions 

Initializing position-dependent things.

Density initialized from wave functions
                                                              
                                                              
                                                              
                                                              
                                       C                      
                                   Hg       Hg       Hg       
                                      Hg                      
                             Hg                Hg             
                      Hg       Hg       Hg                    
                                                              
                         Hg       Hg       Hg                 
                                                              
                   Hg      Hg       Hg                        
            Hg       Hg       Hg       Hg       Hg            
                                                              
                        Hg       Hg      Hg                   
                 Hg       Hg       Hg                         
                                                              
                    Hg       Hg       Hg                      
             Hg       Hg       Hg                             
                                                              
       Hg       Hg       Hg                                   
                                                              
                                                              
                                                              
                                                              

Positions:
   0 Hg     0.000000    0.000000   10.000000    ( 0.0000,  0.0000,  0.0000)
   1 Hg     3.603292    2.080362   12.942076    ( 0.0000,  0.0000,  0.0000)
   2 Hg     1.823411    1.034237   15.922947    ( 0.0000,  0.0000,  0.0000)
   3 Hg     5.404939    3.132857   18.954963    ( 0.0000,  0.0000,  0.0000)
   4 Hg     1.801646    3.120543   10.000000    ( 0.0000,  0.0000,  0.0000)
   5 Hg     5.404939    5.200905   12.942076    ( 0.0000,  0.0000,  0.0000)
   6 Hg     3.620593    4.149432   15.878084    ( 0.0000,  0.0000,  0.0000)
   7 Hg     7.185827    6.255270   18.945347    ( 0.0000,  0.0000,  0.0000)
   8 Hg     3.603292    6.241086   10.000000    ( 0.0000,  0.0000,  0.0000)
   9 Hg     7.206585    8.321447   12.942076    ( 0.0000,  0.0000,  0.0000)
  10 Hg     5.404939    7.276999   15.906446    ( 0.0000,  0.0000,  0.0000)
  11 Hg     8.958824    9.379372   18.987457    ( 0.0000,  0.0000,  0.0000)
  12 Hg     3.603292    0.000000   10.000000    ( 0.0000,  0.0000,  0.0000)
  13 Hg     7.206585    2.080362   12.942076    ( 0.0000,  0.0000,  0.0000)
  14 Hg     5.404939    1.052474   15.878905    ( 0.0000,  0.0000,  0.0000)
  15 Hg     8.995420    3.115427   18.938693    ( 0.0000,  0.0000,  0.0000)
  16 Hg     5.404939    3.120543   10.000000    ( 0.0000,  0.0000,  0.0000)
  17 Hg     9.008231    5.200905   12.942076    ( 0.0000,  0.0000,  0.0000)
  18 Hg     7.189284    4.149432   15.878084    ( 0.0000,  0.0000,  0.0000)
  19 Hg    10.809877    6.196896   18.978820    ( 0.0000,  0.0000,  0.0000)
  20 Hg     7.206585    6.241086   10.000000    ( 0.0000,  0.0000,  0.0000)
  21 Hg    10.809877    8.321447   12.942076    ( 0.0000,  0.0000,  0.0000)
  22 Hg     9.006702    7.290199   15.900397    ( 0.0000,  0.0000,  0.0000)
  23 Hg    12.660930    9.379372   18.987457    ( 0.0000,  0.0000,  0.0000)
  24 Hg     7.206585    0.000000   10.000000    ( 0.0000,  0.0000,  0.0000)
  25 Hg    10.809877    2.080362   12.942076    ( 0.0000,  0.0000,  0.0000)
  26 Hg     8.986466    1.034237   15.922947    ( 0.0000,  0.0000,  0.0000)
  27 Hg    12.624335    3.115427   18.938693    ( 0.0000,  0.0000,  0.0000)
  28 Hg     9.008231    3.120543   10.000000    ( 0.0000,  0.0000,  0.0000)
  29 Hg    12.611524    5.200905   12.942076    ( 0.0000,  0.0000,  0.0000)
  30 Hg    10.809877    4.167392   15.916512    ( 0.0000,  0.0000,  0.0000)
  31 Hg    14.433928    6.255270   18.945347    ( 0.0000,  0.0000,  0.0000)
  32 Hg    10.809877    6.241086   10.000000    ( 0.0000,  0.0000,  0.0000)
  33 Hg    14.413170    8.321447   12.942076    ( 0.0000,  0.0000,  0.0000)
  34 Hg    12.613053    7.290199   15.900397    ( 0.0000,  0.0000,  0.0000)
  35 Hg    16.214816    9.340157   18.925384    ( 0.0000,  0.0000,  0.0000)
  36 C     10.809877    8.329979   19.724724    ( 0.0000,  0.0000,  0.0000)

Unit cell:
           periodic     x           y           z      points  spacing
  1. axis:    yes   10.809877    0.000000    0.000000    52     0.1800
  2. axis:    yes    5.404939    9.361628    0.000000    52     0.1800
  3. axis:    no     0.000000    0.000000   28.826228   160     0.1802

  Lengths:  10.809877  10.809877  28.826228
  Angles:   90.000000  90.000000  60.000000

Effective grid spacing dv^(1/3) = 0.1889

     iter     time        total  log10-change:
                         energy  eigst   dens
iter:   1 02:48:37 -12233.236850  -1.51
iter:   2 02:49:39 -12233.231195  -2.34  -2.92
iter:   3 02:50:42 -12233.218344c -2.97  -3.05
iter:   4 02:51:44 -12233.218175c -3.68  -3.39
iter:   5 02:52:47 -12233.218251c -4.33  -3.47
iter:   6 02:53:49 -12233.218714c -4.59  -3.49
iter:   7 02:54:52 -12233.218650c -4.61  -3.61
iter:   8 02:55:54 -12233.218453c -5.42  -3.81
iter:   9 02:56:56 -12233.218375c -5.47  -3.94
iter:  10 02:57:59 -12233.218502c -5.80  -4.11c
iter:  11 02:59:01 -12233.218528c -5.80  -4.29c
iter:  12 03:00:04 -12233.218514c -6.34  -4.37c
iter:  13 03:01:06 -12233.218517c -6.71  -4.44c
iter:  14 03:02:08 -12233.218523c -6.64  -4.53c
iter:  15 03:03:11 -12233.218519c -6.94  -4.83c
iter:  16 03:04:13 -12233.218515c -7.46c -4.83c

Converged after 16 iterations.

Dipole moment: (-22.404937, -12.064898, -0.100262) |e|*Ang

Energy contributions relative to reference atoms: (reference = -19194635.662305)

Kinetic:       +2019.465283
Potential:     -1802.790315
External:        +0.000000
XC:            -12362.512294
Entropy (-ST):   -0.228599
Local:          -87.266890
--------------------------
Free energy:   -12233.332814
Extrapolated:  -12233.218515

Showing only first 2 kpts
 Kpt  Band  Eigenvalues  Occupancy
  0   324     -5.26975    1.99868
  0   325     -4.73181    1.74932
  0   326     -4.50101    0.81941
  0   327     -4.23481    0.09242

  1   324     -5.27775    1.99878
  1   325     -4.52550    0.93990
  1   326     -4.23153    0.08957
  1   327     -4.03783    0.01343


Fermi level: -4.53753

No gap

Forces in eV/Ang:
  0 Hg   -0.00000    0.00120   -0.08317
  1 Hg   -0.01900   -0.01903    0.02466
  2 Hg    0.02288   -0.00464    0.05261
  3 Hg   -0.00000    0.02173    0.03610
  4 Hg   -0.01303   -0.02259   -0.08213
  5 Hg   -0.00000    0.02220    0.01671
  6 Hg   -0.00311    0.00016    0.00385
  7 Hg   -0.00483   -0.02601    0.03499
  8 Hg    0.01035    0.02284   -0.08133
  9 Hg    0.00997    0.00199    0.03207
 10 Hg    0.00000   -0.00611    0.02513
 11 Hg   -0.11202    0.10974    0.01954
 12 Hg   -0.02184   -0.00131   -0.08769
 13 Hg    0.01900   -0.01903    0.02466
 14 Hg    0.00000   -0.01475    0.00903
 15 Hg   -0.04867    0.04963    0.04162
 16 Hg    0.00000   -0.00321   -0.07898
 17 Hg    0.01780    0.01106    0.05159
 18 Hg    0.00311    0.00016    0.00385
 19 Hg    0.00000   -0.17322    0.01283
 20 Hg   -0.01035    0.02284   -0.08133
 21 Hg    0.00000   -0.01265    0.02111
 22 Hg    0.00966    0.00585    0.01833
 23 Hg    0.11202    0.10974    0.01954
 24 Hg    0.02184   -0.00131   -0.08769
 25 Hg   -0.00000    0.00298    0.06187
 26 Hg   -0.02288   -0.00464    0.05261
 27 Hg    0.04867    0.04963    0.04162
 28 Hg    0.01303   -0.02259   -0.08213
 29 Hg   -0.01780    0.01106    0.05159
 30 Hg   -0.00000    0.01323    0.03451
 31 Hg    0.00483   -0.02601    0.03499
 32 Hg   -0.00000    0.00355   -0.08481
 33 Hg   -0.00997    0.00199    0.03207
 34 Hg   -0.00966    0.00585    0.01833
 35 Hg    0.00000   -0.00369    0.02149
 36 C     0.00000   -0.02980   -0.15434

BFGS:    4 03:04:31   -12233.218515        0.1737
System changes: positions 

Initializing position-dependent things.

Density initialized from wave functions
                                                              
                                                              
                                                              
                                                              
                                   Hg  C    Hg                
                                                     Hg       
                             Hg      Hg        Hg             
                                                              
                      Hg       Hg       Hg                    
                                                              
                         Hg       Hg       Hg                 
                   Hg      Hg       Hg                        
                                                              
            Hg       Hg       Hg       Hg       Hg            
                                                              
                        Hg       Hg      Hg                   
                 Hg       Hg       Hg                         
                                                              
                    Hg       Hg       Hg                      
             Hg       Hg       Hg                             
                                                              
       Hg       Hg       Hg                                   
                                                              
                                                              
                                                              
                                                              

Positions:
   0 Hg     0.000000    0.000000   10.000000    ( 0.0000,  0.0000,  0.0000)
   1 Hg     3.603292    2.080362   12.942076    ( 0.0000,  0.0000,  0.0000)
   2 Hg     1.840864    1.024072   15.970490    ( 0.0000,  0.0000,  0.0000)
   3 Hg     5.404939    3.152151   18.989361    ( 0.0000,  0.0000,  0.0000)
   4 Hg     1.801646    3.120543   10.000000    ( 0.0000,  0.0000,  0.0000)
   5 Hg     5.404939    5.200905   12.942076    ( 0.0000,  0.0000,  0.0000)
   6 Hg     3.622256    4.145469   15.888006    ( 0.0000,  0.0000,  0.0000)
   7 Hg     7.176452    6.236970   18.960156    ( 0.0000,  0.0000,  0.0000)
   8 Hg     3.603292    6.241086   10.000000    ( 0.0000,  0.0000,  0.0000)
   9 Hg     7.206585    8.321447   12.942076    ( 0.0000,  0.0000,  0.0000)
  10 Hg     5.404939    7.280904   15.930079    ( 0.0000,  0.0000,  0.0000)
  11 Hg     8.865605    9.445261   19.025776    ( 0.0000,  0.0000,  0.0000)
  12 Hg     3.603292    0.000000   10.000000    ( 0.0000,  0.0000,  0.0000)
  13 Hg     7.206585    2.080362   12.942076    ( 0.0000,  0.0000,  0.0000)
  14 Hg     5.404939    1.047196   15.885613    ( 0.0000,  0.0000,  0.0000)
  15 Hg     8.959841    3.145676   18.948026    ( 0.0000,  0.0000,  0.0000)
  16 Hg     5.404939    3.120543   10.000000    ( 0.0000,  0.0000,  0.0000)
  17 Hg     9.008231    5.200905   12.942076    ( 0.0000,  0.0000,  0.0000)
  18 Hg     7.187621    4.145469   15.888006    ( 0.0000,  0.0000,  0.0000)
  19 Hg    10.809877    6.055245   19.002686    ( 0.0000,  0.0000,  0.0000)
  20 Hg     7.206585    6.241086   10.000000    ( 0.0000,  0.0000,  0.0000)
  21 Hg    10.809877    8.321447   12.942076    ( 0.0000,  0.0000,  0.0000)
  22 Hg     9.019015    7.291253   15.918005    ( 0.0000,  0.0000,  0.0000)
  23 Hg    12.754150    9.445261   19.025776    ( 0.0000,  0.0000,  0.0000)
  24 Hg     7.206585    0.000000   10.000000    ( 0.0000,  0.0000,  0.0000)
  25 Hg    10.809877    2.080362   12.942076    ( 0.0000,  0.0000,  0.0000)
  26 Hg     8.969014    1.024072   15.970490    ( 0.0000,  0.0000,  0.0000)
  27 Hg    12.659914    3.145676   18.948026    ( 0.0000,  0.0000,  0.0000)
  28 Hg     9.008231    3.120543   10.000000    ( 0.0000,  0.0000,  0.0000)
  29 Hg    12.611524    5.200905   12.942076    ( 0.0000,  0.0000,  0.0000)
  30 Hg    10.809877    4.189827   15.960297    ( 0.0000,  0.0000,  0.0000)
  31 Hg    14.443302    6.236970   18.960156    ( 0.0000,  0.0000,  0.0000)
  32 Hg    10.809877    6.241086   10.000000    ( 0.0000,  0.0000,  0.0000)
  33 Hg    14.413170    8.321447   12.942076    ( 0.0000,  0.0000,  0.0000)
  34 Hg    12.600740    7.291253   15.918005    ( 0.0000,  0.0000,  0.0000)
  35 Hg    16.214816    9.322761   18.917771    ( 0.0000,  0.0000,  0.0000)
  36 C     10.809877    8.331960   19.524734    ( 0.0000,  0.0000,  0.0000)

Unit cell:
           periodic     x           y           z      points  spacing
  1. axis:    yes   10.809877    0.000000    0.000000    52     0.1800
  2. axis:    yes    5.404939    9.361628    0.000000    52     0.1800
  3. axis:    no     0.000000    0.000000   28.826228   160     0.1802

  Lengths:  10.809877  10.809877  28.826228
  Angles:   90.000000  90.000000  60.000000

Effective grid spacing dv^(1/3) = 0.1889

     iter     time        total  log10-change:
                         energy  eigst   dens
iter:   1 03:06:23 -12233.428716  -0.58
iter:   2 03:07:25 -12233.386037  -1.40  -2.40
iter:   3 03:08:28 -12233.258660c -2.03  -2.54
iter:   4 03:09:30 -12233.258416c -2.77  -2.87
iter:   5 03:10:32 -12233.255553c -3.42  -2.94
iter:   6 03:11:35 -12233.255594c -3.60  -2.98
iter:   7 03:12:37 -12233.260637c -3.59  -3.23
iter:   8 03:13:39 -12233.257148c -4.20  -3.26
iter:   9 03:14:42 -12233.257424c -4.57  -3.49
iter:  10 03:15:44 -12233.257918c -4.78  -3.56
iter:  11 03:16:47 -12233.258349c -4.81  -3.80
iter:  12 03:17:49 -12233.258324c -5.29  -3.80
iter:  13 03:18:51 -12233.258295c -5.63  -3.87
iter:  14 03:19:54 -12233.258563c -5.43  -3.97
iter:  15 03:20:56 -12233.258527c -6.00  -4.26c
iter:  16 03:21:58 -12233.258532c -6.64  -4.26c
iter:  17 03:23:01 -12233.258560c -6.52  -4.33c
iter:  18 03:24:03 -12233.258546c -6.40  -4.48c
iter:  19 03:25:05 -12233.258537c -6.75  -4.48c
iter:  20 03:26:08 -12233.258497c -6.76  -4.59c
iter:  21 03:27:10 -12233.258465c -7.24  -4.77c
iter:  22 03:28:12 -12233.258468c -7.74c -4.97c

Converged after 22 iterations.

Dipole moment: (-28.354437, -18.180179, -0.058494) |e|*Ang

Energy contributions relative to reference atoms: (reference = -19194635.662305)

Kinetic:       +2017.895569
Potential:     -1801.601684
External:        +0.000000
XC:            -12362.160892
Entropy (-ST):   -0.209109
Local:          -87.286906
--------------------------
Free energy:   -12233.363023
Extrapolated:  -12233.258468

Showing only first 2 kpts
 Kpt  Band  Eigenvalues  Occupancy
  0   324     -5.17443    1.99477
  0   325     -4.75721    1.70914
  0   326     -4.51907    0.70391
  0   327     -4.19265    0.04068

  1   324     -5.24307    1.99736
  1   325     -4.63498    1.26763
  1   326     -4.22981    0.05845
  1   327     -3.97169    0.00455


Fermi level: -4.58012

No gap

Forces in eV/Ang:
  0 Hg    0.00000   -0.00033   -0.08279
  1 Hg   -0.02140   -0.02358    0.02331
  2 Hg   -0.00231    0.00387   -0.01372
  3 Hg   -0.00000    0.01672    0.03370
  4 Hg   -0.01145   -0.02192   -0.08121
  5 Hg   -0.00000    0.02499    0.01633
  6 Hg   -0.01504    0.01045   -0.00980
  7 Hg    0.02272    0.00182    0.05996
  8 Hg    0.00941    0.02337   -0.08016
  9 Hg    0.01294    0.00323    0.03473
 10 Hg    0.00000   -0.03395    0.00104
 11 Hg    0.16956   -0.07071    0.03735
 12 Hg   -0.01845   -0.00288   -0.08576
 13 Hg    0.02140   -0.02358    0.02331
 14 Hg    0.00000   -0.03481    0.02934
 15 Hg   -0.01151    0.01803    0.04760
 16 Hg    0.00000   -0.00462   -0.07744
 17 Hg    0.02063    0.01310    0.05240
 18 Hg    0.01504    0.01045   -0.00980
 19 Hg   -0.00000    0.31149    0.06458
 20 Hg   -0.00941    0.02337   -0.08016
 21 Hg    0.00000   -0.01332    0.02108
 22 Hg    0.01715    0.02555    0.01867
 23 Hg   -0.16956   -0.07071    0.03735
 24 Hg    0.01845   -0.00288   -0.08576
 25 Hg   -0.00000    0.00299    0.07270
 26 Hg    0.00231    0.00387   -0.01372
 27 Hg    0.01151    0.01803    0.04760
 28 Hg    0.01145   -0.02192   -0.08121
 29 Hg   -0.02063    0.01310    0.05240
 30 Hg    0.00000   -0.00946    0.03471
 31 Hg   -0.02272    0.00182    0.05996
 32 Hg   -0.00000    0.00746   -0.08261
 33 Hg   -0.01294    0.00323    0.03473
 34 Hg   -0.01715    0.02555    0.01867
 35 Hg   -0.00000    0.01819    0.07044
 36 C     0.00000   -0.13502   -0.15862

BFGS:    5 03:28:30   -12233.258468        0.3181
System changes: positions 

Initializing position-dependent things.

Density initialized from wave functions
                                                              
                                                              
                                                              
                                                              
                                   Hg  C    Hg                
                                                     Hg       
                             Hg       Hg       Hg             
                                                              
                      Hg       Hg       Hg                    
                                                              
                         Hg       Hg       Hg                 
                   Hg      Hg       Hg                        
                                                              
            Hg       Hg       Hg       Hg       Hg            
                                                              
                        Hg       Hg      Hg                   
                 Hg       Hg       Hg                         
                                                              
                    Hg       Hg       Hg                      
             Hg       Hg       Hg                             
                                                              
       Hg       Hg       Hg                                   
                                                              
                                                              
                                                              
                                                              

Positions:
   0 Hg     0.000000    0.000000   10.000000    ( 0.0000,  0.0000,  0.0000)
   1 Hg     3.603292    2.080362   12.942076    ( 0.0000,  0.0000,  0.0000)
   2 Hg     1.837298    1.025974   15.960274    ( 0.0000,  0.0000,  0.0000)
   3 Hg     5.404939    3.147958   18.982199    ( 0.0000,  0.0000,  0.0000)
   4 Hg     1.801646    3.120543   10.000000    ( 0.0000,  0.0000,  0.0000)
   5 Hg     5.404939    5.200905   12.942076    ( 0.0000,  0.0000,  0.0000)
   6 Hg     3.622009    4.146374   15.886201    ( 0.0000,  0.0000,  0.0000)
   7 Hg     7.178859    6.241090   18.957075    ( 0.0000,  0.0000,  0.0000)
   8 Hg     3.603292    6.241086   10.000000    ( 0.0000,  0.0000,  0.0000)
   9 Hg     7.206585    8.321447   12.942076    ( 0.0000,  0.0000,  0.0000)
  10 Hg     5.404939    7.279864   15.925297    ( 0.0000,  0.0000,  0.0000)
  11 Hg     8.892210    9.427342   19.019855    ( 0.0000,  0.0000,  0.0000)
  12 Hg     3.603292    0.000000   10.000000    ( 0.0000,  0.0000,  0.0000)
  13 Hg     7.206585    2.080362   12.942076    ( 0.0000,  0.0000,  0.0000)
  14 Hg     5.404939    1.048031   15.885187    ( 0.0000,  0.0000,  0.0000)
  15 Hg     8.967227    3.139213   18.945759    ( 0.0000,  0.0000,  0.0000)
  16 Hg     5.404939    3.120543   10.000000    ( 0.0000,  0.0000,  0.0000)
  17 Hg     9.008231    5.200905   12.942076    ( 0.0000,  0.0000,  0.0000)
  18 Hg     7.187869    4.146374   15.886201    ( 0.0000,  0.0000,  0.0000)
  19 Hg    10.809877    6.094804   19.001388    ( 0.0000,  0.0000,  0.0000)
  20 Hg     7.206585    6.241086   10.000000    ( 0.0000,  0.0000,  0.0000)
  21 Hg    10.809877    8.321447   12.942076    ( 0.0000,  0.0000,  0.0000)
  22 Hg     9.016861    7.291313   15.915235    ( 0.0000,  0.0000,  0.0000)
  23 Hg    12.727545    9.427342   19.019855    ( 0.0000,  0.0000,  0.0000)
  24 Hg     7.206585    0.000000   10.000000    ( 0.0000,  0.0000,  0.0000)
  25 Hg    10.809877    2.080362   12.942076    ( 0.0000,  0.0000,  0.0000)
  26 Hg     8.972580    1.025974   15.960274    ( 0.0000,  0.0000,  0.0000)
  27 Hg    12.652528    3.139213   18.945759    ( 0.0000,  0.0000,  0.0000)
  28 Hg     9.008231    3.120543   10.000000    ( 0.0000,  0.0000,  0.0000)
  29 Hg    12.611524    5.200905   12.942076    ( 0.0000,  0.0000,  0.0000)
  30 Hg    10.809877    4.185605   15.951773    ( 0.0000,  0.0000,  0.0000)
  31 Hg    14.440896    6.241090   18.957075    ( 0.0000,  0.0000,  0.0000)
  32 Hg    10.809877    6.241086   10.000000    ( 0.0000,  0.0000,  0.0000)
  33 Hg    14.413170    8.321447   12.942076    ( 0.0000,  0.0000,  0.0000)
  34 Hg    12.602894    7.291313   15.915235    ( 0.0000,  0.0000,  0.0000)
  35 Hg    16.214816    9.325786   18.919161    ( 0.0000,  0.0000,  0.0000)
  36 C     10.809877    8.329928   19.555369    ( 0.0000,  0.0000,  0.0000)

Unit cell:
           periodic     x           y           z      points  spacing
  1. axis:    yes   10.809877    0.000000    0.000000    52     0.1800
  2. axis:    yes    5.404939    9.361628    0.000000    52     0.1800
  3. axis:    no     0.000000    0.000000   28.826228   160     0.1802

  Lengths:  10.809877  10.809877  28.826228
  Angles:   90.000000  90.000000  60.000000

Effective grid spacing dv^(1/3) = 0.1889

     iter     time        total  log10-change:
                         energy  eigst   dens
iter:   1 03:30:22 -12233.280739  -1.68
iter:   2 03:31:25 -12233.274529  -2.50  -2.97
iter:   3 03:32:27 -12233.269946c -3.14  -3.12
iter:   4 03:33:29 -12233.268735c -3.83  -3.42
iter:   5 03:34:31 -12233.268845c -4.54  -3.57
iter:   6 03:35:34 -12233.268947c -4.94  -3.57
iter:   7 03:36:36 -12233.269924c -4.68  -3.71
iter:   8 03:37:38 -12233.269865c -5.56  -3.89
iter:   9 03:38:40 -12233.269717c -5.66  -3.97
iter:  10 03:39:43 -12233.269690c -5.97  -4.20c
iter:  11 03:40:45 -12233.269625c -6.11  -4.34c
iter:  12 03:41:48 -12233.269567c -6.50  -4.42c
iter:  13 03:42:50 -12233.269548c -6.79  -4.54c
iter:  14 03:43:52 -12233.269553c -6.92  -4.62c
iter:  15 03:44:54 -12233.269547c -7.35  -4.83c
iter:  16 03:45:57 -12233.269542c -7.68c -4.89c

Converged after 16 iterations.

Dipole moment: (-26.902903, -16.555122, -0.068386) |e|*Ang

Energy contributions relative to reference atoms: (reference = -19194635.662305)

Kinetic:       +2018.496424
Potential:     -1802.064640
External:        +0.000000
XC:            -12362.316330
Entropy (-ST):   -0.208456
Local:          -87.280769
--------------------------
Free energy:   -12233.373770
Extrapolated:  -12233.269542

Showing only first 2 kpts
 Kpt  Band  Eigenvalues  Occupancy
  0   324     -5.18965    1.99580
  0   325     -4.75983    1.73185
  0   326     -4.51247    0.70493
  0   327     -4.20066    0.04703

  1   324     -5.25537    1.99782
  1   325     -4.61960    1.22751
  1   326     -4.22327    0.05861
  1   327     -3.98016    0.00530


Fermi level: -4.57329

No gap

Forces in eV/Ang:
  0 Hg   -0.00000    0.00022   -0.08132
  1 Hg   -0.02082   -0.02289    0.02422
  2 Hg    0.00721    0.00681   -0.00193
  3 Hg   -0.00000    0.01627    0.02964
  4 Hg   -0.01214   -0.02223   -0.08001
  5 Hg   -0.00000    0.02459    0.01654
  6 Hg   -0.01257    0.00887   -0.01131
  7 Hg    0.01393   -0.01171    0.05744
  8 Hg    0.00953    0.02342   -0.07911
  9 Hg    0.01237    0.00300    0.03466
 10 Hg    0.00000   -0.02740    0.00319
 11 Hg    0.07961   -0.04974    0.00683
 12 Hg   -0.01934   -0.00263   -0.08499
 13 Hg    0.02082   -0.02289    0.02422
 14 Hg    0.00000   -0.03192    0.02179
 15 Hg   -0.01494    0.02581    0.04444
 16 Hg    0.00000   -0.00437   -0.07652
 17 Hg    0.02009    0.01294    0.05270
 18 Hg    0.01257    0.00887   -0.01131
 19 Hg   -0.00000    0.13275    0.04685
 20 Hg   -0.00953    0.02342   -0.07911
 21 Hg    0.00000   -0.01317    0.02158
 22 Hg    0.01442    0.02122    0.01275
 23 Hg   -0.07961   -0.04974    0.00683
 24 Hg    0.01934   -0.00263   -0.08499
 25 Hg   -0.00000    0.00284    0.06962
 26 Hg   -0.00721    0.00681   -0.00193
 27 Hg    0.01494    0.02581    0.04444
 28 Hg    0.01214   -0.02223   -0.08001
 29 Hg   -0.02009    0.01294    0.05270
 30 Hg    0.00000   -0.01095    0.03025
 31 Hg   -0.01393   -0.01171    0.05744
 32 Hg   -0.00000    0.00657   -0.08192
 33 Hg   -0.01237    0.00300    0.03466
 34 Hg   -0.01442    0.02122    0.01275
 35 Hg   -0.00000    0.01650    0.05973
 36 C     0.00000   -0.09196   -0.11541

BFGS:    6 03:46:14   -12233.269542        0.1476
System changes: positions 

Initializing position-dependent things.

Density initialized from wave functions
                                                              
                                                              
                                                              
                                                              
                                   Hg  C    Hg                
                                                     Hg       
                             Hg       Hg       Hg             
                                                              
                      Hg       Hg       Hg                    
                                                              
                         Hg       Hg       Hg                 
                   Hg      Hg       Hg                        
                                                              
            Hg       Hg       Hg       Hg       Hg            
                                                              
                        Hg       Hg      Hg                   
                 Hg       Hg       Hg                         
                                                              
                    Hg       Hg       Hg                      
             Hg       Hg       Hg                             
                                                              
       Hg       Hg       Hg                                   
                                                              
                                                              
                                                              
                                                              

Positions:
   0 Hg     0.000000    0.000000   10.000000    ( 0.0000,  0.0000,  0.0000)
   1 Hg     3.603292    2.080362   12.942076    ( 0.0000,  0.0000,  0.0000)
   2 Hg     1.836909    1.026167   15.958240    ( 0.0000,  0.0000,  0.0000)
   3 Hg     5.404939    3.147173   18.981164    ( 0.0000,  0.0000,  0.0000)
   4 Hg     1.801646    3.120543   10.000000    ( 0.0000,  0.0000,  0.0000)
   5 Hg     5.404939    5.200905   12.942076    ( 0.0000,  0.0000,  0.0000)
   6 Hg     3.621995    4.146672   15.886052    ( 0.0000,  0.0000,  0.0000)
   7 Hg     7.179781    6.241896   18.956993    ( 0.0000,  0.0000,  0.0000)
   8 Hg     3.603292    6.241086   10.000000    ( 0.0000,  0.0000,  0.0000)
   9 Hg     7.206585    8.321447   12.942076    ( 0.0000,  0.0000,  0.0000)
  10 Hg     5.404939    7.279287   15.924652    ( 0.0000,  0.0000,  0.0000)
  11 Hg     8.904317    9.419324   19.020753    ( 0.0000,  0.0000,  0.0000)
  12 Hg     3.603292    0.000000   10.000000    ( 0.0000,  0.0000,  0.0000)
  13 Hg     7.206585    2.080362   12.942076    ( 0.0000,  0.0000,  0.0000)
  14 Hg     5.404939    1.047654   15.886258    ( 0.0000,  0.0000,  0.0000)
  15 Hg     8.968366    3.138176   18.945299    ( 0.0000,  0.0000,  0.0000)
  16 Hg     5.404939    3.120543   10.000000    ( 0.0000,  0.0000,  0.0000)
  17 Hg     9.008231    5.200905   12.942076    ( 0.0000,  0.0000,  0.0000)
  18 Hg     7.187883    4.146672   15.886052    ( 0.0000,  0.0000,  0.0000)
  19 Hg    10.809877    6.111728   19.005347    ( 0.0000,  0.0000,  0.0000)
  20 Hg     7.206585    6.241086   10.000000    ( 0.0000,  0.0000,  0.0000)
  21 Hg    10.809877    8.321447   12.942076    ( 0.0000,  0.0000,  0.0000)
  22 Hg     9.017031    7.291758   15.915750    ( 0.0000,  0.0000,  0.0000)
  23 Hg    12.715438    9.419324   19.020753    ( 0.0000,  0.0000,  0.0000)
  24 Hg     7.206585    0.000000   10.000000    ( 0.0000,  0.0000,  0.0000)
  25 Hg    10.809877    2.080362   12.942076    ( 0.0000,  0.0000,  0.0000)
  26 Hg     8.972969    1.026167   15.958240    ( 0.0000,  0.0000,  0.0000)
  27 Hg    12.651389    3.138176   18.945299    ( 0.0000,  0.0000,  0.0000)
  28 Hg     9.008231    3.120543   10.000000    ( 0.0000,  0.0000,  0.0000)
  29 Hg    12.611524    5.200905   12.942076    ( 0.0000,  0.0000,  0.0000)
  30 Hg    10.809877    4.185243   15.951165    ( 0.0000,  0.0000,  0.0000)
  31 Hg    14.439974    6.241896   18.956993    ( 0.0000,  0.0000,  0.0000)
  32 Hg    10.809877    6.241086   10.000000    ( 0.0000,  0.0000,  0.0000)
  33 Hg    14.413170    8.321447   12.942076    ( 0.0000,  0.0000,  0.0000)
  34 Hg    12.602724    7.291758   15.915750    ( 0.0000,  0.0000,  0.0000)
  35 Hg    16.214816    9.325779   18.919551    ( 0.0000,  0.0000,  0.0000)
  36 C     10.809877    8.327583   19.548312    ( 0.0000,  0.0000,  0.0000)

Unit cell:
           periodic     x           y           z      points  spacing
  1. axis:    yes   10.809877    0.000000    0.000000    52     0.1800
  2. axis:    yes    5.404939    9.361628    0.000000    52     0.1800
  3. axis:    no     0.000000    0.000000   28.826228   160     0.1802

  Lengths:  10.809877  10.809877  28.826228
  Angles:   90.000000  90.000000  60.000000

Effective grid spacing dv^(1/3) = 0.1889

     iter     time        total  log10-change:
                         energy  eigst   dens
iter:   1 03:48:07 -12233.283099  -2.43
iter:   2 03:49:10 -12233.275640  -3.26  -3.18
iter:   3 03:50:13 -12233.275429c -3.89  -3.48
iter:   4 03:51:15 -12233.274944c -4.56  -3.72
iter:   5 03:52:17 -12233.274988c -5.12  -3.96
iter:   6 03:53:20 -12233.274902c -5.42  -3.95
iter:   7 03:54:22 -12233.275082c -5.47  -4.16c
iter:   8 03:55:25 -12233.275022c -5.92  -4.22c
iter:   9 03:56:27 -12233.274992c -6.45  -4.44c
iter:  10 03:57:29 -12233.274948c -6.84  -4.48c
iter:  11 03:58:32 -12233.274936c -6.91  -4.71c
iter:  12 03:59:34 -12233.274937c -7.16  -4.73c
iter:  13 04:00:36 -12233.274934c -7.49c -4.93c

Converged after 13 iterations.

Dipole moment: (-26.343711, -15.761435, -0.067504) |e|*Ang

Energy contributions relative to reference atoms: (reference = -19194635.662305)

Kinetic:       +2019.023504
Potential:     -1802.485879
External:        +0.000000
XC:            -12362.432365
Entropy (-ST):   -0.205343
Local:          -87.277522
--------------------------
Free energy:   -12233.377605
Extrapolated:  -12233.274934

Showing only first 2 kpts
 Kpt  Band  Eigenvalues  Occupancy
  0   324     -5.18855    1.99569
  0   325     -4.76478    1.73988
  0   326     -4.50957    0.68525
  0   327     -4.20216    0.04705

  1   324     -5.25478    1.99778
  1   325     -4.62610    1.25131
  1   326     -4.21774    0.05477
  1   327     -3.97794    0.00511


Fermi level: -4.57474

No gap

Forces in eV/Ang:
  0 Hg   -0.00000    0.00016   -0.08108
  1 Hg   -0.02181   -0.02171    0.02319
  2 Hg    0.00758    0.00810    0.00099
  3 Hg   -0.00000    0.01684    0.03107
  4 Hg   -0.01211   -0.02206   -0.07965
  5 Hg   -0.00000    0.02426    0.01638
  6 Hg   -0.01265    0.00746   -0.01310
  7 Hg    0.01085   -0.01448    0.05926
  8 Hg    0.00936    0.02338   -0.07900
  9 Hg    0.01109    0.00351    0.03324
 10 Hg    0.00000   -0.02517    0.00252
 11 Hg   -0.00077   -0.00118   -0.01664
 12 Hg   -0.01911   -0.00281   -0.08537
 13 Hg    0.02181   -0.02171    0.02319
 14 Hg    0.00000   -0.03222    0.02225
 15 Hg   -0.01605    0.02722    0.04664
 16 Hg    0.00000   -0.00434   -0.07648
 17 Hg    0.02001    0.01127    0.05126
 18 Hg    0.01265    0.00746   -0.01310
 19 Hg   -0.00000    0.04041    0.02167
 20 Hg   -0.00936    0.02338   -0.07900
 21 Hg    0.00000   -0.01324    0.01785
 22 Hg    0.01420    0.02136    0.01167
 23 Hg    0.00077   -0.00118   -0.01664
 24 Hg    0.01911   -0.00281   -0.08537
 25 Hg   -0.00000    0.00325    0.06995
 26 Hg   -0.00758    0.00810    0.00099
 27 Hg    0.01605    0.02722    0.04664
 28 Hg    0.01211   -0.02206   -0.07965
 29 Hg   -0.02001    0.01127    0.05126
 30 Hg    0.00000   -0.01165    0.02956
 31 Hg   -0.01085   -0.01448    0.05926
 32 Hg   -0.00000    0.00674   -0.08214
 33 Hg   -0.01109    0.00351    0.03324
 34 Hg   -0.01420    0.02136    0.01167
 35 Hg   -0.00000    0.01646    0.05976
 36 C     0.00000   -0.07824   -0.08828

BFGS:    7 04:00:54   -12233.274934        0.1180
System changes: positions 

Initializing position-dependent things.

Density initialized from wave functions
                                                              
                                                              
                                                              
                                                              
                                   Hg  C    Hg                
                                                     Hg       
                             Hg       Hg       Hg             
                                                              
                      Hg       Hg       Hg                    
                         Hg       Hg       Hg                 
                                                              
                   Hg      Hg       Hg                        
                                                              
            Hg       Hg       Hg       Hg       Hg            
                        Hg       Hg      Hg                   
                                                              
                 Hg       Hg       Hg                         
                                                              
                    Hg       Hg       Hg                      
             Hg       Hg       Hg                             
                                                              
       Hg       Hg       Hg                                   
                                                              
                                                              
                                                              
                                                              

Positions:
   0 Hg     0.000000    0.000000   10.000000    ( 0.0000,  0.0000,  0.0000)
   1 Hg     3.603292    2.080362   12.942076    ( 0.0000,  0.0000,  0.0000)
   2 Hg     1.839513    1.024659   15.963953    ( 0.0000,  0.0000,  0.0000)
   3 Hg     5.404939    3.149695   18.986192    ( 0.0000,  0.0000,  0.0000)
   4 Hg     1.801646    3.120543   10.000000    ( 0.0000,  0.0000,  0.0000)
   5 Hg     5.404939    5.200905   12.942076    ( 0.0000,  0.0000,  0.0000)
   6 Hg     3.622173    4.146409   15.887524    ( 0.0000,  0.0000,  0.0000)
   7 Hg     7.179442    6.239651   18.959987    ( 0.0000,  0.0000,  0.0000)
   8 Hg     3.603292    6.241086   10.000000    ( 0.0000,  0.0000,  0.0000)
   9 Hg     7.206585    8.321447   12.942076    ( 0.0000,  0.0000,  0.0000)
  10 Hg     5.404939    7.279018   15.928005    ( 0.0000,  0.0000,  0.0000)
  11 Hg     8.903734    9.420478   19.028648    ( 0.0000,  0.0000,  0.0000)
  12 Hg     3.603292    0.000000   10.000000    ( 0.0000,  0.0000,  0.0000)
  13 Hg     7.206585    2.080362   12.942076    ( 0.0000,  0.0000,  0.0000)
  14 Hg     5.404939    1.045944   15.889132    ( 0.0000,  0.0000,  0.0000)
  15 Hg     8.963456    3.142326   18.946669    ( 0.0000,  0.0000,  0.0000)
  16 Hg     5.404939    3.120543   10.000000    ( 0.0000,  0.0000,  0.0000)
  17 Hg     9.008231    5.200905   12.942076    ( 0.0000,  0.0000,  0.0000)
  18 Hg     7.187705    4.146409   15.887524    ( 0.0000,  0.0000,  0.0000)
  19 Hg    10.809877    6.109676   19.015045    ( 0.0000,  0.0000,  0.0000)
  20 Hg     7.206585    6.241086   10.000000    ( 0.0000,  0.0000,  0.0000)
  21 Hg    10.809877    8.321447   12.942076    ( 0.0000,  0.0000,  0.0000)
  22 Hg     9.019600    7.292734   15.919714    ( 0.0000,  0.0000,  0.0000)
  23 Hg    12.716021    9.420478   19.028648    ( 0.0000,  0.0000,  0.0000)
  24 Hg     7.206585    0.000000   10.000000    ( 0.0000,  0.0000,  0.0000)
  25 Hg    10.809877    2.080362   12.942076    ( 0.0000,  0.0000,  0.0000)
  26 Hg     8.970365    1.024659   15.963953    ( 0.0000,  0.0000,  0.0000)
  27 Hg    12.656299    3.142326   18.946669    ( 0.0000,  0.0000,  0.0000)
  28 Hg     9.008231    3.120543   10.000000    ( 0.0000,  0.0000,  0.0000)
  29 Hg    12.611524    5.200905   12.942076    ( 0.0000,  0.0000,  0.0000)
  30 Hg    10.809877    4.188699   15.958456    ( 0.0000,  0.0000,  0.0000)
  31 Hg    14.440313    6.239651   18.959987    ( 0.0000,  0.0000,  0.0000)
  32 Hg    10.809877    6.241086   10.000000    ( 0.0000,  0.0000,  0.0000)
  33 Hg    14.413170    8.321447   12.942076    ( 0.0000,  0.0000,  0.0000)
  34 Hg    12.600154    7.292734   15.919714    ( 0.0000,  0.0000,  0.0000)
  35 Hg    16.214816    9.322755   18.919168    ( 0.0000,  0.0000,  0.0000)
  36 C     10.809877    8.324149   19.502108    ( 0.0000,  0.0000,  0.0000)

Unit cell:
           periodic     x           y           z      points  spacing
  1. axis:    yes   10.809877    0.000000    0.000000    52     0.1800
  2. axis:    yes    5.404939    9.361628    0.000000    52     0.1800
  3. axis:    no     0.000000    0.000000   28.826228   160     0.1802

  Lengths:  10.809877  10.809877  28.826228
  Angles:   90.000000  90.000000  60.000000

Effective grid spacing dv^(1/3) = 0.1889

     iter     time        total  log10-change:
                         energy  eigst   dens
iter:   1 04:02:47 -12233.298265  -2.48
iter:   2 04:03:49 -12233.286811  -3.34  -3.06
iter:   3 04:04:52 -12233.285580c -4.01  -3.34
iter:   4 04:05:54 -12233.283966c -4.42  -3.55
iter:   5 04:06:57 -12233.283614c -4.78  -3.75
iter:   6 04:07:59 -12233.283820c -5.34  -3.81
iter:   7 04:09:02 -12233.283499c -5.43  -4.00c
iter:   8 04:10:04 -12233.283466c -5.97  -4.20c
iter:   9 04:11:07 -12233.283489c -6.15  -4.35c
iter:  10 04:12:09 -12233.283473c -6.82  -4.36c
iter:  11 04:13:12 -12233.283481c -6.66  -4.61c
iter:  12 04:14:14 -12233.283473c -7.31  -4.72c
iter:  13 04:15:17 -12233.283470c -7.60c -4.81c

Converged after 13 iterations.

Dipole moment: (-26.647092, -15.785862, -0.057692) |e|*Ang

Energy contributions relative to reference atoms: (reference = -19194635.662305)

Kinetic:       +2019.398996
Potential:     -1802.801652
External:        +0.000000
XC:            -12362.509771
Entropy (-ST):   -0.198307
Local:          -87.271889
--------------------------
Free energy:   -12233.382624
Extrapolated:  -12233.283470

Showing only first 2 kpts
 Kpt  Band  Eigenvalues  Occupancy
  0   324     -5.16831    1.99417
  0   325     -4.77425    1.73840
  0   326     -4.50887    0.63736
  0   327     -4.19701    0.04053

  1   324     -5.23853    1.99711
  1   325     -4.65644    1.34340
  1   326     -4.21119    0.04656
  1   327     -3.96443    0.00403


Fermi level: -4.58486

No gap

Forces in eV/Ang:
  0 Hg   -0.00000    0.00051   -0.08150
  1 Hg   -0.02225   -0.02213    0.02435
  2 Hg    0.00199    0.00574   -0.00455
  3 Hg   -0.00000    0.02456    0.03370
  4 Hg   -0.01256   -0.02227   -0.08017
  5 Hg   -0.00000    0.02463    0.01872
  6 Hg   -0.01567    0.00897   -0.01207
  7 Hg    0.00734   -0.01062    0.06102
  8 Hg    0.00911    0.02364   -0.07962
  9 Hg    0.01085    0.00396    0.03505
 10 Hg    0.00000   -0.02635    0.00210
 11 Hg   -0.03084    0.01755   -0.03417
 12 Hg   -0.01919   -0.00292   -0.08618
 13 Hg    0.02225   -0.02213    0.02435
 14 Hg    0.00000   -0.03864    0.02876
 15 Hg   -0.00877    0.01982    0.04998
 16 Hg    0.00000   -0.00454   -0.07718
 17 Hg    0.02045    0.01117    0.05271
 18 Hg    0.01567    0.00897   -0.01207
 19 Hg    0.00000   -0.00198   -0.01636
 20 Hg   -0.00911    0.02364   -0.07962
 21 Hg    0.00000   -0.01329    0.01966
 22 Hg    0.01605    0.02631    0.01122
 23 Hg    0.03084    0.01755   -0.03417
 24 Hg    0.01919   -0.00292   -0.08618
 25 Hg   -0.00000    0.00306    0.07028
 26 Hg   -0.00199    0.00574   -0.00455
 27 Hg    0.00877    0.01982    0.04998
 28 Hg    0.01256   -0.02227   -0.08017
[...]
  24 Hg     7.206585    0.000000   10.000000    ( 0.0000,  0.0000,  0.0000)
  25 Hg    10.809877    2.080362   12.942076    ( 0.0000,  0.0000,  0.0000)
  26 Hg     8.974583    1.024797   16.025302    ( 0.0000,  0.0000,  0.0000)
  27 Hg    12.678086    3.167097   19.134472    ( 0.0000,  0.0000,  0.0000)
  28 Hg     9.008231    3.120543   10.000000    ( 0.0000,  0.0000,  0.0000)
  29 Hg    12.611524    5.200905   12.942076    ( 0.0000,  0.0000,  0.0000)
  30 Hg    10.809877    4.208171   16.031800    ( 0.0000,  0.0000,  0.0000)
  31 Hg    14.439533    6.288552   19.097277    ( 0.0000,  0.0000,  0.0000)
  32 Hg    10.809877    6.241086   10.000000    ( 0.0000,  0.0000,  0.0000)
  33 Hg    14.413170    8.321447   12.942076    ( 0.0000,  0.0000,  0.0000)
  34 Hg    12.567481    7.313073   15.976322    ( 0.0000,  0.0000,  0.0000)
  35 Hg    16.214816    9.340045   19.110594    ( 0.0000,  0.0000,  0.0000)
  36 C     10.809877    8.296227   18.730801    ( 0.0000,  0.0000,  0.0000)

Unit cell:
           periodic     x           y           z      points  spacing
  1. axis:    yes   10.809877    0.000000    0.000000    52     0.1800
  2. axis:    yes    5.404939    9.361628    0.000000    52     0.1800
  3. axis:    no     0.000000    0.000000   28.826228   160     0.1802

  Lengths:  10.809877  10.809877  28.826228
  Angles:   90.000000  90.000000  60.000000

Effective grid spacing dv^(1/3) = 0.1889

     iter     time        total  log10-change:
                         energy  eigst   dens
iter:   1 09:03:59 -12233.397842  -2.23
iter:   2 09:05:01 -12233.398527  -3.06  -3.34
iter:   3 09:06:04 -12233.396625c -3.71  -3.43
iter:   4 09:07:06 -12233.395439c -4.30  -3.59
iter:   5 09:08:08 -12233.395441c -5.01  -3.79
iter:   6 09:09:10 -12233.395594c -5.74  -3.81
iter:   7 09:10:12 -12233.395710c -4.97  -3.82
iter:   8 09:11:14 -12233.395554c -5.97  -4.10c
iter:   9 09:12:16 -12233.395542c -6.51  -4.19c
iter:  10 09:13:18 -12233.395573c -6.00  -4.25c
iter:  11 09:14:20 -12233.395597c -6.84  -4.51c
iter:  12 09:15:23 -12233.395622c -7.13  -4.60c
iter:  13 09:16:25 -12233.395646c -6.88  -4.69c
iter:  14 09:17:26 -12233.395605c -7.17  -4.89c
iter:  15 09:18:29 -12233.395604c -7.89c -5.03c

Converged after 15 iterations.

Dipole moment: (-28.199308, -20.581449, 0.206014) |e|*Ang

Energy contributions relative to reference atoms: (reference = -19194635.662305)

Kinetic:       +2018.220550
Potential:     -1802.230804
External:        +0.000000
XC:            -12361.974666
Entropy (-ST):   -0.212529
Local:          -87.304420
--------------------------
Free energy:   -12233.501869
Extrapolated:  -12233.395604

Showing only first 2 kpts
 Kpt  Band  Eigenvalues  Occupancy
  0   324     -5.11758    1.99494
  0   325     -4.65728    1.59600
  0   326     -4.47851    0.79598
  0   327     -4.05581    0.01911

  1   324     -5.12202    1.99516
  1   325     -4.60114    1.38528
  1   326     -4.17342    0.06066
  1   327     -3.84782    0.00241


Fermi level: -4.51990

No gap

Forces in eV/Ang:
  0 Hg    0.00000   -0.00139   -0.08418
  1 Hg   -0.01006   -0.02567    0.05930
  2 Hg   -0.00527   -0.01055    0.01431
  3 Hg   -0.00000    0.01503    0.02082
  4 Hg   -0.01118   -0.02127   -0.08071
  5 Hg   -0.00000    0.01300    0.05394
  6 Hg    0.01470   -0.00264    0.02643
  7 Hg   -0.01138    0.00011    0.01412
  8 Hg    0.00553    0.02700   -0.08275
  9 Hg    0.02231    0.00164    0.05541
 10 Hg   -0.00000    0.01088    0.02524
 11 Hg    0.03952   -0.02183   -0.00163
 12 Hg   -0.01694   -0.00482   -0.08817
 13 Hg    0.01006   -0.02567    0.05930
 14 Hg    0.00000   -0.01483   -0.02917
 15 Hg   -0.00498    0.01823    0.02736
 16 Hg    0.00000   -0.00829   -0.07971
 17 Hg    0.02371    0.02099    0.07608
 18 Hg   -0.01470   -0.00264    0.02643
 19 Hg    0.00000   -0.04449   -0.00310
 20 Hg   -0.00553    0.02700   -0.08275
 21 Hg    0.00000   -0.01118    0.07332
 22 Hg   -0.00305    0.01263   -0.01245
 23 Hg   -0.03952   -0.02183   -0.00163
 24 Hg    0.01694   -0.00482   -0.08817
 25 Hg   -0.00000    0.00633    0.08978
 26 Hg    0.00527   -0.01055    0.01431
 27 Hg    0.00498    0.01823    0.02736
 28 Hg    0.01118   -0.02127   -0.08071
 29 Hg   -0.02371    0.02099    0.07608
 30 Hg   -0.00000    0.00189    0.00794
 31 Hg    0.01138    0.00011    0.01412
 32 Hg   -0.00000    0.01005   -0.08433
 33 Hg   -0.02231    0.00164    0.05541
 34 Hg    0.00305    0.01263   -0.01245
 35 Hg   -0.00000    0.02695   -0.00982
 36 C    -0.00000    0.05347   -0.02401

BFGS:   26 09:18:46   -12233.395604        0.0586
System changes: positions 

Initializing position-dependent things.

Density initialized from wave functions
                                                              
                                                              
                                                              
                                                              
                                   Hg       Hg       Hg       
                                       C                      
                             Hg      Hg        Hg             
                      Hg       Hg       Hg                    
                                                              
                         Hg       Hg       Hg                 
                                                              
                  Hg       Hg       Hg                        
            Hg       Hg       Hg       Hg       Hg            
                                                              
                        Hg       Hg      Hg                   
                                                              
                 Hg       Hg       Hg                         
                    Hg       Hg       Hg                      
                                                              
             Hg       Hg       Hg                             
       Hg       Hg       Hg                                   
                                                              
                                                              
                                                              
                                                              

Positions:
   0 Hg     0.000000    0.000000   10.000000    ( 0.0000,  0.0000,  0.0000)
   1 Hg     3.603292    2.080362   12.942076    ( 0.0000,  0.0000,  0.0000)
   2 Hg     1.832440    1.025167   16.025520    ( 0.0000,  0.0000,  0.0000)
   3 Hg     5.404939    3.162275   19.124792    ( 0.0000,  0.0000,  0.0000)
   4 Hg     1.801646    3.120543   10.000000    ( 0.0000,  0.0000,  0.0000)
   5 Hg     5.404939    5.200905   12.942076    ( 0.0000,  0.0000,  0.0000)
   6 Hg     3.586920    4.165439   15.979353    ( 0.0000,  0.0000,  0.0000)
   7 Hg     7.175117    6.283758   19.100656    ( 0.0000,  0.0000,  0.0000)
   8 Hg     3.603292    6.241086   10.000000    ( 0.0000,  0.0000,  0.0000)
   9 Hg     7.206585    8.321447   12.942076    ( 0.0000,  0.0000,  0.0000)
  10 Hg     5.404939    7.263374   15.960401    ( 0.0000,  0.0000,  0.0000)
  11 Hg     8.879160    9.458381   19.081554    ( 0.0000,  0.0000,  0.0000)
  12 Hg     3.603292    0.000000   10.000000    ( 0.0000,  0.0000,  0.0000)
  13 Hg     7.206585    2.080362   12.942076    ( 0.0000,  0.0000,  0.0000)
  14 Hg     5.404939    1.037415   15.976122    ( 0.0000,  0.0000,  0.0000)
  15 Hg     8.941825    3.168382   19.140264    ( 0.0000,  0.0000,  0.0000)
  16 Hg     5.404939    3.120543   10.000000    ( 0.0000,  0.0000,  0.0000)
  17 Hg     9.008231    5.200905   12.942076    ( 0.0000,  0.0000,  0.0000)
  18 Hg     7.222957    4.165439   15.979353    ( 0.0000,  0.0000,  0.0000)
  19 Hg    10.809877    6.064351   19.130670    ( 0.0000,  0.0000,  0.0000)
  20 Hg     7.206585    6.241086   10.000000    ( 0.0000,  0.0000,  0.0000)
  21 Hg    10.809877    8.321447   12.942076    ( 0.0000,  0.0000,  0.0000)
  22 Hg     9.050555    7.312990   15.973739    ( 0.0000,  0.0000,  0.0000)
  23 Hg    12.740595    9.458381   19.081554    ( 0.0000,  0.0000,  0.0000)
  24 Hg     7.206585    0.000000   10.000000    ( 0.0000,  0.0000,  0.0000)
  25 Hg    10.809877    2.080362   12.942076    ( 0.0000,  0.0000,  0.0000)
  26 Hg     8.977437    1.025167   16.025520    ( 0.0000,  0.0000,  0.0000)
  27 Hg    12.677930    3.168382   19.140264    ( 0.0000,  0.0000,  0.0000)
  28 Hg     9.008231    3.120543   10.000000    ( 0.0000,  0.0000,  0.0000)
  29 Hg    12.611524    5.200905   12.942076    ( 0.0000,  0.0000,  0.0000)
  30 Hg    10.809877    4.206312   16.031562    ( 0.0000,  0.0000,  0.0000)
  31 Hg    14.444638    6.283758   19.100656    ( 0.0000,  0.0000,  0.0000)
  32 Hg    10.809877    6.241086   10.000000    ( 0.0000,  0.0000,  0.0000)
  33 Hg    14.413170    8.321447   12.942076    ( 0.0000,  0.0000,  0.0000)
  34 Hg    12.569200    7.312990   15.973739    ( 0.0000,  0.0000,  0.0000)
  35 Hg    16.214816    9.346494   19.113985    ( 0.0000,  0.0000,  0.0000)
  36 C     10.809877    8.300550   18.740684    ( 0.0000,  0.0000,  0.0000)

Unit cell:
           periodic     x           y           z      points  spacing
  1. axis:    yes   10.809877    0.000000    0.000000    52     0.1800
  2. axis:    yes    5.404939    9.361628    0.000000    52     0.1800
  3. axis:    no     0.000000    0.000000   28.826228   160     0.1802

  Lengths:  10.809877  10.809877  28.826228
  Angles:   90.000000  90.000000  60.000000

Effective grid spacing dv^(1/3) = 0.1889

     iter     time        total  log10-change:
                         energy  eigst   dens
iter:   1 09:20:37 -12233.398855  -2.61
iter:   2 09:21:39 -12233.399260  -3.43  -3.56
iter:   3 09:22:42 -12233.398507c -4.08  -3.64
iter:   4 09:23:44 -12233.397986c -4.68  -3.79
iter:   5 09:24:46 -12233.397976c -5.35  -4.00
iter:   6 09:25:48 -12233.398110c -6.08  -4.02c
iter:   7 09:26:50 -12233.398159c -5.46  -4.11c
iter:   8 09:27:52 -12233.398048c -6.38  -4.27c
iter:   9 09:28:54 -12233.398041c -6.85  -4.41c
iter:  10 09:29:56 -12233.398067c -6.50  -4.50c
iter:  11 09:30:58 -12233.398055c -6.99  -4.71c
iter:  12 09:32:00 -12233.398078c -7.25  -4.90c
iter:  13 09:33:02 -12233.398087c -7.57c -5.08c

Converged after 13 iterations.

Dipole moment: (-28.525338, -20.888390, 0.203265) |e|*Ang

Energy contributions relative to reference atoms: (reference = -19194635.662305)

Kinetic:       +2018.251062
Potential:     -1802.258627
External:        +0.000000
XC:            -12361.981301
Entropy (-ST):   -0.210206
Local:          -87.304118
--------------------------
Free energy:   -12233.503190
Extrapolated:  -12233.398087

Showing only first 2 kpts
 Kpt  Band  Eigenvalues  Occupancy
  0   324     -5.11762    1.99474
  0   325     -4.66163    1.59767
  0   326     -4.47568    0.76424
  0   327     -4.05763    0.01874

  1   324     -5.12344    1.99504
  1   325     -4.61114    1.41118
  1   326     -4.17067    0.05691
  1   327     -3.84901    0.00235


Fermi level: -4.52373

No gap

Forces in eV/Ang:
  0 Hg    0.00000   -0.00140   -0.08392
  1 Hg   -0.01020   -0.02584    0.05992
  2 Hg   -0.00192   -0.01011    0.01272
  3 Hg   -0.00000    0.01133    0.02477
  4 Hg   -0.01137   -0.02094   -0.08116
  5 Hg   -0.00000    0.01352    0.05745
  6 Hg   -0.00197    0.00721    0.02350
  7 Hg    0.00287    0.01035    0.00664
  8 Hg    0.00483    0.02717   -0.08319
  9 Hg    0.02171    0.00227    0.05581
 10 Hg   -0.00000    0.00122    0.02505
 11 Hg    0.01745   -0.00779    0.00531
 12 Hg   -0.01628   -0.00525   -0.08810
 13 Hg    0.01020   -0.02584    0.05992
 14 Hg    0.00000   -0.01796   -0.02637
 15 Hg   -0.00700    0.02195    0.02908
 16 Hg    0.00000   -0.00877   -0.08017
 17 Hg    0.02290    0.02060    0.07700
 18 Hg    0.00197    0.00721    0.02350
 19 Hg    0.00000   -0.02428   -0.00249
 20 Hg   -0.00483    0.02717   -0.08319
 21 Hg    0.00000   -0.01050    0.06937
 22 Hg   -0.00541    0.01279   -0.01083
 23 Hg   -0.01745   -0.00779    0.00531
 24 Hg    0.01628   -0.00525   -0.08810
 25 Hg   -0.00000    0.00518    0.09139
 26 Hg    0.00192   -0.01011    0.01272
 27 Hg    0.00700    0.02195    0.02908
 28 Hg    0.01137   -0.02094   -0.08116
 29 Hg   -0.02290    0.02060    0.07700
 30 Hg    0.00000   -0.00029    0.01047
 31 Hg   -0.00287    0.01035    0.00664
 32 Hg   -0.00000    0.01045   -0.08425
 33 Hg   -0.02171    0.00227    0.05581
 34 Hg    0.00541    0.01279   -0.01083
 35 Hg   -0.00000    0.01509   -0.01574
 36 C    -0.00000    0.01259   -0.04523

BFGS:   27 09:33:19   -12233.398087        0.0470
Timing:                                      incl.     excl.
-------------------------------------------------------------------
Density initialized from wave functions:    56.885    55.403   0.2% |
 Symmetrize density:                         1.482     1.482   0.0% |
Forces:                                    484.266   484.266   1.7% ||
Hamiltonian:                               163.260     0.005   0.0% |
 Atomic:                                     0.008     0.008   0.0% |
  XC Correction:                             0.000     0.000   0.0% |
 Calculate atomic Hamiltonians:              0.010     0.010   0.0% |
 Communicate:                                6.442     6.442   0.0% |
 Hartree integrate/restrict:                 0.516     0.516   0.0% |
 Initialize Hamiltonian:                     0.000     0.000   0.0% |
 Poisson:                                    8.358     0.370   0.0% |
  Communicate from 1D:                       0.854     0.854   0.0% |
  Communicate from 2D:                       1.490     1.490   0.0% |
  Communicate to 1D:                         0.380     0.380   0.0% |
  Communicate to 2D:                         1.582     1.582   0.0% |
  FFT 1D:                                    1.260     1.260   0.0% |
  FFT 2D:                                    2.422     2.422   0.0% |
 XC 3D grid:                               147.827    37.566   0.1% |
  VdW-DF integral:                         110.262     1.294   0.0% |
   Convolution:                             14.023    14.023   0.0% |
   FFT:                                      8.111     8.111   0.0% |
   gather:                                  31.552    31.552   0.1% |
   hmm1:                                     2.137     2.137   0.0% |
   hmm2:                                     4.567     4.567   0.0% |
   iFFT:                                     8.474     8.474   0.0% |
   potential:                               35.526     0.759   0.0% |
    collect:                                 3.049     3.049   0.0% |
    p1:                                     21.272    21.272   0.1% |
    p2:                                      7.108     7.108   0.0% |
    sum:                                     3.339     3.339   0.0% |
   splines:                                  4.577     4.577   0.0% |
 vbar:                                       0.094     0.094   0.0% |
LCAO initialization:                        31.730     1.077   0.0% |
 LCAO eigensolver:                           8.023     0.005   0.0% |
  Calculate projections:                     0.000     0.000   0.0% |
  DenseAtomicCorrection:                     0.000     0.000   0.0% |
  Distribute overlap matrix:                 7.160     7.160   0.0% |
  Orbital Layouts:                           0.734     0.734   0.0% |
  Potential matrix:                          0.021     0.021   0.0% |
  Sum over cells:                            0.103     0.103   0.0% |
 LCAO to grid:                              21.294    21.294   0.1% |
 Set positions (LCAO WFS):                   1.334     1.007   0.0% |
  Basic WFS set positions:                   0.002     0.002   0.0% |
  Basis functions set positions:             0.000     0.000   0.0% |
  P tci:                                     0.000     0.000   0.0% |
  ST tci:                                    0.260     0.260   0.0% |
  mktci:                                     0.064     0.064   0.0% |
Redistribute:                                0.018     0.018   0.0% |
SCF-cycle:                               26769.251    81.847   0.3% |
 Davidson:                               24171.198  5561.630  19.4% |-------|
  Apply hamiltonian:                       892.632   892.632   3.1% ||
  Subspace diag:                          3593.294     0.064   0.0% |
   calc_h_matrix:                         1777.649   989.953   3.5% ||
    Apply hamiltonian:                     787.696   787.696   2.7% ||
   diagonalize:                             76.922    76.922   0.3% |
   rotate_psi:                            1738.659  1738.659   6.1% |-|
  calc. matrices:                        10198.210  6648.672  23.2% |--------|
   Apply hamiltonian:                     3549.539  3549.539  12.4% |----|
  diagonalize:                             316.125   316.125   1.1% |
  rotate_psi:                             3609.308  3609.308  12.6% |----|
 Density:                                   77.995     0.012   0.0% |
  Atomic density matrices:                   2.391     2.391   0.0% |
  Mix:                                      12.485    12.485   0.0% |
  Multipole moments:                         0.192     0.192   0.0% |
  Pseudo density:                           62.915    41.326   0.1% |
   Symmetrize density:                      21.589    21.589   0.1% |
 Hamiltonian:                             2282.193     0.061   0.0% |
  Atomic:                                    0.111     0.109   0.0% |
   XC Correction:                            0.001     0.001   0.0% |
  Calculate atomic Hamiltonians:             0.148     0.148   0.0% |
  Communicate:                              89.991    89.991   0.3% |
  Hartree integrate/restrict:                7.220     7.220   0.0% |
  Poisson:                                 120.091     5.263   0.0% |
   Communicate from 1D:                     12.338    12.338   0.0% |
   Communicate from 2D:                     21.389    21.389   0.1% |
   Communicate to 1D:                        5.512     5.512   0.0% |
   Communicate to 2D:                       22.762    22.762   0.1% |
   FFT 1D:                                  18.040    18.040   0.1% |
   FFT 2D:                                  34.786    34.786   0.1% |
  XC 3D grid:                             2063.506   540.215   1.9% ||
   VdW-DF integral:                       1523.291    19.033   0.1% |
    Convolution:                           201.756   201.756   0.7% |
    FFT:                                   115.756   115.756   0.4% |
    gather:                                458.419   458.419   1.6% ||
    hmm1:                                   29.976    29.976   0.1% |
    hmm2:                                   64.940    64.940   0.2% |
    iFFT:                                  122.135   122.135   0.4% |
    potential:                             511.274    11.077   0.0% |
     collect:                               44.273    44.273   0.2% |
     p1:                                   304.344   304.344   1.1% |
     p2:                                   102.275   102.275   0.4% |
     sum:                                   49.306    49.306   0.2% |
    splines:                                 0.003     0.003   0.0% |
  vbar:                                      1.065     1.065   0.0% |
 Orthonormalize:                           156.018     0.008   0.0% |
  calc_s_matrix:                            28.586    28.586   0.1% |
  inverse-cholesky:                         71.195    71.195   0.2% |
  projections:                               0.002     0.002   0.0% |
  rotate_psi_s:                             56.229    56.229   0.2% |
Set symmetry:                                0.002     0.002   0.0% |
Other:                                    1145.476  1145.476   4.0% |-|
-------------------------------------------------------------------
Total:                                             28650.887 100.0%

Memory usage: 2.90 GiB
Date: Thu Sep 28 09:33:19 2023
