
  ___ ___ ___ _ _ _  
 |   |   |_  | | | | 
 | | | | | . | | | | 
 |__ |  _|___|_____|  22.8.0
 |___|_|             

User:   s204775@a035.nifl.fysik.dtu.dk
Date:   Thu Sep 28 01:52:51 2023
Arch:   x86_64
Pid:    30019
CWD:    /home/cat/s204775/projects/Bachelor_project/C_missing_features
Python: 3.10.4
gpaw:   /home/modules/software/GPAW/22.8.0-intel-2022a/lib/python3.10/site-packages/gpaw
_gpaw:  /home/modules/software/GPAW/22.8.0-intel-2022a/lib/python3.10/site-packages/
        _gpaw.cpython-310-x86_64-linux-gnu.so
ase:    /home/modules/software/ASE/3.22.1-intel-2022a/lib/python3.10/site-packages/ase (version 3.22.1)
numpy:  /home/modules/software/SciPy-bundle/2022.05-intel-2022a/lib/python3.10/site-packages/numpy (version 1.22.3)
scipy:  /home/modules/software/SciPy-bundle/2022.05-intel-2022a/lib/python3.10/site-packages/scipy (version 1.8.1)
libxc:  5.2.3
units:  Angstrom and eV
cores: 40
OpenMP: False
OMP_NUM_THREADS: 1

Input parameters:
  basis: dzp
  h: 0.18
  kpts: {size: (4, 4, 1)}
  xc: BEEF-vdW

System changes: positions, numbers, cell, pbc, initial_charges, initial_magmoms 

Initialize ...

species:
  In:
    name: Indium
    id: 4115a36869ad701825fde81bee9eb9d4
    Z: 49.0
    valence: 13
    core: 36
    charge: 0.0
    file: /home/modules/software/GPAW-setups/0.9.20000/In.PBE.gz
    compensation charges: {type: gauss,
                           rc: 0.36,
                           lmax: 2}
    cutoffs: {filter: 2.09,
              core: 2.48}
    valence states:
      #              energy  rcut
      - 5s(2.00)    -8.203   1.185
      - 5p(1.00)    -2.521   1.244
      - 4d(10.00)   -18.629   1.148
      -  s          19.008   1.185
      -  p          24.691   1.244
      -  d           8.583   1.148
  
    # LCAO basis set for In:
    #   Name: dzp
    #   File: /home/modules/software/GPAW-setups/0.9.20000/In.dzp.basis.gz
    #   Number of radial functions: 7
    #   Number of spherical harmonics: 23
    #     l=0, rc=7.7188 Bohr: 5s-sz confined orbital
    #     l=1, rc=10.7500 Bohr: 5p-sz confined orbital
    #     l=2, rc=4.4219 Bohr: 4d-sz confined orbital
    #     l=0, rc=4.5312 Bohr: 5s-dz split-valence wave
    #     l=1, rc=6.4688 Bohr: 5p-dz split-valence wave
    #     l=2, rc=2.7344 Bohr: 4d-dz split-valence wave
    #     l=2, rc=10.7500 Bohr: d-type Gaussian polarization
    #   Number of RI-basis functions 0

  C:
    name: Carbon
    id: 4aa54d4b901d75f77cc0ea3eec22967b
    Z: 6.0
    valence: 4
    core: 2
    charge: 0.0
    file: /home/modules/software/GPAW-setups/0.9.20000/C.PBE.gz
    compensation charges: {type: gauss,
                           rc: 0.20,
                           lmax: 2}
    cutoffs: {filter: 1.14,
              core: 1.14}
    valence states:
      #              energy  rcut
      - 2s(2.00)   -13.751   0.635
      - 2p(2.00)    -5.284   0.635
      -  s          13.461   0.635
      -  p          21.927   0.635
      -  d           0.000   0.635
  
    # LCAO basis set for C:
    #   Name: dzp
    #   File: /home/modules/software/GPAW-setups/0.9.20000/C.dzp.basis.gz
    #   Number of radial functions: 5
    #   Number of spherical harmonics: 13
    #     l=0, rc=5.5469 Bohr: 2s-sz confined orbital
    #     l=1, rc=6.6719 Bohr: 2p-sz confined orbital
    #     l=0, rc=3.0312 Bohr: 2s-dz split-valence wave
    #     l=1, rc=3.7500 Bohr: 2p-dz split-valence wave
    #     l=2, rc=6.6719 Bohr: d-type Gaussian polarization
    #   Number of RI-basis functions 0

Reference energy: -5760142.735881  # eV

Spin-paired calculation

Convergence criteria:
 Maximum [total energy] change in last 3 cyles: 0.0005 eV / electron
 Maximum integral of absolute [dens]ity change: 0.0001 electrons / valence electron
 Maximum integral of absolute [eigenst]ate change: 4e-08 eV^2 / valence electron
 Maximum number of scf [iter]ations: 333
 (Square brackets indicate name in SCF output, whereas a 'c' in
 the SCF output indicates the quantity has converged.)

Symmetries present (total): 2

  ( 1  0  0)  ( 0 -1  0)
  ( 0  1  0)  (-1  0  0)
  ( 0  0  1)  ( 0  0  1)

16 k-points: 4 x 4 x 1 Monkhorst-Pack grid
6 k-points in the irreducible part of the Brillouin zone
       k-points in crystal coordinates                weights
   0:     0.12500000   -0.12500000    0.00000000          2/16
   1:     0.12500000    0.12500000    0.00000000          2/16
   2:     0.37500000   -0.37500000    0.00000000          2/16
   3:     0.37500000   -0.12500000    0.00000000          4/16
   4:     0.37500000    0.12500000    0.00000000          4/16
   5:     0.37500000    0.37500000    0.00000000          2/16

Wave functions: Uniform real-space grid
  Kinetic energy operator: 8*3+1=25 point O(h^6) finite-difference Laplacian
  ScaLapack parameters: grid=1x1, blocksize=None
  Wavefunction extrapolation:
    Improved wavefunction reuse through dual PAW basis 

Occupation numbers: Fermi-Dirac:
  width: 0.1000  # eV
 

Eigensolver
   Davidson(niter=2) 

Densities:
  Coarse grid: 48*48*156 grid
  Fine grid: 96*96*312 grid
  Total Charge: 0.000000 

Density mixing:
  Method: separate
  Backend: pulay
  Linear mixing parameter: 0.05
  old densities: 5
  Damping of long wavelength oscillations: 50 

Hamiltonian:
  XC and Coulomb potentials evaluated on a 96*96*312 grid
  Using the BEEF-vdW Exchange-Correlation functional
  Interpolation: tri-quintic (5. degree polynomial)
  Poisson solver: FastPoissonSolver using
    Stencil: 8*3+1=25 point O(h^6) finite-difference Laplacian
    FFT axes: [0, 1]
    FST axes: [2]
 

XC parameters: BEEF-vdW with 2 nearest neighbor stencil

Memory estimate:
  Process memory now: 173.27 MiB
  Calculator: 346.67 MiB
    Density: 14.08 MiB
      Arrays: 3.54 MiB
      Localized functions: 9.18 MiB
      Mixer: 1.36 MiB
    Hamiltonian: 2.91 MiB
      Arrays: 2.32 MiB
      XC: 0.00 MiB
      Poisson: 0.00 MiB
      vbar: 0.60 MiB
    Wavefunctions: 329.68 MiB
      Arrays psit_nG: 235.41 MiB
      Eigensolver: 92.50 MiB
      Projections: 0.44 MiB
      Projectors: 1.34 MiB

Total number of cores used: 40
Parallelization over k-points: 2
Domain decomposition: 2 x 2 x 5

Number of atoms: 37
Number of atomic orbitals: 841
Number of bands in calculation: 288
Number of valence electrons: 472
Bands to converge: occupied

... initialized

Initializing position-dependent things.

Density initialized from atomic densities
Creating initial wave functions:
  288 bands from LCAO basis set

                                                  
                                                  
                                                  
                                                  
                                                  
                      C                           
           In      In      In                     
                                                  
            IIn     IIn     InIn                  
               In       In      In                
              In      In       In                 
                                                  
               InIn     IIn     IIn               
                                                  
                  In      In      In              
                    In       In      In           
           In      In      In                     
                                                  
             In      In       In                  
               In       In      In                
                                                  
                                                  
                                                  
                                                  

Positions:
   0 In    -0.000000    0.000000   10.000000    ( 0.0000,  0.0000,  0.0000)
   1 In     1.696324    0.979373   12.770085    ( 0.0000,  0.0000,  0.0000)
   2 In     0.000000    1.958746   15.501326    ( 0.0000,  0.0000,  0.0000)
   3 In     0.000000    0.000000   18.272307    ( 0.0000,  0.0000,  0.0000)
   4 In    -1.696324    2.938119   10.000000    ( 0.0000,  0.0000,  0.0000)
   5 In     0.000000    3.917492   12.770085    ( 0.0000,  0.0000,  0.0000)
   6 In    -1.696324    4.896865   15.501326    ( 0.0000,  0.0000,  0.0000)
   7 In    -1.696324    2.938119   18.272307    ( 0.0000,  0.0000,  0.0000)
   8 In    -3.392647    5.876238   10.000000    ( 0.0000,  0.0000,  0.0000)
   9 In    -1.696324    6.855611   12.770085    ( 0.0000,  0.0000,  0.0000)
  10 In    -3.392647    7.834984   15.501326    ( 0.0000,  0.0000,  0.0000)
  11 In    -3.392647    5.876238   18.272307    ( 0.0000,  0.0000,  0.0000)
  12 In     3.392647    0.000000   10.000000    ( 0.0000,  0.0000,  0.0000)
  13 In     5.088971    0.979373   12.770085    ( 0.0000,  0.0000,  0.0000)
  14 In     3.392647    1.958746   15.501326    ( 0.0000,  0.0000,  0.0000)
  15 In     3.392647   -0.000000   18.272307    ( 0.0000,  0.0000,  0.0000)
  16 In     1.696324    2.938119   10.000000    ( 0.0000,  0.0000,  0.0000)
  17 In     3.392647    3.917492   12.770085    ( 0.0000,  0.0000,  0.0000)
  18 In     1.696324    4.896865   15.501326    ( 0.0000,  0.0000,  0.0000)
  19 In     1.696324    2.938119   18.272307    ( 0.0000,  0.0000,  0.0000)
  20 In    -0.000000    5.876238   10.000000    ( 0.0000,  0.0000,  0.0000)
  21 In     1.696324    6.855611   12.770085    ( 0.0000,  0.0000,  0.0000)
  22 In     0.000000    7.834984   15.501326    ( 0.0000,  0.0000,  0.0000)
  23 In     0.000000    5.876238   18.272307    ( 0.0000,  0.0000,  0.0000)
  24 In     6.785295    0.000000   10.000000    ( 0.0000,  0.0000,  0.0000)
  25 In     8.481619    0.979373   12.770085    ( 0.0000,  0.0000,  0.0000)
  26 In     6.785295    1.958746   15.501326    ( 0.0000,  0.0000,  0.0000)
  27 In     6.785295   -0.000000   18.272307    ( 0.0000,  0.0000,  0.0000)
  28 In     5.088971    2.938119   10.000000    ( 0.0000,  0.0000,  0.0000)
  29 In     6.785295    3.917492   12.770085    ( 0.0000,  0.0000,  0.0000)
  30 In     5.088971    4.896865   15.501326    ( 0.0000,  0.0000,  0.0000)
  31 In     5.088971    2.938119   18.272307    ( 0.0000,  0.0000,  0.0000)
  32 In     3.392647    5.876238   10.000000    ( 0.0000,  0.0000,  0.0000)
  33 In     5.088971    6.855611   12.770085    ( 0.0000,  0.0000,  0.0000)
  34 In     3.392647    7.834984   15.501326    ( 0.0000,  0.0000,  0.0000)
  35 In     3.392647    5.876238   18.272307    ( 0.0000,  0.0000,  0.0000)
  36 C      1.696324    4.896865   19.251680    ( 0.0000,  0.0000,  0.0000)

Unit cell:
           periodic     x           y           z      points  spacing
  1. axis:    yes   10.177942    0.000000    0.000000    48     0.1836
  2. axis:    yes   -5.088971    8.814357    0.000000    48     0.1836
  3. axis:    no     0.000000    0.000000   28.310255   156     0.1815

  Lengths:  10.177942  10.177942  28.310255
  Angles:   90.000000  90.000000 120.000000

Effective grid spacing dv^(1/3) = 0.1919

     iter     time        total  log10-change:
                         energy  eigst   dens
iter:   1 01:53:32 -5690.534092
iter:   2 01:53:53 -5689.906145  -0.83  -1.44
iter:   3 01:54:14 -5689.120359  -1.27  -1.46
iter:   4 01:54:34 -5689.309757  -1.94  -1.56
iter:   5 01:54:55 -5690.181580  -1.53  -1.57
iter:   6 01:55:15 -5689.297246  -1.68  -1.81
iter:   7 01:55:36 -5689.143578  -2.06  -2.16
iter:   8 01:55:57 -5689.102863c -2.40  -2.39
iter:   9 01:56:17 -5689.076602c -2.70  -2.52
iter:  10 01:56:38 -5689.060488c -2.89  -2.66
iter:  11 01:56:58 -5689.054551c -3.20  -2.81
iter:  12 01:57:19 -5689.053175c -3.89  -2.93
iter:  13 01:57:39 -5689.052817c -4.14  -2.96
iter:  14 01:58:00 -5689.052701c -4.42  -3.01
iter:  15 01:58:21 -5689.054758c -4.23  -3.03
iter:  16 01:58:41 -5689.056309c -4.24  -3.19
iter:  17 01:59:02 -5689.056229c -4.76  -3.27
iter:  18 01:59:22 -5689.055972c -4.43  -3.32
iter:  19 01:59:43 -5689.055863c -5.20  -3.60
iter:  20 02:00:03 -5689.055785c -4.90  -3.69
iter:  21 02:00:24 -5689.055813c -5.42  -4.10c
iter:  22 02:00:44 -5689.055809c -5.97  -4.18c
iter:  23 02:01:05 -5689.055790c -6.54  -4.24c
iter:  24 02:01:26 -5689.055778c -6.55  -4.30c
iter:  25 02:01:46 -5689.055784c -6.58  -4.41c
iter:  26 02:02:07 -5689.055783c -7.20  -4.67c
iter:  27 02:02:27 -5689.055782c -7.34  -4.74c
iter:  28 02:02:48 -5689.055780c -7.57c -4.89c

Converged after 28 iterations.

Dipole moment: (-7.510389, -13.423739, -0.289095) |e|*Ang

Energy contributions relative to reference atoms: (reference = -5760142.735881)

Kinetic:       +1210.972825
Potential:     -1128.296308
External:        +0.000000
XC:            -5774.583937
Entropy (-ST):   -0.601974
Local:           +3.152627
--------------------------
Free energy:   -5689.356767
Extrapolated:  -5689.055780

Showing only first 2 kpts
 Kpt  Band  Eigenvalues  Occupancy
  0   234     -4.37555    1.82800
  0   235     -4.25049    1.50533
  0   236     -4.12212    0.91481
  0   237     -3.99032    0.36821

  1   234     -4.34757    1.77861
  1   235     -4.22967    1.42383
  1   236     -4.20574    1.32097
  1   237     -4.17124    1.15886


Fermi level: -4.13920

No gap

Forces in eV/Ang:
  0 In   -0.01181    0.00682    0.03299
  1 In   -0.01211   -0.00606    0.04756
  2 In   -0.01217    0.00370    0.03560
  3 In    0.01692   -0.00977    0.04006
  4 In    0.07099    0.01199    0.07072
  5 In    0.02443    0.01677   -0.03653
  6 In    0.02097   -0.02007    0.01110
  7 In   -0.07422   -0.07260   -0.02353
  8 In    0.00309    0.03125    0.05319
  9 In    0.01151   -0.00665    0.04498
 10 In   -0.01122    0.00648   -0.00845
 11 In   -0.00309    0.03373    0.06480
 12 In   -0.02552   -0.01830    0.05319
 13 In    0.00270    0.00764    0.03946
 14 In   -0.01083    0.01396    0.01138
 15 In   -0.03076   -0.01419    0.06480
 16 In   -0.02902    0.02313   -0.00815
 17 In   -0.01758    0.01015   -0.03688
 18 In    0.00578   -0.00334   -0.14950
 19 In   -0.00910   -0.51277    0.07163
 20 In    0.02851   -0.01646    0.02987
 21 In   -0.00231   -0.02954   -0.03653
 22 In    0.02786   -0.00813    0.01110
 23 In   -0.43745    0.25256    0.06982
 24 In    0.02511   -0.06748    0.07072
 25 In   -0.00290    0.00167    0.04270
 26 In    0.02111   -0.01219    0.01656
 27 In    0.02577    0.10058   -0.02353
 28 In   -0.04945    0.02855    0.07197
 29 In   -0.00526   -0.00616    0.03946
 30 In   -0.01750    0.00239    0.01138
 31 In    0.09018   -0.05207   -0.00842
 32 In   -0.03454    0.01357   -0.00815
 33 In   -0.00080    0.01352    0.04756
 34 In   -0.00929    0.00869    0.03560
 35 In    0.43952    0.26427    0.07163
 36 C    -0.00764    0.00441   -0.10550

      Step     Time          Energy         fmax
BFGS:    0 02:02:55    -5689.055780        0.5178
System changes: positions 

Initializing position-dependent things.

Density initialized from wave functions
                                                  
                                                  
                                                  
                                                  
                                                  
                      C                           
           In      In      In                     
                                                  
            IIn     IIn     InIn                  
               In       In      In                
              In      In       In                 
                                                  
               InIn     IIn     IIn               
                                                  
                  In      In      In              
                    In       In      In           
           In      In      In                     
                                                  
             In      In       In                  
               In       In      In                
                                                  
                                                  
                                                  
                                                  

Positions:
   0 In    -0.000000    0.000000   10.000000    ( 0.0000,  0.0000,  0.0000)
   1 In     1.696324    0.979373   12.770085    ( 0.0000,  0.0000,  0.0000)
   2 In    -0.000174    1.958799   15.501834    ( 0.0000,  0.0000,  0.0000)
   3 In     0.000242   -0.000140   18.272879    ( 0.0000,  0.0000,  0.0000)
   4 In    -1.696324    2.938119   10.000000    ( 0.0000,  0.0000,  0.0000)
   5 In     0.000000    3.917492   12.770085    ( 0.0000,  0.0000,  0.0000)
   6 In    -1.696024    4.896578   15.501484    ( 0.0000,  0.0000,  0.0000)
   7 In    -1.697384    2.937082   18.271971    ( 0.0000,  0.0000,  0.0000)
   8 In    -3.392647    5.876238   10.000000    ( 0.0000,  0.0000,  0.0000)
   9 In    -1.696324    6.855611   12.770085    ( 0.0000,  0.0000,  0.0000)
  10 In    -3.392808    7.835076   15.501205    ( 0.0000,  0.0000,  0.0000)
  11 In    -3.392692    5.876720   18.273233    ( 0.0000,  0.0000,  0.0000)
  12 In     3.392647    0.000000   10.000000    ( 0.0000,  0.0000,  0.0000)
  13 In     5.088971    0.979373   12.770085    ( 0.0000,  0.0000,  0.0000)
  14 In     3.392493    1.958945   15.501488    ( 0.0000,  0.0000,  0.0000)
  15 In     3.392208   -0.000203   18.273233    ( 0.0000,  0.0000,  0.0000)
  16 In     1.696324    2.938119   10.000000    ( 0.0000,  0.0000,  0.0000)
  17 In     3.392647    3.917492   12.770085    ( 0.0000,  0.0000,  0.0000)
  18 In     1.696406    4.896817   15.499190    ( 0.0000,  0.0000,  0.0000)
  19 In     1.696194    2.930794   18.273330    ( 0.0000,  0.0000,  0.0000)
  20 In    -0.000000    5.876238   10.000000    ( 0.0000,  0.0000,  0.0000)
  21 In     1.696324    6.855611   12.770085    ( 0.0000,  0.0000,  0.0000)
  22 In     0.000398    7.834867   15.501484    ( 0.0000,  0.0000,  0.0000)
  23 In    -0.006249    5.879846   18.273305    ( 0.0000,  0.0000,  0.0000)
  24 In     6.785295    0.000000   10.000000    ( 0.0000,  0.0000,  0.0000)
  25 In     8.481619    0.979373   12.770085    ( 0.0000,  0.0000,  0.0000)
  26 In     6.785596    1.958572   15.501562    ( 0.0000,  0.0000,  0.0000)
  27 In     6.785663    0.001437   18.271971    ( 0.0000,  0.0000,  0.0000)
  28 In     5.088971    2.938119   10.000000    ( 0.0000,  0.0000,  0.0000)
  29 In     6.785295    3.917492   12.770085    ( 0.0000,  0.0000,  0.0000)
  30 In     5.088721    4.896899   15.501488    ( 0.0000,  0.0000,  0.0000)
  31 In     5.090259    2.937375   18.272187    ( 0.0000,  0.0000,  0.0000)
  32 In     3.392647    5.876238   10.000000    ( 0.0000,  0.0000,  0.0000)
  33 In     5.088971    6.855611   12.770085    ( 0.0000,  0.0000,  0.0000)
  34 In     3.392515    7.835108   15.501834    ( 0.0000,  0.0000,  0.0000)
  35 In     3.398926    5.880013   18.273330    ( 0.0000,  0.0000,  0.0000)
  36 C      1.696215    4.896928   19.250173    ( 0.0000,  0.0000,  0.0000)

Unit cell:
           periodic     x           y           z      points  spacing
  1. axis:    yes   10.177942    0.000000    0.000000    48     0.1836
  2. axis:    yes   -5.088971    8.814357    0.000000    48     0.1836
  3. axis:    no     0.000000    0.000000   28.310255   156     0.1815

  Lengths:  10.177942  10.177942  28.310255
  Angles:   90.000000  90.000000 120.000000

Effective grid spacing dv^(1/3) = 0.1919

     iter     time        total  log10-change:
                         energy  eigst   dens
iter:   1 02:03:33 -5689.069040  -3.48
iter:   2 02:03:54 -5689.068168  -4.45  -3.46
iter:   3 02:04:14 -5689.067842c -4.92  -3.54
iter:   4 02:04:35 -5689.067565c -5.10  -3.70
iter:   5 02:04:56 -5689.067521c -5.60  -4.07c
iter:   6 02:05:16 -5689.067527c -5.65  -4.23c
iter:   7 02:05:37 -5689.067529c -6.42  -4.36c
iter:   8 02:05:58 -5689.067525c -6.82  -4.48c
iter:   9 02:06:18 -5689.067509c -6.83  -4.56c
iter:  10 02:06:39 -5689.067510c -7.24  -4.73c
iter:  11 02:07:00 -5689.067518c -7.48c -4.79c

Converged after 11 iterations.

Dipole moment: (-7.399277, -13.487609, -0.289352) |e|*Ang

Energy contributions relative to reference atoms: (reference = -5760142.735881)

Kinetic:       +1210.663920
Potential:     -1128.063806
External:        +0.000000
XC:            -5774.520845
Entropy (-ST):   -0.602044
Local:           +3.154234
--------------------------
Free energy:   -5689.368540
Extrapolated:  -5689.067518

Showing only first 2 kpts
 Kpt  Band  Eigenvalues  Occupancy
  0   234     -4.37583    1.82771
  0   235     -4.25171    1.50814
  0   236     -4.12198    0.91182
  0   237     -3.99214    0.37229

  1   234     -4.34786    1.77827
  1   235     -4.23025    1.42428
  1   236     -4.20691    1.32409
  1   237     -4.17299    1.16510


Fermi level: -4.13967

No gap

Forces in eV/Ang:
  0 In   -0.01161    0.00670    0.03293
  1 In   -0.01200   -0.00375    0.04718
  2 In   -0.01380   -0.00037    0.03196
  3 In    0.01857   -0.01072    0.03866
  4 In    0.07145    0.01243    0.06997
  5 In    0.02368    0.01608   -0.03812
  6 In    0.01507   -0.01938    0.00912
  7 In   -0.07044   -0.06886   -0.01925
  8 In    0.00308    0.03100    0.05322
  9 In    0.01325   -0.00765    0.04442
 10 In   -0.01057    0.00611   -0.00022
 11 In   -0.00272    0.03471    0.06167
 12 In   -0.02530   -0.01817    0.05322
 13 In    0.00248    0.00748    0.04088
 14 In   -0.00761    0.00946    0.00914
 15 In   -0.03143   -0.01500    0.06167
 16 In   -0.02873    0.02302   -0.00811
 17 In   -0.01674    0.00966   -0.03875
 18 In    0.00586   -0.00338   -0.12821
 19 In   -0.00860   -0.43404    0.09194
 20 In    0.02820   -0.01628    0.02985
 21 In   -0.00208   -0.02854   -0.03812
 22 In    0.02432   -0.00337    0.00912
 23 In   -0.37148    0.21447    0.08889
 24 In    0.02496   -0.06809    0.06997
 25 In   -0.00293    0.00169    0.04411
 26 In    0.01950   -0.01126    0.01567
 27 In    0.02442    0.09544   -0.01925
 28 In   -0.05002    0.02888    0.07145
 29 In   -0.00524   -0.00589    0.04088
 30 In   -0.01200    0.00186    0.00914
 31 In    0.08622   -0.04978   -0.00551
 32 In   -0.03430    0.01337   -0.00811
 33 In   -0.00276    0.01226    0.04718
 34 In   -0.00658    0.01214    0.03196
 35 In    0.37159    0.22447    0.09194
 36 C    -0.00544    0.00314   -0.16996

BFGS:    1 02:07:07    -5689.067518        0.4438
System changes: positions 

Initializing position-dependent things.

Density initialized from wave functions
                                                  
                                                  
                                                  
                                                  
                                                  
                      C                           
           In      In      In                     
                                                  
            IIn     IIn     InIn                  
               In       In      In                
              In      In       In                 
                                                  
               InIn     IIn     IIn               
                                                  
                  In      In      In              
                    In       In      In           
           In      In      In                     
                                                  
             In      In       In                  
               In       In      In                
                                                  
                                                  
                                                  
                                                  

Positions:
   0 In    -0.000000    0.000000   10.000000    ( 0.0000,  0.0000,  0.0000)
   1 In     1.696324    0.979373   12.770085    ( 0.0000,  0.0000,  0.0000)
   2 In    -0.001806    1.958792   15.505683    ( 0.0000,  0.0000,  0.0000)
   3 In     0.002444   -0.001411   18.277508    ( 0.0000,  0.0000,  0.0000)
   4 In    -1.696324    2.938119   10.000000    ( 0.0000,  0.0000,  0.0000)
   5 In     0.000000    3.917492   12.770085    ( 0.0000,  0.0000,  0.0000)
   6 In    -1.694170    4.894259   15.502591    ( 0.0000,  0.0000,  0.0000)
   7 In    -1.705828    2.928827   18.269633    ( 0.0000,  0.0000,  0.0000)
   8 In    -3.392647    5.876238   10.000000    ( 0.0000,  0.0000,  0.0000)
   9 In    -1.696324    6.855611   12.770085    ( 0.0000,  0.0000,  0.0000)
  10 In    -3.394076    7.835808   15.501103    ( 0.0000,  0.0000,  0.0000)
  11 In    -3.393020    5.880854   18.280623    ( 0.0000,  0.0000,  0.0000)
  12 In     3.392647    0.000000   10.000000    ( 0.0000,  0.0000,  0.0000)
  13 In     5.088971    0.979373   12.770085    ( 0.0000,  0.0000,  0.0000)
  14 In     3.391555    1.960116   15.502600    ( 0.0000,  0.0000,  0.0000)
  15 In     3.388463   -0.001986   18.280623    ( 0.0000,  0.0000,  0.0000)
  16 In     1.696324    2.938119   10.000000    ( 0.0000,  0.0000,  0.0000)
  17 In     3.392647    3.917492   12.770085    ( 0.0000,  0.0000,  0.0000)
  18 In     1.697105    4.896414   15.483688    ( 0.0000,  0.0000,  0.0000)
  19 In     1.695162    2.878255   18.284118    ( 0.0000,  0.0000,  0.0000)
  20 In    -0.000000    5.876238   10.000000    ( 0.0000,  0.0000,  0.0000)
  21 In     1.696324    6.855611   12.770085    ( 0.0000,  0.0000,  0.0000)
  22 In     0.003334    7.834422   15.502591    ( 0.0000,  0.0000,  0.0000)
  23 In    -0.051202    5.905799   18.283740    ( 0.0000,  0.0000,  0.0000)
  24 In     6.785295    0.000000   10.000000    ( 0.0000,  0.0000,  0.0000)
  25 In     8.481619    0.979373   12.770085    ( 0.0000,  0.0000,  0.0000)
  26 In     6.787939    1.957219   15.503442    ( 0.0000,  0.0000,  0.0000)
  27 In     6.788590    0.012877   18.269633    ( 0.0000,  0.0000,  0.0000)
  28 In     5.088971    2.938119   10.000000    ( 0.0000,  0.0000,  0.0000)
  29 In     6.785295    3.917492   12.770085    ( 0.0000,  0.0000,  0.0000)
  30 In     5.087238    4.897126   15.502600    ( 0.0000,  0.0000,  0.0000)
  31 In     5.100588    2.931412   18.271502    ( 0.0000,  0.0000,  0.0000)
  32 In     3.392647    5.876238   10.000000    ( 0.0000,  0.0000,  0.0000)
  33 In     5.088971    6.855611   12.770085    ( 0.0000,  0.0000,  0.0000)
  34 In     3.391704    7.836525   15.505683    ( 0.0000,  0.0000,  0.0000)
  35 In     3.443911    5.907176   18.284118    ( 0.0000,  0.0000,  0.0000)
  36 C      1.695545    4.897314   19.230479    ( 0.0000,  0.0000,  0.0000)

Unit cell:
           periodic     x           y           z      points  spacing
  1. axis:    yes   10.177942    0.000000    0.000000    48     0.1836
  2. axis:    yes   -5.088971    8.814357    0.000000    48     0.1836
  3. axis:    no     0.000000    0.000000   28.310255   156     0.1815

  Lengths:  10.177942  10.177942  28.310255
  Angles:   90.000000  90.000000 120.000000

Effective grid spacing dv^(1/3) = 0.1919

     iter     time        total  log10-change:
                         energy  eigst   dens
iter:   1 02:07:45 -5689.184841  -1.76
iter:   2 02:08:05 -5689.146885  -2.74  -2.63
iter:   3 02:08:26 -5689.132862c -3.25  -2.71
iter:   4 02:08:47 -5689.120135c -3.42  -2.86
iter:   5 02:09:07 -5689.119261c -3.95  -3.23
iter:   6 02:09:28 -5689.118515c -4.11  -3.36
iter:   7 02:09:49 -5689.118625c -4.64  -3.53
iter:   8 02:10:10 -5689.118716c -5.01  -3.64
iter:   9 02:10:30 -5689.118733c -5.17  -3.72
iter:  10 02:10:51 -5689.118783c -5.63  -3.90
iter:  11 02:11:12 -5689.118795c -6.11  -3.93
iter:  12 02:11:32 -5689.118879c -5.79  -4.01c
iter:  13 02:11:53 -5689.118876c -6.39  -4.29c
iter:  14 02:12:14 -5689.118872c -6.77  -4.32c
iter:  15 02:12:35 -5689.118876c -6.44  -4.40c
iter:  16 02:12:55 -5689.118873c -7.28  -4.75c
iter:  17 02:13:16 -5689.118869c -7.28  -4.79c
iter:  18 02:13:37 -5689.118871c -7.65c -5.01c

Converged after 18 iterations.

Dipole moment: (-6.562606, -13.960540, -0.281981) |e|*Ang

Energy contributions relative to reference atoms: (reference = -5760142.735881)

Kinetic:       +1208.164961
Potential:     -1126.096683
External:        +0.000000
XC:            -5774.037579
Entropy (-ST):   -0.602533
Local:           +3.151697
--------------------------
Free energy:   -5689.420137
Extrapolated:  -5689.118871

Showing only first 2 kpts
 Kpt  Band  Eigenvalues  Occupancy
  0   234     -4.37460    1.82595
  0   235     -4.25788    1.53110
  0   236     -4.11834    0.89433
  0   237     -4.00189    0.40311

  1   234     -4.34650    1.77581
  1   235     -4.23210    1.43232
  1   236     -4.21054    1.34075
  1   237     -4.18184    1.20836


Fermi level: -4.13955

No gap

Forces in eV/Ang:
  0 In   -0.01272    0.00735    0.03474
  1 In   -0.01224   -0.00040    0.04934
  2 In   -0.00460   -0.00204    0.01889
  3 In    0.01072   -0.00619    0.02310
  4 In    0.07448    0.01410    0.06738
  5 In    0.01569    0.01046   -0.04609
  6 In    0.00562   -0.00817    0.00796
  7 In   -0.03888   -0.03749   -0.00072
  8 In    0.00335    0.02873    0.05441
  9 In    0.01490   -0.00860    0.04709
 10 In   -0.00314    0.00181    0.00342
 11 In    0.00032    0.01898    0.03351
 12 In   -0.02321   -0.01727    0.05441
 13 In    0.00152    0.00776    0.04858
 14 In   -0.00308    0.00297    0.00698
 15 In   -0.01628   -0.00977    0.03351
 16 In   -0.02792    0.02145   -0.01109
 17 In   -0.00847    0.00489   -0.04724
 18 In    0.00624   -0.00360    0.00399
 19 In   -0.00311   -0.02919    0.19641
 20 In    0.02615   -0.01510    0.02740
 21 In   -0.00121   -0.01882   -0.04609
 22 In    0.00989   -0.00078    0.00796
 23 In   -0.03231    0.01866    0.18797
 24 In    0.02503   -0.07155    0.06738
 25 In   -0.00338    0.00195    0.04989
 26 In    0.00740   -0.00427   -0.00526
 27 In    0.01303    0.05241   -0.00072
 28 In   -0.05303    0.03062    0.07019
 29 In   -0.00596   -0.00520    0.04858
 30 In   -0.00411    0.00118    0.00698
 31 In    0.05110   -0.02950    0.00521
 32 In   -0.03253    0.01346   -0.01109
 33 In   -0.00577    0.01080    0.04934
 34 In   -0.00053    0.00500    0.01889
 35 In    0.02372    0.01729    0.19641
 36 C     0.00412   -0.00238   -0.42969

BFGS:    2 02:13:44    -5689.118871        0.4297
System changes: positions 

Initializing position-dependent things.

Density initialized from wave functions
                                                  
                                                  
                                                  
                                                  
                                                  
                      C                           
           In      In      In                     
                                                  
            IIn     IIn     InIn                  
               In       In      In                
              In       In      In                 
                                                  
               InIn     IIn     IIn               
                                                  
                  In      In      In              
                    In       In      In           
           In      In      In                     
                                                  
             In      In       In                  
               In       In      In                
                                                  
                                                  
                                                  
                                                  

Positions:
   0 In    -0.000000    0.000000   10.000000    ( 0.0000,  0.0000,  0.0000)
   1 In     1.696324    0.979373   12.770085    ( 0.0000,  0.0000,  0.0000)
   2 In    -0.002548    1.958782   15.507654    ( 0.0000,  0.0000,  0.0000)
   3 In     0.003539   -0.002043   18.279861    ( 0.0000,  0.0000,  0.0000)
   4 In    -1.696324    2.938119   10.000000    ( 0.0000,  0.0000,  0.0000)
   5 In     0.000000    3.917492   12.770085    ( 0.0000,  0.0000,  0.0000)
   6 In    -1.693255    4.893147   15.503216    ( 0.0000,  0.0000,  0.0000)
   7 In    -1.710067    2.924693   18.268631    ( 0.0000,  0.0000,  0.0000)
   8 In    -3.392647    5.876238   10.000000    ( 0.0000,  0.0000,  0.0000)
   9 In    -1.696324    6.855611   12.770085    ( 0.0000,  0.0000,  0.0000)
  10 In    -3.394660    7.836146   15.501062    ( 0.0000,  0.0000,  0.0000)
  11 In    -3.393151    5.882906   18.284321    ( 0.0000,  0.0000,  0.0000)
  12 In     3.392647    0.000000   10.000000    ( 0.0000,  0.0000,  0.0000)
  13 In     5.088971    0.979373   12.770085    ( 0.0000,  0.0000,  0.0000)
  14 In     3.391085    1.960688   15.503209    ( 0.0000,  0.0000,  0.0000)
  15 In     3.386621   -0.002898   18.284321    ( 0.0000,  0.0000,  0.0000)
  16 In     1.696324    2.938119   10.000000    ( 0.0000,  0.0000,  0.0000)
  17 In     3.392647    3.917492   12.770085    ( 0.0000,  0.0000,  0.0000)
  18 In     1.697512    4.896179   15.477278    ( 0.0000,  0.0000,  0.0000)
  19 In     1.694676    2.855631   18.292227    ( 0.0000,  0.0000,  0.0000)
  20 In    -0.000000    5.876238   10.000000    ( 0.0000,  0.0000,  0.0000)
  21 In     1.696324    6.855611   12.770085    ( 0.0000,  0.0000,  0.0000)
  22 In     0.004754    7.834185   15.503216    ( 0.0000,  0.0000,  0.0000)
  23 In    -0.070693    5.917052   18.291548    ( 0.0000,  0.0000,  0.0000)
  24 In     6.785295    0.000000   10.000000    ( 0.0000,  0.0000,  0.0000)
  25 In     8.481619    0.979373   12.770085    ( 0.0000,  0.0000,  0.0000)
  26 In     6.789053    1.956576   15.504110    ( 0.0000,  0.0000,  0.0000)
  27 In     6.790051    0.018615   18.268631    ( 0.0000,  0.0000,  0.0000)
  28 In     5.088971    2.938119   10.000000    ( 0.0000,  0.0000,  0.0000)
  29 In     6.785295    3.917492   12.770085    ( 0.0000,  0.0000,  0.0000)
  30 In     5.086508    4.897246   15.503209    ( 0.0000,  0.0000,  0.0000)
  31 In     5.105837    2.928381   18.271302    ( 0.0000,  0.0000,  0.0000)
  32 In     3.392647    5.876238   10.000000    ( 0.0000,  0.0000,  0.0000)
  33 In     5.088971    6.855611   12.770085    ( 0.0000,  0.0000,  0.0000)
  34 In     3.391342    7.837172   15.507654    ( 0.0000,  0.0000,  0.0000)
  35 In     3.463261    5.918908   18.292227    ( 0.0000,  0.0000,  0.0000)
  36 C      1.695336    4.897435   19.214496    ( 0.0000,  0.0000,  0.0000)

Unit cell:
           periodic     x           y           z      points  spacing
  1. axis:    yes   10.177942    0.000000    0.000000    48     0.1836
  2. axis:    yes   -5.088971    8.814357    0.000000    48     0.1836
  3. axis:    no     0.000000    0.000000   28.310255   156     0.1815

  Lengths:  10.177942  10.177942  28.310255
  Angles:   90.000000  90.000000 120.000000

Effective grid spacing dv^(1/3) = 0.1919

     iter     time        total  log10-change:
                         energy  eigst   dens
iter:   1 02:14:22 -5689.133248  -2.44
iter:   2 02:14:42 -5689.130965  -3.42  -3.17
iter:   3 02:15:03 -5689.128758c -3.83  -3.31
iter:   4 02:15:24 -5689.128828c -4.57  -3.57
iter:   5 02:15:45 -5689.128716c -4.71  -3.59
iter:   6 02:16:06 -5689.128728c -4.97  -3.84
iter:   7 02:16:26 -5689.128745c -5.57  -3.93
iter:   8 02:16:47 -5689.128778c -5.69  -4.08c
iter:   9 02:17:08 -5689.128773c -6.20  -4.20c
iter:  10 02:17:29 -5689.128762c -6.57  -4.26c
iter:  11 02:17:50 -5689.128765c -6.73  -4.36c
iter:  12 02:18:10 -5689.128777c -6.75  -4.45c
iter:  13 02:18:31 -5689.128778c -7.29  -4.72c
iter:  14 02:18:52 -5689.128781c -7.24  -4.76c
iter:  15 02:19:13 -5689.128784c -7.65c -4.94c

Converged after 15 iterations.

Dipole moment: (-6.142869, -14.193451, -0.274710) |e|*Ang

Energy contributions relative to reference atoms: (reference = -5760142.735881)

Kinetic:       +1207.268901
Potential:     -1125.374944
External:        +0.000000
XC:            -5773.872759
Entropy (-ST):   -0.602658
Local:           +3.151348
--------------------------
Free energy:   -5689.430113
Extrapolated:  -5689.128784

Showing only first 2 kpts
 Kpt  Band  Eigenvalues  Occupancy
  0   234     -4.37260    1.82481
  0   235     -4.26035    1.54440
  0   236     -4.11595    0.88886
  0   237     -4.00495    0.41726

  1   234     -4.34472    1.77482
  1   235     -4.23224    1.43808
  1   236     -4.20956    1.34207
  1   237     -4.18395    1.22452


Fermi level: -4.13827

No gap

Forces in eV/Ang:
  0 In   -0.01366    0.00789    0.03434
  1 In   -0.01341    0.00222    0.04899
  2 In   -0.00137   -0.00399    0.01191
  3 In    0.00962   -0.00555    0.01499
  4 In    0.07420    0.01280    0.06299
  5 In    0.01257    0.00734   -0.04706
  6 In   -0.00009   -0.00354    0.00685
  7 In   -0.02842   -0.02663    0.00780
  8 In    0.00318    0.02827    0.05330
  9 In    0.01643   -0.00949    0.04696
 10 In   -0.00012    0.00007    0.01013
 11 In    0.00125    0.01696    0.02189
 12 In   -0.02289   -0.01689    0.05330
 13 In    0.00035    0.00704    0.05246
 14 In   -0.00018   -0.00114    0.00568
 15 In   -0.01406   -0.00956    0.02189
 16 In   -0.02825    0.01722   -0.01422
 17 In   -0.00536    0.00309   -0.04867
 18 In    0.00640   -0.00370    0.06370
 19 In    0.00017    0.12544    0.19239
 20 In    0.02278   -0.01315    0.02435
 21 In   -0.00007   -0.01455   -0.04706
 22 In    0.00302    0.00185    0.00685
 23 In    0.09730   -0.05618    0.18322
 24 In    0.02602   -0.07066    0.06299
 25 In   -0.00196    0.00113    0.05280
 26 In    0.00221   -0.00128   -0.01085
 27 In    0.00885    0.03792    0.00780
 28 In   -0.05208    0.03007    0.06614
 29 In   -0.00593   -0.00382    0.05246
 30 In    0.00089    0.00073    0.00568
 31 In    0.04015   -0.02318    0.01165
 32 In   -0.02904    0.01585   -0.01422
 33 In   -0.00863    0.01050    0.04899
 34 In    0.00277    0.00318    0.01191
 35 In   -0.10855   -0.06287    0.19239
 36 C     0.00781   -0.00451   -0.50345

BFGS:    3 02:19:20    -5689.128784        0.5035
System changes: positions 

Initializing position-dependent things.

Density initialized from wave functions
                                                  
                                                  
                                                  
                                                  
                                                  
                      C                           
           In      In      In                     
                                                  
            IIn     IIn     InIn                  
               In       In      In                
              In       In      In                 
                                                  
               InIn     IIn     IIn               
                                                  
                  In      In      In              
                    In       In      In           
           In      In      In                     
                                                  
             In      In       In                  
               In       In      In                
                                                  
                                                  
                                                  
                                                  

Positions:
   0 In    -0.000000    0.000000   10.000000    ( 0.0000,  0.0000,  0.0000)
   1 In     1.696324    0.979373   12.770085    ( 0.0000,  0.0000,  0.0000)
   2 In    -0.003030    1.958735   15.509164    ( 0.0000,  0.0000,  0.0000)
   3 In     0.004407   -0.002545   18.281652    ( 0.0000,  0.0000,  0.0000)
   4 In    -1.696324    2.938119   10.000000    ( 0.0000,  0.0000,  0.0000)
   5 In     0.000000    3.917492   12.770085    ( 0.0000,  0.0000,  0.0000)
   6 In    -1.692625    4.892368   15.503762    ( 0.0000,  0.0000,  0.0000)
   7 In    -1.713343    2.921518   18.268110    ( 0.0000,  0.0000,  0.0000)
   8 In    -3.392647    5.876238   10.000000    ( 0.0000,  0.0000,  0.0000)
   9 In    -1.696324    6.855611   12.770085    ( 0.0000,  0.0000,  0.0000)
  10 In    -3.395038    7.836364   15.501164    ( 0.0000,  0.0000,  0.0000)
  11 In    -3.393213    5.884533   18.287118    ( 0.0000,  0.0000,  0.0000)
  12 In     3.392647    0.000000   10.000000    ( 0.0000,  0.0000,  0.0000)
  13 In     5.088971    0.979373   12.770085    ( 0.0000,  0.0000,  0.0000)
  14 In     3.390756    1.961069   15.503725    ( 0.0000,  0.0000,  0.0000)
  15 In     3.385181   -0.003658   18.287118    ( 0.0000,  0.0000,  0.0000)
  16 In     1.696324    2.938119   10.000000    ( 0.0000,  0.0000,  0.0000)
  17 In     3.392647    3.917492   12.770085    ( 0.0000,  0.0000,  0.0000)
  18 In     1.697894    4.895958   15.474263    ( 0.0000,  0.0000,  0.0000)
  19 In     1.694370    2.842963   18.300808    ( 0.0000,  0.0000,  0.0000)
  20 In    -0.000000    5.876238   10.000000    ( 0.0000,  0.0000,  0.0000)
  21 In     1.696324    6.855611   12.770085    ( 0.0000,  0.0000,  0.0000)
  22 In     0.005744    7.834029   15.503762    ( 0.0000,  0.0000,  0.0000)
  23 In    -0.081797    5.923463   18.299776    ( 0.0000,  0.0000,  0.0000)
  24 In     6.785295    0.000000   10.000000    ( 0.0000,  0.0000,  0.0000)
  25 In     8.481619    0.979373   12.770085    ( 0.0000,  0.0000,  0.0000)
  26 In     6.789816    1.956136   15.504338    ( 0.0000,  0.0000,  0.0000)
  27 In     6.791161    0.023040   18.268110    ( 0.0000,  0.0000,  0.0000)
  28 In     5.088971    2.938119   10.000000    ( 0.0000,  0.0000,  0.0000)
  29 In     6.785295    3.917492   12.770085    ( 0.0000,  0.0000,  0.0000)
  30 In     5.086013    4.897341   15.503725    ( 0.0000,  0.0000,  0.0000)
  31 In     5.109985    2.925986   18.271378    ( 0.0000,  0.0000,  0.0000)
  32 In     3.392647    5.876238   10.000000    ( 0.0000,  0.0000,  0.0000)
  33 In     5.088971    6.855611   12.770085    ( 0.0000,  0.0000,  0.0000)
  34 In     3.391141    7.837613   15.509164    ( 0.0000,  0.0000,  0.0000)
  35 In     3.474078    5.925508   18.300808    ( 0.0000,  0.0000,  0.0000)
  36 C      1.695334    4.897436   19.195284    ( 0.0000,  0.0000,  0.0000)

Unit cell:
           periodic     x           y           z      points  spacing
  1. axis:    yes   10.177942    0.000000    0.000000    48     0.1836
  2. axis:    yes   -5.088971    8.814357    0.000000    48     0.1836
  3. axis:    no     0.000000    0.000000   28.310255   156     0.1815

  Lengths:  10.177942  10.177942  28.310255
  Angles:   90.000000  90.000000 120.000000

Effective grid spacing dv^(1/3) = 0.1919

     iter     time        total  log10-change:
                         energy  eigst   dens
iter:   1 02:19:58 -5689.142770  -2.77
iter:   2 02:20:19 -5689.139841  -3.70  -3.03
iter:   3 02:20:39 -5689.137684c -4.40  -3.17
iter:   4 02:21:00 -5689.137425c -4.77  -3.61
iter:   5 02:21:21 -5689.137414c -4.99  -3.74
iter:   6 02:21:42 -5689.137499c -5.16  -3.96
iter:   7 02:22:02 -5689.137469c -5.68  -4.01c
iter:   8 02:22:23 -5689.137428c -5.98  -4.21c
iter:   9 02:22:44 -5689.137432c -6.71  -4.41c
iter:  10 02:23:04 -5689.137429c -7.01  -4.48c
iter:  11 02:23:25 -5689.137429c -6.97  -4.61c
iter:  12 02:23:46 -5689.137431c -7.22  -4.70c
iter:  13 02:24:07 -5689.137441c -7.54c -4.83c

Converged after 13 iterations.

Dipole moment: (-5.824087, -14.368390, -0.266155) |e|*Ang

Energy contributions relative to reference atoms: (reference = -5760142.735881)

Kinetic:       +1207.001487
Potential:     -1125.161299
External:        +0.000000
XC:            -5773.826412
Entropy (-ST):   -0.602462
Local:           +3.150013
--------------------------
Free energy:   -5689.438672
Extrapolated:  -5689.137441

Showing only first 2 kpts
 Kpt  Band  Eigenvalues  Occupancy
  0   234     -4.36918    1.82302
  0   235     -4.26170    1.55715
  0   236     -4.11332    0.88729
  0   237     -4.00503    0.42522

  1   234     -4.34197    1.77394
  1   235     -4.23090    1.44201
  1   236     -4.20664    1.33939
  1   237     -4.18314    1.23165


Fermi level: -4.13596

No gap

Forces in eV/Ang:
  0 In   -0.01451    0.00838    0.03336
  1 In   -0.01305    0.00542    0.04889
  2 In    0.00279   -0.00428    0.00943
  3 In    0.00933   -0.00539    0.00889
  4 In    0.07582    0.01364    0.06036
  5 In    0.01101    0.00605   -0.05123
  6 In   -0.00379    0.00138    0.00866
  7 In   -0.01549   -0.01489    0.01500
  8 In    0.00353    0.02743    0.05249
  9 In    0.01877   -0.01084    0.04718
 10 In    0.00321   -0.00186    0.01529
 11 In    0.00158    0.01515    0.01235
 12 In   -0.02199   -0.01677    0.05249
 13 In   -0.00147    0.00654    0.05713
 14 In    0.00141   -0.00388    0.00751
 15 In   -0.01233   -0.00895    0.01235
 16 In   -0.02819    0.01646   -0.01495
 17 In   -0.00291    0.00168   -0.05355
 18 In    0.00641   -0.00370    0.10296
 19 In    0.00076    0.18216    0.17096
 20 In    0.02183   -0.01260    0.02393
 21 In    0.00026   -0.01256   -0.05123
 22 In   -0.00309    0.00259    0.00866
 23 In    0.14691   -0.08482    0.16017
 24 In    0.02610   -0.07248    0.06036
 25 In   -0.00113    0.00065    0.05654
 26 In   -0.00283    0.00163   -0.01866
 27 In    0.00515    0.02086    0.01500
 28 In   -0.05370    0.03101    0.06418
 29 In   -0.00640   -0.00200    0.05713
 30 In    0.00406    0.00072    0.00751
 31 In    0.02609   -0.01506    0.01633
 32 In   -0.02835    0.01619   -0.01495
 33 In   -0.01122    0.00859    0.04889
 34 In    0.00510   -0.00028    0.00943
 35 In   -0.15737   -0.09174    0.17096
 36 C     0.00291   -0.00168   -0.48040

BFGS:    4 02:24:14    -5689.137441        0.4804
System changes: positions 

Initializing position-dependent things.

Density initialized from wave functions
                                                  
                                                  
                                                  
                                                  
                                                  
                      C                           
           In      In       In                    
                                                  
            IIn     IIn     InIn                  
               In       In      In                
              In       In      In                 
                                                  
               InIn     IIn     IIn               
                                                  
                  In      In      In              
                    In       In      In           
           In      In      In                     
                                                  
             In      In       In                  
               In       In      In                
                                                  
                                                  
                                                  
                                                  

Positions:
   0 In    -0.000000    0.000000   10.000000    ( 0.0000,  0.0000,  0.0000)
   1 In     1.696324    0.979373   12.770085    ( 0.0000,  0.0000,  0.0000)
   2 In    -0.003820    1.958569   15.512545    ( 0.0000,  0.0000,  0.0000)
   3 In     0.006406   -0.003699   18.285506    ( 0.0000,  0.0000,  0.0000)
   4 In    -1.696324    2.938119   10.000000    ( 0.0000,  0.0000,  0.0000)
   5 In     0.000000    3.917492   12.770085    ( 0.0000,  0.0000,  0.0000)
   6 In    -1.691422    4.890899   15.505202    ( 0.0000,  0.0000,  0.0000)
   7 In    -1.720333    2.914743   18.267586    ( 0.0000,  0.0000,  0.0000)
   8 In    -3.392647    5.876238   10.000000    ( 0.0000,  0.0000,  0.0000)
   9 In    -1.696324    6.855611   12.770085    ( 0.0000,  0.0000,  0.0000)
  10 In    -3.395659    7.836722   15.501756    ( 0.0000,  0.0000,  0.0000)
  11 In    -3.393280    5.888221   18.293074    ( 0.0000,  0.0000,  0.0000)
  12 In     3.392647    0.000000   10.000000    ( 0.0000,  0.0000,  0.0000)
  13 In     5.088971    0.979373   12.770085    ( 0.0000,  0.0000,  0.0000)
  14 In     3.390101    1.961755   15.505068    ( 0.0000,  0.0000,  0.0000)
  15 In     3.381954   -0.005444   18.293074    ( 0.0000,  0.0000,  0.0000)
  16 In     1.696324    2.938119   10.000000    ( 0.0000,  0.0000,  0.0000)
  17 In     3.392647    3.917492   12.770085    ( 0.0000,  0.0000,  0.0000)
  18 In     1.698877    4.895391   15.471887    ( 0.0000,  0.0000,  0.0000)
  19 In     1.693780    2.823755   18.323888    ( 0.0000,  0.0000,  0.0000)
  20 In    -0.000000    5.876238   10.000000    ( 0.0000,  0.0000,  0.0000)
  21 In     1.696324    6.855611   12.770085    ( 0.0000,  0.0000,  0.0000)
  22 In     0.007618    7.833722   15.505202    ( 0.0000,  0.0000,  0.0000)
  23 In    -0.099054    5.933427   18.321768    ( 0.0000,  0.0000,  0.0000)
  24 In     6.785295    0.000000   10.000000    ( 0.0000,  0.0000,  0.0000)
  25 In     8.481619    0.979373   12.770085    ( 0.0000,  0.0000,  0.0000)
  26 In     6.791217    1.955327   15.504050    ( 0.0000,  0.0000,  0.0000)
  27 In     6.793534    0.032480   18.267586    ( 0.0000,  0.0000,  0.0000)
  28 In     5.088971    2.938119   10.000000    ( 0.0000,  0.0000,  0.0000)
  29 In     6.785295    3.917492   12.770085    ( 0.0000,  0.0000,  0.0000)
  30 In     5.085092    4.897565   15.505068    ( 0.0000,  0.0000,  0.0000)
  31 In     5.119065    2.920744   18.272080    ( 0.0000,  0.0000,  0.0000)
  32 In     3.392647    5.876238   10.000000    ( 0.0000,  0.0000,  0.0000)
  33 In     5.088971    6.855611   12.770085    ( 0.0000,  0.0000,  0.0000)
  34 In     3.390891    7.838381   15.512545    ( 0.0000,  0.0000,  0.0000)
  35 In     3.490417    5.935622   18.323888    ( 0.0000,  0.0000,  0.0000)
  36 C      1.695376    4.897412   19.140864    ( 0.0000,  0.0000,  0.0000)

Unit cell:
           periodic     x           y           z      points  spacing
  1. axis:    yes   10.177942    0.000000    0.000000    48     0.1836
  2. axis:    yes   -5.088971    8.814357    0.000000    48     0.1836
  3. axis:    no     0.000000    0.000000   28.310255   156     0.1815

  Lengths:  10.177942  10.177942  28.310255
  Angles:   90.000000  90.000000 120.000000

Effective grid spacing dv^(1/3) = 0.1919

     iter     time        total  log10-change:
                         energy  eigst   dens
iter:   1 02:24:52 -5689.217686  -2.12
iter:   2 02:25:12 -5689.186229  -3.01  -2.55
iter:   3 02:25:33 -5689.165897c -3.71  -2.69
iter:   4 02:25:54 -5689.163432c -4.03  -3.16
iter:   5 02:26:15 -5689.162420c -4.04  -3.34
iter:   6 02:26:35 -5689.162491c -4.45  -3.59
iter:   7 02:26:56 -5689.162236c -5.14  -3.65
iter:   8 02:27:17 -5689.162302c -5.43  -3.94
iter:   9 02:27:37 -5689.162309c -5.96  -4.02c
iter:  10 02:27:58 -5689.162278c -6.12  -4.12c
iter:  11 02:28:19 -5689.162277c -6.31  -4.20c
iter:  12 02:28:40 -5689.162275c -6.71  -4.29c
iter:  13 02:29:00 -5689.162280c -7.03  -4.46c
iter:  14 02:29:21 -5689.162293c -7.03  -4.58c
iter:  15 02:29:42 -5689.162292c -7.57c -4.72c

Converged after 15 iterations.

Dipole moment: (-5.168120, -14.722131, -0.240916) |e|*Ang

Energy contributions relative to reference atoms: (reference = -5760142.735881)

Kinetic:       +1207.114506
Potential:     -1125.270142
External:        +0.000000
XC:            -5773.855981
Entropy (-ST):   -0.601629
Local:           +3.150140
--------------------------
Free energy:   -5689.463106
Extrapolated:  -5689.162292

Showing only first 2 kpts
 Kpt  Band  Eigenvalues  Occupancy
  0   234     -4.35791    1.81764
  0   235     -4.26330    1.58932
  0   236     -4.10518    0.88653
  0   237     -4.00038    0.43647

  1   234     -4.33280    1.77154
  1   235     -4.22457    1.44864
  1   236     -4.19605    1.32784
  1   237     -4.17649    1.23793


Fermi level: -4.12797

No gap

Forces in eV/Ang:
  0 In   -0.01786    0.01031    0.03325
  1 In   -0.01346    0.01003    0.04902
  2 In    0.01130   -0.00497    0.00407
  3 In    0.00894   -0.00516    0.00172
  4 In    0.07836    0.01425    0.05668
  5 In    0.00834    0.00302   -0.05666
  6 In   -0.00779    0.01111    0.01168
  7 In    0.00757    0.00625    0.02501
  8 In    0.00415    0.02484    0.05186
  9 In    0.02211   -0.01277    0.04706
 10 In    0.00740   -0.00427    0.01923
 11 In    0.00152    0.01269   -0.00058
 12 In   -0.01944   -0.01601    0.05186
 13 In   -0.00497    0.00463    0.06369
 14 In    0.00065   -0.00791    0.01089
 15 In   -0.01023   -0.00766   -0.00058
 16 In   -0.02864    0.01505   -0.01702
 17 In    0.00128   -0.00074   -0.06063
 18 In    0.00507   -0.00293    0.16469
 19 In   -0.00213    0.18335    0.12906
 20 In    0.02039   -0.01177    0.02220
 21 In    0.00156   -0.00874   -0.05666
 22 In   -0.01352    0.00119    0.01168
 23 In    0.15117   -0.08728    0.11436
 24 In    0.02684   -0.07499    0.05668
 25 In    0.00186   -0.00107    0.06270
 26 In   -0.00927    0.00535   -0.02825
 27 In   -0.00163   -0.00968    0.02501
 28 In   -0.05593    0.03229    0.06090
 29 In   -0.00649    0.00199    0.06369
 30 In    0.00718    0.00339    0.01089
 31 In   -0.00030    0.00017    0.02369
 32 In   -0.02736    0.01727   -0.01702
 33 In   -0.01542    0.00664    0.04902
 34 In    0.00996   -0.00730    0.00407
 35 In   -0.15985   -0.08983    0.12906
 36 C     0.00461   -0.00266   -0.41007

BFGS:    5 02:29:49    -5689.162292        0.4101
System changes: positions 

Initializing position-dependent things.

Density initialized from wave functions
                                                  
                                                  
                                                  
                                                  
                                                  
                       C                          
           In      In       In                    
             In      In       In                  
            In      In      In                    
               In       In      In                
              In       In      In                 
                 In      In      In               
               In       In      In                
                                                  
                  In      In      In              
                    In       In      In           
           In      In      In                     
                                                  
             In      In       In                  
               In       In      In                
                                                  
                                                  
                                                  
                                                  

Positions:
   0 In    -0.000000    0.000000   10.000000    ( 0.0000,  0.0000,  0.0000)
   1 In     1.696324    0.979373   12.770085    ( 0.0000,  0.0000,  0.0000)
   2 In    -0.005074    1.958069   15.520277    ( 0.0000,  0.0000,  0.0000)
   3 In     0.011155   -0.006440   18.294212    ( 0.0000,  0.0000,  0.0000)
   4 In    -1.696324    2.938119   10.000000    ( 0.0000,  0.0000,  0.0000)
   5 In     0.000000    3.917492   12.770085    ( 0.0000,  0.0000,  0.0000)
   6 In    -1.688933    4.888081   15.508907    ( 0.0000,  0.0000,  0.0000)
   7 In    -1.735626    2.899882   18.267355    ( 0.0000,  0.0000,  0.0000)
   8 In    -3.392647    5.876238   10.000000    ( 0.0000,  0.0000,  0.0000)
   9 In    -1.696324    6.855611   12.770085    ( 0.0000,  0.0000,  0.0000)
  10 In    -3.396759    7.837358   15.503620    ( 0.0000,  0.0000,  0.0000)
  11 In    -3.393366    5.896869   18.306373    ( 0.0000,  0.0000,  0.0000)
  12 In     3.392647    0.000000   10.000000    ( 0.0000,  0.0000,  0.0000)
  13 In     5.088971    0.979373   12.770085    ( 0.0000,  0.0000,  0.0000)
  14 In     3.388584    1.963050   15.508525    ( 0.0000,  0.0000,  0.0000)
  15 In     3.374421   -0.009693   18.306373    ( 0.0000,  0.0000,  0.0000)
  16 In     1.696324    2.938119   10.000000    ( 0.0000,  0.0000,  0.0000)
  17 In     3.392647    3.917492   12.770085    ( 0.0000,  0.0000,  0.0000)
  18 In     1.701265    4.894012   15.473069    ( 0.0000,  0.0000,  0.0000)
  19 In     1.692352    2.787530   18.381056    ( 0.0000,  0.0000,  0.0000)
  20 In    -0.000000    5.876238   10.000000    ( 0.0000,  0.0000,  0.0000)
  21 In     1.696324    6.855611   12.770085    ( 0.0000,  0.0000,  0.0000)
  22 In     0.011302    7.832975   15.508907    ( 0.0000,  0.0000,  0.0000)
  23 In    -0.132120    5.952517   18.375907    ( 0.0000,  0.0000,  0.0000)
  24 In     6.785295    0.000000   10.000000    ( 0.0000,  0.0000,  0.0000)
  25 In     8.481619    0.979373   12.770085    ( 0.0000,  0.0000,  0.0000)
  26 In     6.794001    1.953719   15.502266    ( 0.0000,  0.0000,  0.0000)
  27 In     6.798758    0.053155   18.267355    ( 0.0000,  0.0000,  0.0000)
  28 In     5.088971    2.938119   10.000000    ( 0.0000,  0.0000,  0.0000)
  29 In     6.785295    3.917492   12.770085    ( 0.0000,  0.0000,  0.0000)
  30 In     5.083212    4.898232   15.508525    ( 0.0000,  0.0000,  0.0000)
  31 In     5.139295    2.909064   18.274546    ( 0.0000,  0.0000,  0.0000)
  32 In     3.392647    5.876238   10.000000    ( 0.0000,  0.0000,  0.0000)
  33 In     5.088971    6.855611   12.770085    ( 0.0000,  0.0000,  0.0000)
  34 In     3.390697    7.839716   15.520277    ( 0.0000,  0.0000,  0.0000)
  35 In     3.521076    5.954971   18.381056    ( 0.0000,  0.0000,  0.0000)
  36 C      1.695779    4.897179   19.002806    ( 0.0000,  0.0000,  0.0000)

Unit cell:
           periodic     x           y           z      points  spacing
  1. axis:    yes   10.177942    0.000000    0.000000    48     0.1836
  2. axis:    yes   -5.088971    8.814357    0.000000    48     0.1836
  3. axis:    no     0.000000    0.000000   28.310255   156     0.1815

  Lengths:  10.177942  10.177942  28.310255
  Angles:   90.000000  90.000000 120.000000

Effective grid spacing dv^(1/3) = 0.1919

     iter     time        total  log10-change:
                         energy  eigst   dens
iter:   1 02:30:26 -5689.385517  -1.45
iter:   2 02:30:47 -5689.284788  -2.34  -2.30
iter:   3 02:31:08 -5689.222195c -3.04  -2.41
iter:   4 02:31:29 -5689.209111c -3.30  -2.79
iter:   5 02:31:49 -5689.202236c -3.31  -2.98
iter:   6 02:32:10 -5689.202223c -3.83  -3.24
iter:   7 02:32:31 -5689.201424c -4.46  -3.30
iter:   8 02:32:51 -5689.201993c -4.57  -3.56
iter:   9 02:33:12 -5689.201644c -4.84  -3.66
iter:  10 02:33:33 -5689.201696c -5.54  -3.76
iter:  11 02:33:53 -5689.201734c -5.88  -3.83
iter:  12 02:34:14 -5689.201770c -5.77  -3.90
iter:  13 02:34:35 -5689.201767c -6.16  -4.15c
iter:  14 02:34:55 -5689.201773c -6.65  -4.22c
iter:  15 02:35:16 -5689.201797c -6.32  -4.28c
iter:  16 02:35:37 -5689.201786c -6.80  -4.45c
iter:  17 02:35:58 -5689.201783c -7.10  -4.57c
iter:  18 02:36:18 -5689.201780c -7.26  -4.77c
iter:  19 02:36:39 -5689.201779c -7.99c -4.98c

Converged after 19 iterations.

Dipole moment: (-3.795442, -15.433154, -0.178716) |e|*Ang

Energy contributions relative to reference atoms: (reference = -5760142.735881)

Kinetic:       +1207.514396
Potential:     -1125.621689
External:        +0.000000
XC:            -5773.942741
Entropy (-ST):   -0.600925
Local:           +3.148717
--------------------------
Free energy:   -5689.502242
Extrapolated:  -5689.201779

Showing only first 2 kpts
 Kpt  Band  Eigenvalues  Occupancy
  0   234     -4.33041    1.80656
  0   235     -4.26510    1.65871
  0   236     -4.08336    0.88238
  0   237     -3.98582    0.45881

  1   234     -4.30899    1.76576
  1   235     -4.20762    1.46458
  1   236     -4.16900    1.30047
  1   237     -4.15611    1.24079


Fermi level: -4.10699

No gap

Forces in eV/Ang:
  0 In   -0.02475    0.01429    0.03296
  1 In   -0.01434    0.02183    0.04874
  2 In    0.03305   -0.00094   -0.00589
  3 In   -0.00519    0.00300   -0.01521
  4 In    0.08076    0.01506    0.04968
  5 In    0.00431   -0.00294   -0.05739
  6 In   -0.00866    0.03240    0.02197
  7 In    0.06108    0.05380    0.03838
  8 In    0.00603    0.01897    0.05069
  9 In    0.03022   -0.01744    0.04516
 10 In    0.01498   -0.00865    0.02627
 11 In    0.00007   -0.00271   -0.01379
 12 In   -0.01342   -0.01471    0.05069
 13 In   -0.01128    0.00079    0.07383
 14 In   -0.00492   -0.01216    0.02232
 15 In    0.00238    0.00130   -0.01379
 16 In   -0.02908    0.01017   -0.02175
 17 In    0.00887   -0.00512   -0.06617
 18 In   -0.00003    0.00002    0.26087
 19 In   -0.00376    0.14131    0.06631
 20 In    0.01483   -0.00856    0.01750
 21 In    0.00470   -0.00227   -0.05739
 22 In   -0.03239   -0.00870    0.02197
 23 In    0.12308   -0.07106    0.05334
 24 In    0.02734   -0.07747    0.04968
 25 In    0.00742   -0.00428    0.07297
 26 In   -0.02182    0.01260   -0.04840
 27 In   -0.01605   -0.07980    0.03838
 28 In   -0.05816    0.03358    0.05427
 29 In   -0.00633    0.00937    0.07383
 30 In    0.00808    0.01034    0.02232
 31 In   -0.05974    0.03449    0.03065
 32 In   -0.02334    0.02010   -0.02175
 33 In   -0.02607    0.00150    0.04874
 34 In    0.01734   -0.02815   -0.00589
 35 In   -0.12426   -0.06740    0.06631
 36 C    -0.00526    0.00304   -0.22789

BFGS:    6 02:36:46    -5689.201779        0.2609
System changes: positions 

Initializing position-dependent things.

Density initialized from wave functions
                                                  
                                                  
                                                  
                                                  
                                                  
                   In  C    In                    
           In                                     
             In      In       In                  
            In      In      In                    
               In       In      In                
              In       In      In                 
                 In      In      In               
               In       In      In                
                                                  
                  In      In      In              
                    In       In      In           
           In      In      In                     
                                                  
             In      In       In                  
               In       In      In                
                                                  
                                                  
                                                  
                                                  

Positions:
   0 In    -0.000000    0.000000   10.000000    ( 0.0000,  0.0000,  0.0000)
   1 In     1.696324    0.979373   12.770085    ( 0.0000,  0.0000,  0.0000)
   2 In    -0.004910    1.957802   15.524056    ( 0.0000,  0.0000,  0.0000)
   3 In     0.013398   -0.007735   18.298262    ( 0.0000,  0.0000,  0.0000)
   4 In    -1.696324    2.938119   10.000000    ( 0.0000,  0.0000,  0.0000)
   5 In     0.000000    3.917492   12.770085    ( 0.0000,  0.0000,  0.0000)
   6 In    -1.687875    4.887413   15.511302    ( 0.0000,  0.0000,  0.0000)
   7 In    -1.742019    2.893568   18.268228    ( 0.0000,  0.0000,  0.0000)
   8 In    -3.392647    5.876238   10.000000    ( 0.0000,  0.0000,  0.0000)
   9 In    -1.696324    6.855611   12.770085    ( 0.0000,  0.0000,  0.0000)
  10 In    -3.396939    7.837461   15.505125    ( 0.0000,  0.0000,  0.0000)
  11 In    -3.393373    5.901124   18.312741    ( 0.0000,  0.0000,  0.0000)
  12 In     3.392647    0.000000   10.000000    ( 0.0000,  0.0000,  0.0000)
  13 In     5.088971    0.979373   12.770085    ( 0.0000,  0.0000,  0.0000)
  14 In     3.387717    1.963434   15.510786    ( 0.0000,  0.0000,  0.0000)
  15 In     3.370733   -0.011815   18.312741    ( 0.0000,  0.0000,  0.0000)
  16 In     1.696324    2.938119   10.000000    ( 0.0000,  0.0000,  0.0000)
  17 In     3.392647    3.917492   12.770085    ( 0.0000,  0.0000,  0.0000)
  18 In     1.702521    4.893287   15.480693    ( 0.0000,  0.0000,  0.0000)
  19 In     1.691616    2.776487   18.413740    ( 0.0000,  0.0000,  0.0000)
  20 In    -0.000000    5.876238   10.000000    ( 0.0000,  0.0000,  0.0000)
  21 In     1.696324    6.855611   12.770085    ( 0.0000,  0.0000,  0.0000)
  22 In     0.012410    7.832393   15.511302    ( 0.0000,  0.0000,  0.0000)
  23 In    -0.142712    5.958632   18.406696    ( 0.0000,  0.0000,  0.0000)
  24 In     6.785295    0.000000   10.000000    ( 0.0000,  0.0000,  0.0000)
  25 In     8.481619    0.979373   12.770085    ( 0.0000,  0.0000,  0.0000)
  26 In     6.794867    1.953219   15.500071    ( 0.0000,  0.0000,  0.0000)
  27 In     6.801030    0.061848   18.268228    ( 0.0000,  0.0000,  0.0000)
  28 In     5.088971    2.938119   10.000000    ( 0.0000,  0.0000,  0.0000)
  29 In     6.785295    3.917492   12.770085    ( 0.0000,  0.0000,  0.0000)
  30 In     5.082446    4.898791   15.510786    ( 0.0000,  0.0000,  0.0000)
  31 In     5.148270    2.903882   18.276586    ( 0.0000,  0.0000,  0.0000)
  32 In     3.392647    5.876238   10.000000    ( 0.0000,  0.0000,  0.0000)
  33 In     5.088971    6.855611   12.770085    ( 0.0000,  0.0000,  0.0000)
  34 In     3.391010    7.839708   15.524056    ( 0.0000,  0.0000,  0.0000)
  35 In     3.530271    5.961131   18.413740    ( 0.0000,  0.0000,  0.0000)
  36 C      1.696006    4.897048   18.922325    ( 0.0000,  0.0000,  0.0000)

Unit cell:
           periodic     x           y           z      points  spacing
  1. axis:    yes   10.177942    0.000000    0.000000    48     0.1836
  2. axis:    yes   -5.088971    8.814357    0.000000    48     0.1836
  3. axis:    no     0.000000    0.000000   28.310255   156     0.1815

  Lengths:  10.177942  10.177942  28.310255
  Angles:   90.000000  90.000000 120.000000

Effective grid spacing dv^(1/3) = 0.1919

     iter     time        total  log10-change:
                         energy  eigst   dens
iter:   1 02:37:24 -5689.278804  -1.92
iter:   2 02:37:44 -5689.243496  -2.84  -2.55
iter:   3 02:38:05 -5689.223821c -3.50  -2.64
iter:   4 02:38:26 -5689.216916c -3.66  -3.00
iter:   5 02:38:47 -5689.213962c -3.83  -3.21
iter:   6 02:39:07 -5689.213635c -4.06  -3.40
iter:   7 02:39:28 -5689.213251c -4.98  -3.56
iter:   8 02:39:49 -5689.213231c -5.33  -3.75
iter:   9 02:40:10 -5689.213243c -5.86  -3.86
iter:  10 02:40:30 -5689.213271c -5.78  -3.87
iter:  11 02:40:51 -5689.213260c -6.15  -4.06c
iter:  12 02:41:12 -5689.213248c -6.35  -4.14c
iter:  13 02:41:33 -5689.213266c -6.47  -4.28c
iter:  14 02:41:53 -5689.213279c -6.92  -4.45c
iter:  15 02:42:14 -5689.213278c -6.62  -4.54c
iter:  16 02:42:35 -5689.213280c -7.30  -4.73c
iter:  17 02:42:56 -5689.213278c -7.72c -4.84c

Converged after 17 iterations.

Dipole moment: (-3.262186, -15.696857, -0.141659) |e|*Ang

Energy contributions relative to reference atoms: (reference = -5760142.735881)

Kinetic:       +1207.968620
Potential:     -1126.007351
External:        +0.000000
XC:            -5774.024961
Entropy (-ST):   -0.601627
Local:           +3.151226
--------------------------
Free energy:   -5689.514092
Extrapolated:  -5689.213278

Showing only first 2 kpts
 Kpt  Band  Eigenvalues  Occupancy
  0   234     -4.31258    1.80071
  0   235     -4.26138    1.68824
  0   236     -4.06834    0.87997
  0   237     -3.97348    0.46659

  1   234     -4.29257    1.76181
  1   235     -4.19436    1.46953
  1   236     -4.15197    1.28905
  1   237     -4.14042    1.23532


Fermi level: -4.09246

No gap

Forces in eV/Ang:
  0 In   -0.02875    0.01660    0.03070
  1 In   -0.01470    0.02788    0.04832
  2 In    0.03849    0.00210   -0.00677
  3 In   -0.01210    0.00698   -0.02173
  4 In    0.07934    0.01430    0.04362
  5 In    0.00423   -0.00510   -0.05414
  6 In   -0.00726    0.03808    0.02723
  7 In    0.07897    0.06762    0.02960
  8 In    0.00718    0.01545    0.04788
  9 In    0.03393   -0.01959    0.04316
 10 In    0.01616   -0.00933    0.02857
 11 In   -0.00187   -0.00820   -0.00539
 12 In   -0.00979   -0.01394    0.04788
 13 In   -0.01472   -0.00175    0.08006
 14 In   -0.00674   -0.01207    0.02786
 15 In    0.00617    0.00572   -0.00539
 16 In   -0.02947    0.00618   -0.02439
 17 In    0.01077   -0.00622   -0.06511
 18 In   -0.00573    0.00331    0.30605
 19 In    0.00163    0.06663    0.00235
 20 In    0.01053   -0.00608    0.01434
 21 In    0.00653   -0.00111   -0.05414
 22 In   -0.03661   -0.01275    0.02723
 23 In    0.07017   -0.04051   -0.01055
 24 In    0.02728   -0.07586    0.04362
 25 In    0.01069   -0.00617    0.08008
 26 In   -0.02376    0.01372   -0.04959
 27 In   -0.01907   -0.10220    0.02960
 28 In   -0.05670    0.03273    0.04796
 29 In   -0.00585    0.01362    0.08006
 30 In    0.00708    0.01187    0.02786
 31 In   -0.07882    0.04550    0.02068
 32 In   -0.02009    0.02244   -0.02439
 33 In   -0.03150   -0.00121    0.04832
 34 In    0.01743   -0.03438   -0.00677
 35 In   -0.05689   -0.03473    0.00235
 36 C    -0.01183    0.00683   -0.11321

BFGS:    7 02:43:03    -5689.213278        0.3061
System changes: positions 

Initializing position-dependent things.

Density initialized from wave functions
                                                  
                                                  
                                                  
                                                  
                                                  
                   In  C    In                    
           In                                     
             In      In       In                  
            In      In      In                    
               In       In      In                
              In       In      In                 
                 In      In      In               
               In       In      In                
                                                  
                  In      In      In              
                    In       In      In           
           In      In      In                     
                                                  
             In      In       In                  
               In       In      In                
                                                  
                                                  
                                                  
                                                  

Positions:
   0 In    -0.000000    0.000000   10.000000    ( 0.0000,  0.0000,  0.0000)
   1 In     1.696324    0.979373   12.770085    ( 0.0000,  0.0000,  0.0000)
   2 In    -0.003867    1.957752   15.524809    ( 0.0000,  0.0000,  0.0000)
   3 In     0.013679   -0.007897   18.298718    ( 0.0000,  0.0000,  0.0000)
   4 In    -1.696324    2.938119   10.000000    ( 0.0000,  0.0000,  0.0000)
   5 In     0.000000    3.917492   12.770085    ( 0.0000,  0.0000,  0.0000)
   6 In    -1.687865    4.888225   15.512580    ( 0.0000,  0.0000,  0.0000)
   7 In    -1.741718    2.893654   18.269447    ( 0.0000,  0.0000,  0.0000)
   8 In    -3.392647    5.876238   10.000000    ( 0.0000,  0.0000,  0.0000)
   9 In    -1.696324    6.855611   12.770085    ( 0.0000,  0.0000,  0.0000)
  10 In    -3.396515    7.837217   15.506235    ( 0.0000,  0.0000,  0.0000)
  11 In    -3.393362    5.901965   18.314019    ( 0.0000,  0.0000,  0.0000)
  12 In     3.392647    0.000000   10.000000    ( 0.0000,  0.0000,  0.0000)
  13 In     5.088971    0.979373   12.770085    ( 0.0000,  0.0000,  0.0000)
  14 In     3.387386    1.963190   15.512023    ( 0.0000,  0.0000,  0.0000)
  15 In     3.370009   -0.012245   18.314019    ( 0.0000,  0.0000,  0.0000)
  16 In     1.696324    2.938119   10.000000    ( 0.0000,  0.0000,  0.0000)
  17 In     3.392647    3.917492   12.770085    ( 0.0000,  0.0000,  0.0000)
  18 In     1.702783    4.893136   15.491827    ( 0.0000,  0.0000,  0.0000)
  19 In     1.691533    2.781469   18.424934    ( 0.0000,  0.0000,  0.0000)
  20 In    -0.000000    5.876238   10.000000    ( 0.0000,  0.0000,  0.0000)
  21 In     1.696324    6.855611   12.770085    ( 0.0000,  0.0000,  0.0000)
  22 In     0.011712    7.831978   15.512580    ( 0.0000,  0.0000,  0.0000)
  23 In    -0.138637    5.956280   18.416967    ( 0.0000,  0.0000,  0.0000)
  24 In     6.785295    0.000000   10.000000    ( 0.0000,  0.0000,  0.0000)
  25 In     8.481619    0.979373   12.770085    ( 0.0000,  0.0000,  0.0000)
  26 In     6.794406    1.953486   15.498006    ( 0.0000,  0.0000,  0.0000)
  27 In     6.801105    0.061545   18.269447    ( 0.0000,  0.0000,  0.0000)
  28 In     5.088971    2.938119   10.000000    ( 0.0000,  0.0000,  0.0000)
  29 In     6.785295    3.917492   12.770085    ( 0.0000,  0.0000,  0.0000)
  30 In     5.082492    4.899200   15.512023    ( 0.0000,  0.0000,  0.0000)
  31 In     5.148688    2.903642   18.277839    ( 0.0000,  0.0000,  0.0000)
  32 In     3.392647    5.876238   10.000000    ( 0.0000,  0.0000,  0.0000)
  33 In     5.088971    6.855611   12.770085    ( 0.0000,  0.0000,  0.0000)
  34 In     3.391575    7.838830   15.524809    ( 0.0000,  0.0000,  0.0000)
  35 In     3.525915    5.958712   18.424934    ( 0.0000,  0.0000,  0.0000)
  36 C      1.695992    4.897056   18.891779    ( 0.0000,  0.0000,  0.0000)

Unit cell:
           periodic     x           y           z      points  spacing
  1. axis:    yes   10.177942    0.000000    0.000000    48     0.1836
  2. axis:    yes   -5.088971    8.814357    0.000000    48     0.1836
  3. axis:    no     0.000000    0.000000   28.310255   156     0.1815

  Lengths:  10.177942  10.177942  28.310255
  Angles:   90.000000  90.000000 120.000000

Effective grid spacing dv^(1/3) = 0.1919

     iter     time        total  log10-change:
                         energy  eigst   dens
iter:   1 02:43:40 -5689.244906  -2.66
iter:   2 02:44:01 -5689.230088  -3.62  -2.83
iter:   3 02:44:22 -5689.224350c -4.18  -2.88
iter:   4 02:44:43 -5689.220596c -4.16  -3.23
iter:   5 02:45:03 -5689.219995c -4.60  -3.54
iter:   6 02:45:24 -5689.219804c -4.51  -3.64
iter:   7 02:45:45 -5689.219622c -5.54  -3.83
iter:   8 02:46:05 -5689.219608c -5.92  -4.00c
iter:   9 02:46:26 -5689.219627c -6.13  -4.11c
iter:  10 02:46:47 -5689.219643c -6.33  -4.23c
iter:  11 02:47:07 -5689.219627c -6.87  -4.38c
iter:  12 02:47:28 -5689.219613c -6.91  -4.43c
iter:  13 02:47:49 -5689.219618c -7.33  -4.62c
iter:  14 02:48:10 -5689.219628c -7.55c -4.68c

Converged after 14 iterations.

Dipole moment: (-3.328043, -15.662401, -0.126812) |e|*Ang

Energy contributions relative to reference atoms: (reference = -5760142.735881)

Kinetic:       +1208.648835
Potential:     -1126.575963
External:        +0.000000
XC:            -5774.146859
Entropy (-ST):   -0.601946
Local:           +3.155332
--------------------------
Free energy:   -5689.520601
Extrapolated:  -5689.219628

Showing only first 2 kpts
 Kpt  Band  Eigenvalues  Occupancy
  0   234     -4.30312    1.79714
  0   235     -4.25648    1.69499
  0   236     -4.06074    0.87939
  0   237     -3.96492    0.46274

  1   234     -4.28347    1.75842
  1   235     -4.18596    1.46598
  1   236     -4.14403    1.28697
  1   237     -4.13109    1.22655


Fermi level: -4.08498

No gap

Forces in eV/Ang:
  0 In   -0.03080    0.01778    0.03360
  1 In   -0.01389    0.02625    0.04642
  2 In    0.04044    0.00685   -0.00140
  3 In   -0.01330    0.00768   -0.02437
  4 In    0.08118    0.01488    0.04475
  5 In    0.00602   -0.00373   -0.05379
  6 In   -0.00194    0.03865    0.03212
  7 In    0.07804    0.06710    0.02256
  8 In    0.00772    0.01422    0.05101
  9 In    0.03241   -0.01871    0.04098
 10 In    0.01546   -0.00893    0.02608
 11 In   -0.00243   -0.00982   -0.00469
 12 In   -0.00845   -0.01379    0.05101
 13 In   -0.01685   -0.00344    0.07954
 14 In   -0.01073   -0.00772    0.03266
 15 In    0.00729    0.00701   -0.00469
 16 In   -0.03018    0.00755   -0.02379
 17 In    0.00949   -0.00548   -0.06412
 18 In   -0.00904    0.00522    0.27892
 19 In    0.00349   -0.07074   -0.01548
 20 In    0.01166   -0.00673    0.01505
 21 In    0.00624   -0.00335   -0.05379
 22 In   -0.03444   -0.01764    0.03212
 23 In   -0.04115    0.02376   -0.02752
 24 In    0.02771   -0.07774    0.04475
 25 In    0.01218   -0.00703    0.07883
 26 In   -0.02152    0.01242   -0.03897
 27 In   -0.01910   -0.10113    0.02256
 28 In   -0.05808    0.03353    0.04925
 29 In   -0.00544    0.01631    0.07954
 30 In    0.00132    0.01316    0.03266
 31 In   -0.07921    0.04573    0.01490
 32 In   -0.02163    0.02236   -0.02379
 33 In   -0.02968   -0.00110    0.04642
 34 In    0.01429   -0.03845   -0.00140
 35 In    0.06301    0.03235   -0.01548
 36 C    -0.01152    0.00665   -0.02989

BFGS:    8 02:48:17    -5689.219628        0.2791
System changes: positions 

Initializing position-dependent things.

Density initialized from wave functions
                                                  
                                                  
                                                  
                                                  
                                                  
           In      In  C    In                    
                                                  
             In      In       In                  
            In      In      In                    
               In       In      In                
              In       In      In                 
                 In      In      In               
               In       In      In                
                                                  
                  In      In      In              
                    In       In      In           
           In      In      In                     
                                                  
             In      In       In                  
               In       In      In                
                                                  
                                                  
                                                  
                                                  

Positions:
   0 In    -0.000000    0.000000   10.000000    ( 0.0000,  0.0000,  0.0000)
   1 In     1.696324    0.979373   12.770085    ( 0.0000,  0.0000,  0.0000)
   2 In    -0.002459    1.957802   15.526335    ( 0.0000,  0.0000,  0.0000)
   3 In     0.014218   -0.008209   18.299683    ( 0.0000,  0.0000,  0.0000)
   4 In    -1.696324    2.938119   10.000000    ( 0.0000,  0.0000,  0.0000)
   5 In     0.000000    3.917492   12.770085    ( 0.0000,  0.0000,  0.0000)
   6 In    -1.687552    4.889225   15.514639    ( 0.0000,  0.0000,  0.0000)
   7 In    -1.741898    2.893150   18.270712    ( 0.0000,  0.0000,  0.0000)
   8 In    -3.392647    5.876238   10.000000    ( 0.0000,  0.0000,  0.0000)
   9 In    -1.696324    6.855611   12.770085    ( 0.0000,  0.0000,  0.0000)
  10 In    -3.396051    7.836949   15.507797    ( 0.0000,  0.0000,  0.0000)
  11 In    -3.393424    5.903490   18.316592    ( 0.0000,  0.0000,  0.0000)
  12 In     3.392647    0.000000   10.000000    ( 0.0000,  0.0000,  0.0000)
  13 In     5.088971    0.979373   12.770085    ( 0.0000,  0.0000,  0.0000)
  14 In     3.386716    1.963039   15.514035    ( 0.0000,  0.0000,  0.0000)
  15 In     3.368658   -0.012954   18.316592    ( 0.0000,  0.0000,  0.0000)
  16 In     1.696324    2.938119   10.000000    ( 0.0000,  0.0000,  0.0000)
  17 In     3.392647    3.917492   12.770085    ( 0.0000,  0.0000,  0.0000)
  18 In     1.703083    4.892962   15.505323    ( 0.0000,  0.0000,  0.0000)
  19 In     1.691348    2.777855   18.439739    ( 0.0000,  0.0000,  0.0000)
  20 In    -0.000000    5.876238   10.000000    ( 0.0000,  0.0000,  0.0000)
  21 In     1.696324    6.855611   12.770085    ( 0.0000,  0.0000,  0.0000)
  22 In     0.011002    7.831207   15.514639    ( 0.0000,  0.0000,  0.0000)
  23 In    -0.141707    5.958052   18.430498    ( 0.0000,  0.0000,  0.0000)
  24 In     6.785295    0.000000   10.000000    ( 0.0000,  0.0000,  0.0000)
  25 In     8.481619    0.979373   12.770085    ( 0.0000,  0.0000,  0.0000)
  26 In     6.794014    1.953712   15.495553    ( 0.0000,  0.0000,  0.0000)
  27 In     6.801452    0.061952   18.270712    ( 0.0000,  0.0000,  0.0000)
  28 In     5.088971    2.938119   10.000000    ( 0.0000,  0.0000,  0.0000)
[...]
  13 In     5.088971    0.979373   12.770085    ( 0.0000,  0.0000,  0.0000)
  14 In     3.377557    1.961790   15.526566    ( 0.0000,  0.0000,  0.0000)
  15 In     3.410503    0.022211   18.378981    ( 0.0000,  0.0000,  0.0000)
  16 In     1.696324    2.938119   10.000000    ( 0.0000,  0.0000,  0.0000)
  17 In     3.392647    3.917492   12.770085    ( 0.0000,  0.0000,  0.0000)
  18 In     1.703386    4.892787   15.837450    ( 0.0000,  0.0000,  0.0000)
  19 In     1.679622    2.728951   18.644194    ( 0.0000,  0.0000,  0.0000)
  20 In    -0.000000    5.876238   10.000000    ( 0.0000,  0.0000,  0.0000)
  21 In     1.696324    6.855611   12.770085    ( 0.0000,  0.0000,  0.0000)
  22 In    -0.000959    7.821112   15.525449    ( 0.0000,  0.0000,  0.0000)
  23 In    -0.184025    5.982485   18.610885    ( 0.0000,  0.0000,  0.0000)
  24 In     6.785295    0.000000   10.000000    ( 0.0000,  0.0000,  0.0000)
  25 In     8.481619    0.979373   12.770085    ( 0.0000,  0.0000,  0.0000)
  26 In     6.789999    1.956030   15.503042    ( 0.0000,  0.0000,  0.0000)
  27 In     6.796552    0.033225   18.263171    ( 0.0000,  0.0000,  0.0000)
  28 In     5.088971    2.938119   10.000000    ( 0.0000,  0.0000,  0.0000)
  29 In     6.785295    3.917492   12.770085    ( 0.0000,  0.0000,  0.0000)
  30 In     5.078790    4.908411   15.526566    ( 0.0000,  0.0000,  0.0000)
  31 In     5.124569    2.917566   18.282999    ( 0.0000,  0.0000,  0.0000)
  32 In     3.392647    5.876238   10.000000    ( 0.0000,  0.0000,  0.0000)
  33 In     5.088971    6.855611   12.770085    ( 0.0000,  0.0000,  0.0000)
  34 In     3.396082    7.819504   15.517412    ( 0.0000,  0.0000,  0.0000)
  35 In     3.565441    5.995286   18.644194    ( 0.0000,  0.0000,  0.0000)
  36 C      1.695512    4.897333   18.162616    ( 0.0000,  0.0000,  0.0000)

Unit cell:
           periodic     x           y           z      points  spacing
  1. axis:    yes   10.177942    0.000000    0.000000    48     0.1836
  2. axis:    yes   -5.088971    8.814357    0.000000    48     0.1836
  3. axis:    no     0.000000    0.000000   28.310255   156     0.1815

  Lengths:  10.177942  10.177942  28.310255
  Angles:   90.000000  90.000000 120.000000

Effective grid spacing dv^(1/3) = 0.1919

     iter     time        total  log10-change:
                         energy  eigst   dens
iter:   1 04:11:19 -5689.488857  -3.61
iter:   2 04:11:39 -5689.488581  -4.60  -3.55
iter:   3 04:12:00 -5689.488504c -5.27  -3.68
iter:   4 04:12:21 -5689.488433c -5.34  -3.86
iter:   5 04:12:41 -5689.488364c -5.64  -4.03c
iter:   6 04:13:02 -5689.488339c -5.71  -4.22c
iter:   7 04:13:23 -5689.488340c -6.68  -4.35c
iter:   8 04:13:43 -5689.488354c -6.69  -4.51c
iter:   9 04:14:04 -5689.488361c -7.18  -4.64c
iter:  10 04:14:25 -5689.488363c -7.85c -4.81c

Converged after 10 iterations.

Dipole moment: (0.444551, -17.984137, 0.066858) |e|*Ang

Energy contributions relative to reference atoms: (reference = -5760142.735881)

Kinetic:       +1206.044092
Potential:     -1124.655403
External:        +0.000000
XC:            -5773.675577
Entropy (-ST):   -0.666835
Local:           +3.131943
--------------------------
Free energy:   -5689.821781
Extrapolated:  -5689.488363

Showing only first 2 kpts
 Kpt  Band  Eigenvalues  Occupancy
  0   234     -4.17839    1.76388
  0   235     -4.12339    1.62335
  0   236     -3.93914    0.81150
  0   237     -3.93483    0.79082

  1   234     -4.14223    1.67760
  1   235     -4.08455    1.49017
  1   236     -4.03218    1.26776
  1   237     -3.99500    1.08831


Fermi level: -3.97730

No gap

Forces in eV/Ang:
  0 In   -0.04841    0.02795    0.03370
  1 In   -0.00079    0.03484    0.04430
  2 In   -0.00357   -0.00138   -0.01383
  3 In    0.01530   -0.00883    0.01435
  4 In    0.04627    0.00227    0.00968
  5 In    0.05776    0.03234    0.10069
  6 In   -0.00780    0.00236   -0.00581
  7 In   -0.00714    0.00349   -0.00298
  8 In    0.01907    0.00052    0.03390
  9 In    0.03123   -0.01803    0.03030
 10 In    0.00488   -0.00282    0.04004
 11 In    0.01156    0.00932   -0.02003
 12 In    0.00909   -0.01678    0.03390
 13 In   -0.01809   -0.01378    0.12562
 14 In   -0.00105   -0.00320   -0.00294
 15 In   -0.00229   -0.01467   -0.02003
 16 In   -0.03442   -0.03424    0.00465
 17 In   -0.04494    0.02594    0.12106
 18 In    0.00106   -0.00061   -0.05324
 19 In   -0.00624    0.04283   -0.01983
 20 In   -0.02889    0.01668    0.03783
 21 In    0.00088   -0.06620    0.10069
 22 In   -0.00595    0.00558   -0.00581
 23 In   -0.05468    0.03157   -0.00507
 24 In    0.02117   -0.04121    0.00968
 25 In   -0.00198    0.00114    0.11256
 26 In   -0.00295    0.00171   -0.00760
 27 In   -0.00659    0.00444   -0.00298
 28 In   -0.01769    0.01021    0.01086
 29 In    0.00289    0.02256    0.12562
 30 In    0.00225    0.00250   -0.00294
 31 In   -0.00246    0.00142   -0.01663
 32 In    0.01244    0.04693    0.00465
 33 In   -0.03057   -0.01673    0.04430
 34 In   -0.00059    0.00379   -0.01383
 35 In   -0.04021   -0.01601   -0.01983
 36 C     0.07127   -0.04115   -0.00186

BFGS:   24 04:14:32    -5689.488363        0.0823
System changes: positions 

Initializing position-dependent things.

Density initialized from wave functions
                                                  
                                                  
                                                  
                                                  
                                                  
           In      In       In                    
                       C                          
             In      In       In                  
            In      In      In                    
              IIn      IIn     IIn                
                                                  
                 In      In      In               
               In       In      In                
                  In      In      In              
                                                  
                    In       In      In           
           In      In      In                     
                                                  
             In      In       In                  
               In       In      In                
                                                  
                                                  
                                                  
                                                  

Positions:
   0 In    -0.000000    0.000000   10.000000    ( 0.0000,  0.0000,  0.0000)
   1 In     1.696324    0.979373   12.770085    ( 0.0000,  0.0000,  0.0000)
   2 In     0.015151    1.963287   15.515960    ( 0.0000,  0.0000,  0.0000)
   3 In    -0.029927    0.017278   18.281773    ( 0.0000,  0.0000,  0.0000)
   4 In    -1.696324    2.938119   10.000000    ( 0.0000,  0.0000,  0.0000)
   5 In     0.000000    3.917492   12.770085    ( 0.0000,  0.0000,  0.0000)
   6 In    -1.685656    4.905160   15.524880    ( 0.0000,  0.0000,  0.0000)
   7 In    -1.718753    2.912974   18.263378    ( 0.0000,  0.0000,  0.0000)
   8 In    -3.392647    5.876238   10.000000    ( 0.0000,  0.0000,  0.0000)
   9 In    -1.696324    6.855611   12.770085    ( 0.0000,  0.0000,  0.0000)
  10 In    -3.389565    7.833204   15.534559    ( 0.0000,  0.0000,  0.0000)
  11 In    -3.402519    5.848592   18.378369    ( 0.0000,  0.0000,  0.0000)
  12 In     3.392647    0.000000   10.000000    ( 0.0000,  0.0000,  0.0000)
  13 In     5.088971    0.979373   12.770085    ( 0.0000,  0.0000,  0.0000)
  14 In     3.377672    1.961300   15.526187    ( 0.0000,  0.0000,  0.0000)
  15 In     3.411654    0.022372   18.378369    ( 0.0000,  0.0000,  0.0000)
  16 In     1.696324    2.938119   10.000000    ( 0.0000,  0.0000,  0.0000)
  17 In     3.392647    3.917492   12.770085    ( 0.0000,  0.0000,  0.0000)
  18 In     1.703409    4.892774   15.836398    ( 0.0000,  0.0000,  0.0000)
  19 In     1.678919    2.729649   18.642601    ( 0.0000,  0.0000,  0.0000)
  20 In    -0.000000    5.876238   10.000000    ( 0.0000,  0.0000,  0.0000)
  21 In     1.696324    6.855611   12.770085    ( 0.0000,  0.0000,  0.0000)
  22 In    -0.001850    7.821598   15.524880    ( 0.0000,  0.0000,  0.0000)
  23 In    -0.186003    5.983626   18.609549    ( 0.0000,  0.0000,  0.0000)
  24 In     6.785295    0.000000   10.000000    ( 0.0000,  0.0000,  0.0000)
  25 In     8.481619    0.979373   12.770085    ( 0.0000,  0.0000,  0.0000)
  26 In     6.789360    1.956399   15.502233    ( 0.0000,  0.0000,  0.0000)
  27 In     6.795857    0.031996   18.263378    ( 0.0000,  0.0000,  0.0000)
  28 In     5.088971    2.938119   10.000000    ( 0.0000,  0.0000,  0.0000)
  29 In     6.785295    3.917492   12.770085    ( 0.0000,  0.0000,  0.0000)
  30 In     5.079271    4.908556   15.526187    ( 0.0000,  0.0000,  0.0000)
  31 In     5.123243    2.918332   18.282184    ( 0.0000,  0.0000,  0.0000)
  32 In     3.392647    5.876238   10.000000    ( 0.0000,  0.0000,  0.0000)
  33 In     5.088971    6.855611   12.770085    ( 0.0000,  0.0000,  0.0000)
  34 In     3.396291    7.819592   15.515960    ( 0.0000,  0.0000,  0.0000)
  35 In     3.564486    5.995546   18.642601    ( 0.0000,  0.0000,  0.0000)
  36 C      1.697023    4.896461   18.161517    ( 0.0000,  0.0000,  0.0000)

Unit cell:
           periodic     x           y           z      points  spacing
  1. axis:    yes   10.177942    0.000000    0.000000    48     0.1836
  2. axis:    yes   -5.088971    8.814357    0.000000    48     0.1836
  3. axis:    no     0.000000    0.000000   28.310255   156     0.1815

  Lengths:  10.177942  10.177942  28.310255
  Angles:   90.000000  90.000000 120.000000

Effective grid spacing dv^(1/3) = 0.1919

     iter     time        total  log10-change:
                         energy  eigst   dens
iter:   1 04:15:09 -5689.489034  -4.09
iter:   2 04:15:30 -5689.489023  -5.07  -3.78
iter:   3 04:15:50 -5689.489004c -5.61  -3.99
iter:   4 04:16:11 -5689.488998c -5.92  -4.09c
iter:   5 04:16:32 -5689.488955c -5.97  -4.23c
iter:   6 04:16:52 -5689.488961c -6.09  -4.47c
iter:   7 04:17:13 -5689.488958c -6.93  -4.57c
iter:   8 04:17:33 -5689.488960c -7.28  -4.80c
iter:   9 04:17:54 -5689.488966c -7.57c -4.87c

Converged after 9 iterations.

Dipole moment: (0.359544, -17.937189, 0.066549) |e|*Ang

Energy contributions relative to reference atoms: (reference = -5760142.735881)

Kinetic:       +1206.056352
Potential:     -1124.659356
External:        +0.000000
XC:            -5773.684433
Entropy (-ST):   -0.666836
Local:           +3.131889
--------------------------
Free energy:   -5689.822384
Extrapolated:  -5689.488966

Showing only first 2 kpts
 Kpt  Band  Eigenvalues  Occupancy
  0   234     -4.17863    1.76460
  0   235     -4.12361    1.62432
  0   236     -3.93889    0.81076
  0   237     -3.93535    0.79376

  1   234     -4.14209    1.67749
  1   235     -4.08487    1.49176
  1   236     -4.03270    1.27061
  1   237     -3.99468    1.08722


Fermi level: -3.97720

No gap

Forces in eV/Ang:
  0 In   -0.04848    0.02799    0.03441
  1 In   -0.00110    0.03411    0.04455
  2 In   -0.00484   -0.00162   -0.01086
  3 In    0.01501   -0.00866    0.01774
  4 In    0.04625    0.00233    0.01044
  5 In    0.05772    0.03234    0.09880
  6 In   -0.00454   -0.00098   -0.00565
  7 In   -0.00679   -0.00044   -0.00454
  8 In    0.01920    0.00044    0.03471
  9 In    0.03081   -0.01779    0.03045
 10 In    0.00149   -0.00086    0.03208
 11 In    0.00252    0.00742   -0.01752
 12 In    0.00922   -0.01685    0.03471
 13 In   -0.01827   -0.01397    0.12524
 14 In   -0.00073   -0.00245   -0.00310
 15 In   -0.00517   -0.00589   -0.01752
 16 In   -0.03451   -0.03390    0.00573
 17 In   -0.04519    0.02609    0.11987
 18 In   -0.00127    0.00073   -0.04940
 19 In   -0.00771    0.02763   -0.01632
 20 In   -0.02857    0.01649    0.03917
 21 In    0.00085   -0.06616    0.09880
 22 In   -0.00142    0.00442   -0.00565
 23 In   -0.02644    0.01526   -0.01154
 24 In    0.02111   -0.04121    0.01044
 25 In   -0.00167    0.00097    0.11206
 26 In   -0.00019    0.00011   -0.00533
 27 In   -0.00301    0.00609   -0.00454
 28 In   -0.01756    0.01014    0.01098
 29 In    0.00297    0.02281    0.12524
 30 In    0.00176    0.00186   -0.00310
 31 In    0.00075   -0.00043   -0.01534
 32 In    0.01210    0.04684    0.00573
 33 In   -0.03010   -0.01610    0.04455
 34 In   -0.00102    0.00500   -0.01086
 35 In   -0.02778   -0.00714   -0.01632
 36 C     0.03608   -0.02083   -0.00575

BFGS:   25 04:18:01    -5689.488966        0.0494
Timing:                                      incl.     excl.
-------------------------------------------------------------------
Density initialized from wave functions:     2.777     1.883   0.0% |
 Symmetrize density:                         0.894     0.894   0.0% |
Forces:                                    182.506   182.506   2.1% ||
Hamiltonian:                                84.213     0.003   0.0% |
 Atomic:                                     0.005     0.005   0.0% |
  XC Correction:                             0.000     0.000   0.0% |
 Calculate atomic Hamiltonians:              0.007     0.007   0.0% |
 Communicate:                                3.162     3.162   0.0% |
 Hartree integrate/restrict:                 0.097     0.097   0.0% |
 Initialize Hamiltonian:                     0.000     0.000   0.0% |
 Poisson:                                    1.873     0.048   0.0% |
  Communicate from 1D:                       0.320     0.320   0.0% |
  Communicate from 2D:                       0.283     0.283   0.0% |
  Communicate to 1D:                         0.268     0.268   0.0% |
  Communicate to 2D:                         0.359     0.359   0.0% |
  FFT 1D:                                    0.288     0.288   0.0% |
  FFT 2D:                                    0.307     0.307   0.0% |
 XC 3D grid:                                78.861     7.182   0.1% |
  VdW-DF integral:                          71.678     0.895   0.0% |
   Convolution:                              9.587     9.587   0.1% |
   FFT:                                      5.281     5.281   0.1% |
   gather:                                  18.932    18.932   0.2% |
   hmm1:                                     1.530     1.530   0.0% |
   hmm2:                                     3.193     3.193   0.0% |
   iFFT:                                     5.547     5.547   0.1% |
   potential:                               23.052     0.409   0.0% |
    collect:                                 2.174     2.174   0.0% |
    p1:                                     13.558    13.558   0.2% |
    p2:                                      4.712     4.712   0.1% |
    sum:                                     2.199     2.199   0.0% |
   splines:                                  3.662     3.662   0.0% |
 vbar:                                       0.204     0.204   0.0% |
LCAO initialization:                        12.999     0.683   0.0% |
 LCAO eigensolver:                           3.473     0.006   0.0% |
  Calculate projections:                     0.000     0.000   0.0% |
  DenseAtomicCorrection:                     0.000     0.000   0.0% |
  Distribute overlap matrix:                 2.208     2.208   0.0% |
  Orbital Layouts:                           1.132     1.132   0.0% |
  Potential matrix:                          0.009     0.009   0.0% |
  Sum over cells:                            0.118     0.118   0.0% |
 LCAO to grid:                               8.247     8.247   0.1% |
 Set positions (LCAO WFS):                   0.596     0.478   0.0% |
  Basic WFS set positions:                   0.002     0.002   0.0% |
  Basis functions set positions:             0.000     0.000   0.0% |
  P tci:                                     0.001     0.001   0.0% |
  ST tci:                                    0.076     0.076   0.0% |
  mktci:                                     0.039     0.039   0.0% |
Redistribute:                                0.014     0.014   0.0% |
SCF-cycle:                                8049.565     1.801   0.0% |
 Davidson:                                6827.711  1458.834  16.7% |------|
  Apply hamiltonian:                       249.407   249.407   2.9% ||
  Subspace diag:                           984.677     0.136   0.0% |
   calc_h_matrix:                          488.964   241.189   2.8% ||
    Apply hamiltonian:                     247.775   247.775   2.8% ||
   diagonalize:                             26.237    26.237   0.3% |
   rotate_psi:                             469.340   469.340   5.4% |-|
  calc. matrices:                         2932.506  1659.500  19.1% |-------|
   Apply hamiltonian:                     1273.007  1273.007  14.6% |-----|
  diagonalize:                             275.081   275.081   3.2% ||
  rotate_psi:                              927.206   927.206  10.6% |---|
 Density:                                   31.275     0.007   0.0% |
  Atomic density matrices:                   1.177     1.177   0.0% |
  Mix:                                       1.837     1.837   0.0% |
  Multipole moments:                         0.054     0.054   0.0% |
  Pseudo density:                           28.199    14.532   0.2% |
   Symmetrize density:                      13.667    13.667   0.2% |
 Hamiltonian:                             1138.124     0.035   0.0% |
  Atomic:                                    0.076     0.075   0.0% |
   XC Correction:                            0.001     0.001   0.0% |
  Calculate atomic Hamiltonians:             0.095     0.095   0.0% |
  Communicate:                              44.536    44.536   0.5% |
  Hartree integrate/restrict:                1.344     1.344   0.0% |
  Poisson:                                  26.276     0.663   0.0% |
   Communicate from 1D:                      4.477     4.477   0.1% |
   Communicate from 2D:                      3.981     3.981   0.0% |
   Communicate to 1D:                        3.753     3.753   0.0% |
   Communicate to 2D:                        5.024     5.024   0.1% |
   FFT 1D:                                   4.009     4.009   0.0% |
   FFT 2D:                                   4.369     4.369   0.1% |
  XC 3D grid:                             1065.516   100.282   1.2% |
   VdW-DF integral:                        965.233    13.262   0.2% |
    Convolution:                           138.932   138.932   1.6% ||
    FFT:                                    74.674    74.674   0.9% |
    gather:                                270.772   270.772   3.1% ||
    hmm1:                                   21.362    21.362   0.2% |
    hmm2:                                   44.902    44.902   0.5% |
    iFFT:                                   77.877    77.877   0.9% |
    potential:                             323.451     5.953   0.1% |
     collect:                               30.283    30.283   0.3% |
     p1:                                   191.008   191.008   2.2% ||
     p2:                                    66.624    66.624   0.8% |
     sum:                                   29.582    29.582   0.3% |
    splines:                                 0.002     0.002   0.0% |
  vbar:                                      0.246     0.246   0.0% |
 Orthonormalize:                            50.655     0.011   0.0% |
  calc_s_matrix:                             7.260     7.260   0.1% |
  inverse-cholesky:                         26.831    26.831   0.3% |
  projections:                               0.003     0.003   0.0% |
  rotate_psi_s:                             16.549    16.549   0.2% |
Set symmetry:                                0.001     0.001   0.0% |
Other:                                     377.769   377.769   4.3% |-|
-------------------------------------------------------------------
Total:                                              8709.846 100.0%

Memory usage: 1.47 GiB
Date: Thu Sep 28 04:18:01 2023
