
  ___ ___ ___ _ _ _  
 |   |   |_  | | | | 
 | | | | | . | | | | 
 |__ |  _|___|_____|  22.8.0
 |___|_|             

User:   s204775@c193.nifl.fysik.dtu.dk
Date:   Thu Sep 28 01:58:54 2023
Arch:   x86_64
Pid:    28085
CWD:    /home/cat/s204775/projects/Bachelor_project/C_missing_features
Python: 3.10.4
gpaw:   /home/modules/software/GPAW/22.8.0-intel-2022a/lib/python3.10/site-packages/gpaw
_gpaw:  /home/modules/software/GPAW/22.8.0-intel-2022a/lib/python3.10/site-packages/
        _gpaw.cpython-310-x86_64-linux-gnu.so
ase:    /home/modules/software/ASE/3.22.1-intel-2022a/lib/python3.10/site-packages/ase (version 3.22.1)
numpy:  /home/modules/software/SciPy-bundle/2022.05-intel-2022a/lib/python3.10/site-packages/numpy (version 1.22.3)
scipy:  /home/modules/software/SciPy-bundle/2022.05-intel-2022a/lib/python3.10/site-packages/scipy (version 1.8.1)
libxc:  5.2.3
units:  Angstrom and eV
cores: 40
OpenMP: False
OMP_NUM_THREADS: 1

Input parameters:
  basis: dzp
  h: 0.18
  kpts: {size: (4, 4, 1)}
  xc: BEEF-vdW

System changes: positions, numbers, cell, pbc, initial_charges, initial_magmoms 

Initialize ...

species:
  Ir:
    name: Iridium
    id: fcdd1dd1ce91fa61afbba7769971f98a
    Z: 77.0
    valence: 15
    core: 62
    charge: 0.0
    file: /home/modules/software/GPAW-setups/0.9.20000/Ir.PBE.gz
    compensation charges: {type: gauss,
                           rc: 0.40,
                           lmax: 2}
    cutoffs: {filter: 2.40,
              core: 2.36}
    valence states:
      #              energy  rcut
      - 6s(2.00)    -6.307   1.296
      - 5p(6.00)   -54.741   1.328
      - 6p(0.00)    -1.224   1.328
      - 5d(7.00)    -7.169   1.286
      -  s          20.905   1.296
      -  d          20.043   1.286
  
    # LCAO basis set for Ir:
    #   Name: dzp
    #   File: /home/modules/software/GPAW-setups/0.9.20000/Ir.dzp.basis.gz
    #   Number of radial functions: 9
    #   Number of spherical harmonics: 27
    #     l=0, rc=8.4062 Bohr: 6s-sz confined orbital
    #     l=1, rc=3.6406 Bohr: 5p-sz confined orbital
    #     l=1, rc=12.7031 Bohr: 6p-sz confined orbital
    #     l=2, rc=6.0469 Bohr: 5d-sz confined orbital
    #     l=0, rc=4.9844 Bohr: 6s-dz split-valence wave
    #     l=1, rc=2.4062 Bohr: 5p-dz split-valence wave
    #     l=1, rc=7.7969 Bohr: 6p-dz split-valence wave
    #     l=2, rc=3.5938 Bohr: 5d-dz split-valence wave
    #     l=1, rc=8.4062 Bohr: p-type Gaussian polarization
    #   Number of RI-basis functions 0

  C:
    name: Carbon
    id: 4aa54d4b901d75f77cc0ea3eec22967b
    Z: 6.0
    valence: 4
    core: 2
    charge: 0.0
    file: /home/modules/software/GPAW-setups/0.9.20000/C.PBE.gz
    compensation charges: {type: gauss,
                           rc: 0.20,
                           lmax: 2}
    cutoffs: {filter: 1.14,
              core: 1.14}
    valence states:
      #              energy  rcut
      - 2s(2.00)   -13.751   0.635
      - 2p(2.00)    -5.284   0.635
      -  s          13.461   0.635
      -  p          21.927   0.635
      -  d           0.000   0.635
  
    # LCAO basis set for C:
    #   Name: dzp
    #   File: /home/modules/software/GPAW-setups/0.9.20000/C.dzp.basis.gz
    #   Number of radial functions: 5
    #   Number of spherical harmonics: 13
    #     l=0, rc=5.5469 Bohr: 2s-sz confined orbital
    #     l=1, rc=6.6719 Bohr: 2p-sz confined orbital
    #     l=0, rc=3.0312 Bohr: 2s-dz split-valence wave
    #     l=1, rc=3.7500 Bohr: 2p-dz split-valence wave
    #     l=2, rc=6.6719 Bohr: d-type Gaussian polarization
    #   Number of RI-basis functions 0

Reference energy: -17442482.204197  # eV

Spin-paired calculation

Convergence criteria:
 Maximum [total energy] change in last 3 cyles: 0.0005 eV / electron
 Maximum integral of absolute [dens]ity change: 0.0001 electrons / valence electron
 Maximum integral of absolute [eigenst]ate change: 4e-08 eV^2 / valence electron
 Maximum number of scf [iter]ations: 333
 (Square brackets indicate name in SCF output, whereas a 'c' in
 the SCF output indicates the quantity has converged.)

Symmetries present (total): 1

  ( 1  0  0)
  ( 0  1  0)
  ( 0  0  1)

16 k-points: 4 x 4 x 1 Monkhorst-Pack grid
8 k-points in the irreducible part of the Brillouin zone
       k-points in crystal coordinates                weights
   0:     0.12500000   -0.37500000    0.00000000          2/16
   1:     0.12500000   -0.12500000    0.00000000          2/16
   2:     0.12500000    0.12500000    0.00000000          2/16
   3:     0.12500000    0.37500000    0.00000000          2/16
   4:     0.37500000   -0.37500000    0.00000000          2/16
   5:     0.37500000   -0.12500000    0.00000000          2/16
   6:     0.37500000    0.12500000    0.00000000          2/16
   7:     0.37500000    0.37500000    0.00000000          2/16

Wave functions: Uniform real-space grid
  Kinetic energy operator: 8*3+1=25 point O(h^6) finite-difference Laplacian
  ScaLapack parameters: grid=1x1, blocksize=None
  Wavefunction extrapolation:
    Improved wavefunction reuse through dual PAW basis 

Occupation numbers: Fermi-Dirac:
  width: 0.1000  # eV
 

Eigensolver
   Davidson(niter=2) 

Densities:
  Coarse grid: 40*40*148 grid
  Fine grid: 80*80*296 grid
  Total Charge: 0.000000 

Density mixing:
  Method: separate
  Backend: pulay
  Linear mixing parameter: 0.05
  old densities: 5
  Damping of long wavelength oscillations: 50 

Hamiltonian:
  XC and Coulomb potentials evaluated on a 80*80*296 grid
  Using the BEEF-vdW Exchange-Correlation functional
  Interpolation: tri-quintic (5. degree polynomial)
  Poisson solver: FastPoissonSolver using
    Stencil: 8*3+1=25 point O(h^6) finite-difference Laplacian
    FFT axes: [0, 1]
    FST axes: [2]
 

XC parameters: BEEF-vdW with 2 nearest neighbor stencil

Memory estimate:
  Process memory now: 217.05 MiB
  Calculator: 568.04 MiB
    Density: 59.92 MiB
      Arrays: 9.35 MiB
      Localized functions: 47.03 MiB
      Mixer: 3.54 MiB
    Hamiltonian: 9.92 MiB
      Arrays: 6.12 MiB
      XC: 0.00 MiB
      Poisson: 0.00 MiB
      vbar: 3.81 MiB
    Wavefunctions: 498.19 MiB
      Arrays psit_nG: 234.35 MiB
      Eigensolver: 254.62 MiB
      Projections: 0.67 MiB
      Projectors: 8.56 MiB

Total number of cores used: 40
Parallelization over k-points: 8
Domain decomposition: 1 x 1 x 5

Number of atoms: 37
Number of atomic orbitals: 985
Number of bands in calculation: 331
Number of valence electrons: 544
Bands to converge: occupied

... initialized

Initializing position-dependent things.

Density initialized from atomic densities
Creating initial wave functions:
  331 bands from LCAO basis set

                                            
                                            
                                            
                                            
                                            
          Ir     Ir C   Ir                  
                                            
           IIr    IIr    IIr                
              Ir     Ir     Ir              
             Ir     Ir     Ir               
              IIr    IIr    IIr             
                                            
                Ir     Ir     Ir            
                  Ir     Ir     Ir          
          Ir     Ir     Ir                  
            Ir     Ir     Ir                
              Ir     Ir     Ir              
                                            
                                            
                                            
                                            

Positions:
   0 Ir     0.000000    0.000000    9.999999    ( 0.0000,  0.0000,  0.0000)
   1 Ir     1.378048    0.795616   12.250341    ( 0.0000,  0.0000,  0.0000)
   2 Ir     0.000000    1.592386   14.460828    ( 0.0000,  0.0000,  0.0000)
   3 Ir     0.000000   -0.000000   16.669904    ( 0.0000,  0.0000,  0.0000)
   4 Ir    -1.378048    2.386848    9.999999    ( 0.0000,  0.0000,  0.0000)
   5 Ir     0.000000    3.182464   12.250341    ( 0.0000,  0.0000,  0.0000)
   6 Ir    -1.378795    3.977649   14.461289    ( 0.0000,  0.0000,  0.0000)
   7 Ir    -1.377934    2.386749   16.674368    ( 0.0000,  0.0000,  0.0000)
   8 Ir    -2.756095    4.773697    9.999999    ( 0.0000,  0.0000,  0.0000)
   9 Ir    -1.378048    5.569313   12.250341    ( 0.0000,  0.0000,  0.0000)
  10 Ir    -2.755096    6.364352   14.460828    ( 0.0000,  0.0000,  0.0000)
  11 Ir    -2.756125    4.773845   16.674368    ( 0.0000,  0.0000,  0.0000)
  12 Ir     2.756095    0.000000    9.999999    ( 0.0000,  0.0000,  0.0000)
  13 Ir     4.134143    0.795616   12.250341    ( 0.0000,  0.0000,  0.0000)
  14 Ir     2.756900    1.591697   14.460969    ( 0.0000,  0.0000,  0.0000)
  15 Ir     2.755952   -0.000048   16.674368    ( 0.0000,  0.0000,  0.0000)
  16 Ir     1.378048    2.386848    9.999999    ( 0.0000,  0.0000,  0.0000)
  17 Ir     2.756095    3.182464   12.250341    ( 0.0000,  0.0000,  0.0000)
  18 Ir     1.378795    3.977649   14.461289    ( 0.0000,  0.0000,  0.0000)
  19 Ir     1.377934    2.386749   16.674368    ( 0.0000,  0.0000,  0.0000)
  20 Ir     0.000000    4.773697    9.999999    ( 0.0000,  0.0000,  0.0000)
  21 Ir     1.378048    5.569313   12.250341    ( 0.0000,  0.0000,  0.0000)
  22 Ir     0.000000    6.365791   14.461289    ( 0.0000,  0.0000,  0.0000)
  23 Ir     0.000000    4.773697   16.672467    ( 0.0000,  0.0000,  0.0000)
  24 Ir     5.512190    0.000000    9.999999    ( 0.0000,  0.0000,  0.0000)
  25 Ir     6.890238    0.795616   12.250341    ( 0.0000,  0.0000,  0.0000)
  26 Ir     5.511385    1.591697   14.460969    ( 0.0000,  0.0000,  0.0000)
  27 Ir     5.512333   -0.000048   16.674368    ( 0.0000,  0.0000,  0.0000)
  28 Ir     4.134143    2.386848    9.999999    ( 0.0000,  0.0000,  0.0000)
  29 Ir     5.512190    3.182464   12.250341    ( 0.0000,  0.0000,  0.0000)
  30 Ir     4.134143    3.977150   14.460969    ( 0.0000,  0.0000,  0.0000)
  31 Ir     4.134143    2.386848   16.673700    ( 0.0000,  0.0000,  0.0000)
  32 Ir     2.756095    4.773697    9.999999    ( 0.0000,  0.0000,  0.0000)
  33 Ir     4.134143    5.569313   12.250341    ( 0.0000,  0.0000,  0.0000)
  34 Ir     2.755096    6.364352   14.460828    ( 0.0000,  0.0000,  0.0000)
  35 Ir     2.756125    4.773845   16.674368    ( 0.0000,  0.0000,  0.0000)
  36 C      1.377934    3.977998   17.469993    ( 0.0000,  0.0000,  0.0000)

Unit cell:
           periodic     x           y           z      points  spacing
  1. axis:    yes    8.268285    0.000000    0.000000    40     0.1790
  2. axis:    yes   -4.134143    7.160545    0.000000    40     0.1790
  3. axis:    no     0.000000    0.000000   26.751025   148     0.1808

  Lengths:   8.268285   8.268285  26.751025
  Angles:   90.000000  90.000000 120.000000

Effective grid spacing dv^(1/3) = 0.1884

     iter     time        total  log10-change:
                         energy  eigst   dens
iter:   1 02:00:33 -11737.089616
iter:   2 02:01:15 -11753.473727  -0.77  -1.46
iter:   3 02:01:58 -11737.040466  -1.38  -1.33
iter:   4 02:02:41 -11735.937792  -1.98  -1.49
iter:   5 02:03:23 -11736.384467  -1.43  -1.55
iter:   6 02:04:06 -11736.143203  -1.99  -1.81
iter:   7 02:04:48 -11736.403495c -2.36  -1.94
iter:   8 02:05:31 -11736.582771  -2.29  -2.11
iter:   9 02:06:14 -11736.643573c -2.67  -2.32
iter:  10 02:06:56 -11736.551062c -3.06  -2.32
iter:  11 02:07:39 -11736.504741c -2.91  -2.44
iter:  12 02:08:21 -11736.498259c -2.78  -2.66
iter:  13 02:09:04 -11736.499380c -3.43  -3.03
iter:  14 02:09:46 -11736.497367c -3.72  -3.12
iter:  15 02:10:29 -11736.497621c -4.07  -3.20
iter:  16 02:11:12 -11736.500879c -4.34  -3.30
iter:  17 02:11:54 -11736.496980c -4.52  -3.15
iter:  18 02:12:37 -11736.497133c -4.98  -3.48
iter:  19 02:13:19 -11736.496284c -5.18  -3.53
iter:  20 02:14:02 -11736.496635c -5.47  -3.67
iter:  21 02:14:44 -11736.496296c -5.66  -3.77
iter:  22 02:15:27 -11736.496561c -6.07  -3.85
iter:  23 02:16:10 -11736.496510c -6.45  -3.92
iter:  24 02:16:52 -11736.496562c -6.47  -3.92
iter:  25 02:17:35 -11736.496736c -6.04  -4.04c
iter:  26 02:18:17 -11736.496606c -6.27  -4.14c
iter:  27 02:19:00 -11736.496705c -6.63  -4.24c
iter:  28 02:19:43 -11736.496662c -6.67  -4.32c
iter:  29 02:20:25 -11736.496726c -6.92  -4.43c
iter:  30 02:21:08 -11736.496666c -7.15  -4.36c
iter:  31 02:21:50 -11736.496666c -7.33  -4.55c
iter:  32 02:22:33 -11736.496678c -7.25  -4.79c
iter:  33 02:23:15 -11736.496647c -8.16c -4.94c

Converged after 33 iterations.

Dipole moment: (-4.385319, -7.572157, 0.021911) |e|*Ang

Energy contributions relative to reference atoms: (reference = -17442482.204197)

Kinetic:       +1153.859557
Potential:     -1098.102161
External:        +0.000000
XC:            -11785.092668
Entropy (-ST):   -1.513692
Local:           -6.404529
--------------------------
Free energy:   -11737.253493
Extrapolated:  -11736.496647

Showing only first 2 kpts
 Kpt  Band  Eigenvalues  Occupancy
  0   270     -5.72671    1.29136
  0   271     -5.64358    0.88489
  0   272     -5.60186    0.68668
  0   273     -5.56759    0.54140

  1   270     -5.81484    1.62957
  1   271     -5.78564    1.53326
  1   272     -5.70992    1.21281
  1   273     -5.67870    1.05993


Fermi level: -5.66670

No gap

Forces in eV/Ang:
  0 Ir   -0.01221    0.00706    0.28831
  1 Ir    0.00834   -0.00400   -0.34483
  2 Ir   -0.06275    0.05048   -0.17748
  3 Ir   -0.00242    0.00118    0.17574
  4 Ir    0.02852    0.01912    0.41115
  5 Ir   -0.01337   -0.00049   -0.29496
  6 Ir    0.05233   -0.08829   -0.16983
  7 Ir   -0.89712   -0.51293   -0.11325
  8 Ir    0.00844   -0.02691    0.30896
  9 Ir   -0.02741    0.01586   -0.35124
 10 Ir    0.01941   -0.01120   -0.10468
 11 Ir   -0.01737   -0.00706    0.15811
 12 Ir    0.02752    0.00616    0.30895
 13 Ir   -0.01921   -0.00918   -0.45782
 14 Ir    0.06539    0.05589   -0.18263
 15 Ir   -0.00249    0.01841    0.15815
 16 Ir    0.00679    0.00085    0.31765
 17 Ir   -0.00810    0.00468   -0.29239
 18 Ir   -0.00822    0.00477   -1.48385
 19 Ir    0.02484   -5.39007   -1.27420
 20 Ir    0.00080   -0.00047    0.29564
 21 Ir   -0.00625    0.01184   -0.29496
 22 Ir    0.10264   -0.00112   -0.16990
 23 Ir   -4.64339    2.68122   -1.25162
 24 Ir   -0.00229   -0.03424    0.41121
 25 Ir   -0.02806    0.01619   -0.45894
 26 Ir    0.01545   -0.00894    0.06314
 27 Ir   -0.00429    1.03341   -0.11332
 28 Ir   -0.02493    0.01441    0.39250
 29 Ir   -0.00166    0.02125   -0.45773
 30 Ir   -0.01578   -0.08454   -0.18252
 31 Ir    0.86933   -0.50184   -0.10126
 32 Ir    0.00268   -0.00630    0.31762
 33 Ir    0.00763   -0.00519   -0.34485
 34 Ir   -0.07511    0.02909   -0.17743
 35 Ir    4.67578    2.67125   -1.27151
 36 C    -0.03507    0.02466    6.47751

      Step     Time          Energy         fmax
BFGS:    0 02:23:40   -11736.496647        6.4777
System changes: positions 

Initializing position-dependent things.

Density initialized from wave functions
                                            
                                            
                                            
                                            
                                            
                    C                       
          Ir     Ir     Ir                  
           IIr    IIr    IIr                
              Ir     Ir     Ir              
             Ir     Ir     Ir               
              IIr    IIr    IIr             
                                            
                Ir     Ir     Ir            
                  Ir     Ir     Ir          
          Ir     Ir     Ir                  
            Ir     Ir     Ir                
              Ir     Ir     Ir              
                                            
                                            
                                            
                                            

Positions:
   0 Ir     0.000000    0.000000    9.999999    ( 0.0000,  0.0000,  0.0000)
   1 Ir     1.378048    0.795616   12.250341    ( 0.0000,  0.0000,  0.0000)
   2 Ir    -0.000896    1.593107   14.458293    ( 0.0000,  0.0000,  0.0000)
   3 Ir    -0.000035    0.000017   16.672414    ( 0.0000,  0.0000,  0.0000)
   4 Ir    -1.378048    2.386848    9.999999    ( 0.0000,  0.0000,  0.0000)
   5 Ir     0.000000    3.182464   12.250341    ( 0.0000,  0.0000,  0.0000)
   6 Ir    -1.378047    3.976388   14.458863    ( 0.0000,  0.0000,  0.0000)
   7 Ir    -1.390750    2.379421   16.672750    ( 0.0000,  0.0000,  0.0000)
   8 Ir    -2.756095    4.773697    9.999999    ( 0.0000,  0.0000,  0.0000)
   9 Ir    -1.378048    5.569313   12.250341    ( 0.0000,  0.0000,  0.0000)
  10 Ir    -2.754818    6.364192   14.459333    ( 0.0000,  0.0000,  0.0000)
  11 Ir    -2.756373    4.773744   16.676627    ( 0.0000,  0.0000,  0.0000)
  12 Ir     2.756095    0.000000    9.999999    ( 0.0000,  0.0000,  0.0000)
  13 Ir     4.134143    0.795616   12.250341    ( 0.0000,  0.0000,  0.0000)
  14 Ir     2.757835    1.592496   14.458360    ( 0.0000,  0.0000,  0.0000)
  15 Ir     2.755916    0.000215   16.676627    ( 0.0000,  0.0000,  0.0000)
  16 Ir     1.378048    2.386848    9.999999    ( 0.0000,  0.0000,  0.0000)
  17 Ir     2.756095    3.182464   12.250341    ( 0.0000,  0.0000,  0.0000)
  18 Ir     1.378677    3.977717   14.440091    ( 0.0000,  0.0000,  0.0000)
  19 Ir     1.378289    2.309748   16.656165    ( 0.0000,  0.0000,  0.0000)
  20 Ir     0.000000    4.773697    9.999999    ( 0.0000,  0.0000,  0.0000)
  21 Ir     1.378048    5.569313   12.250341    ( 0.0000,  0.0000,  0.0000)
  22 Ir     0.001466    6.365775   14.458862    ( 0.0000,  0.0000,  0.0000)
  23 Ir    -0.066334    4.812000   16.654587    ( 0.0000,  0.0000,  0.0000)
  24 Ir     5.512190    0.000000    9.999999    ( 0.0000,  0.0000,  0.0000)
  25 Ir     6.890238    0.795616   12.250341    ( 0.0000,  0.0000,  0.0000)
  26 Ir     5.511605    1.591569   14.461871    ( 0.0000,  0.0000,  0.0000)
  27 Ir     5.512272    0.014715   16.672749    ( 0.0000,  0.0000,  0.0000)
  28 Ir     4.134143    2.386848    9.999999    ( 0.0000,  0.0000,  0.0000)
  29 Ir     5.512190    3.182464   12.250341    ( 0.0000,  0.0000,  0.0000)
  30 Ir     4.133917    3.975943   14.458361    ( 0.0000,  0.0000,  0.0000)
  31 Ir     4.146562    2.379679   16.672253    ( 0.0000,  0.0000,  0.0000)
  32 Ir     2.756095    4.773697    9.999999    ( 0.0000,  0.0000,  0.0000)
  33 Ir     4.134143    5.569313   12.250341    ( 0.0000,  0.0000,  0.0000)
  34 Ir     2.754023    6.364767   14.458293    ( 0.0000,  0.0000,  0.0000)
  35 Ir     2.822922    4.812005   16.656204    ( 0.0000,  0.0000,  0.0000)
  36 C      1.377433    3.978351   17.562529    ( 0.0000,  0.0000,  0.0000)

Unit cell:
           periodic     x           y           z      points  spacing
  1. axis:    yes    8.268285    0.000000    0.000000    40     0.1790
  2. axis:    yes   -4.134143    7.160545    0.000000    40     0.1790
  3. axis:    no     0.000000    0.000000   26.751025   148     0.1808

  Lengths:   8.268285   8.268285  26.751025
  Angles:   90.000000  90.000000 120.000000

Effective grid spacing dv^(1/3) = 0.1884

     iter     time        total  log10-change:
                         energy  eigst   dens
iter:   1 02:25:24 -11752.260243  -0.63
iter:   2 02:26:07 -11850.408952  -0.57  -1.57
iter:   3 02:26:50 -11739.992228  -1.14  -1.11
iter:   4 02:27:33 -11741.116329  -1.46  -1.94
iter:   5 02:28:16 -11737.908333  -1.97  -1.80
iter:   6 02:28:59 -11737.763761  -2.80  -2.45
iter:   7 02:29:42 -11737.687398c -2.77  -2.64
iter:   8 02:30:25 -11737.667724c -3.10  -2.79
iter:   9 02:31:08 -11737.689251c -3.41  -2.91
iter:  10 02:31:51 -11737.649754c -3.64  -2.68
iter:  11 02:32:34 -11737.647547c -3.69  -3.13
iter:  12 02:33:17 -11737.648446c -4.11  -3.30
iter:  13 02:34:00 -11737.647683c -4.60  -3.33
iter:  14 02:34:43 -11737.649197c -4.80  -3.44
iter:  15 02:35:27 -11737.654728c -4.72  -3.32
iter:  16 02:36:10 -11737.649281c -4.55  -3.13
iter:  17 02:36:53 -11737.649386c -5.16  -3.54
iter:  18 02:37:36 -11737.649053c -5.50  -3.63
iter:  19 02:38:19 -11737.649306c -5.55  -3.87
iter:  20 02:39:02 -11737.649237c -5.58  -4.04c
iter:  21 02:39:45 -11737.649334c -5.89  -3.92
iter:  22 02:40:28 -11737.649329c -5.85  -3.76
iter:  23 02:41:11 -11737.649191c -6.58  -4.09c
iter:  24 02:41:54 -11737.649197c -6.83  -4.53c
iter:  25 02:42:37 -11737.649167c -7.09  -4.64c
iter:  26 02:43:20 -11737.649225c -7.13  -4.73c
iter:  27 02:44:03 -11737.649216c -7.23  -4.77c
iter:  28 02:44:46 -11737.649187c -7.85c -4.72c

Converged after 28 iterations.

Dipole moment: (-3.209375, -8.234851, -0.007718) |e|*Ang

Energy contributions relative to reference atoms: (reference = -17442482.204197)

Kinetic:       +1128.783015
Potential:     -1077.637527
External:        +0.000000
XC:            -11781.730455
Entropy (-ST):   -1.501160
Local:           -6.313640
--------------------------
Free energy:   -11738.399767
Extrapolated:  -11737.649187

Showing only first 2 kpts
 Kpt  Band  Eigenvalues  Occupancy
  0   270     -5.75443    1.29251
  0   271     -5.67439    0.90143
  0   272     -5.63341    0.70523
  0   273     -5.59810    0.55349

  1   270     -5.84438    1.63577
  1   271     -5.81903    1.55412
  1   272     -5.73084    1.18131
  1   273     -5.70589    1.05855


Fermi level: -5.69417

No gap

Forces in eV/Ang:
  0 Ir   -0.01567    0.00906    0.30118
  1 Ir    0.00948   -0.02418   -0.36586
  2 Ir   -0.06085    0.08363   -0.15833
  3 Ir   -0.11957    0.06872    0.14696
  4 Ir    0.03321    0.02257    0.37345
  5 Ir   -0.08794   -0.04093   -0.36093
  6 Ir    0.07522   -0.10281   -0.16132
  7 Ir   -0.52185   -0.30351   -0.09777
  8 Ir    0.00817   -0.03260    0.32054
  9 Ir   -0.04659    0.02692   -0.36628
 10 Ir    0.02051   -0.01190   -0.17148
 11 Ir   -0.00691   -0.13983    0.14033
 12 Ir    0.03231    0.00924    0.32054
 13 Ir   -0.00731   -0.00217   -0.46297
 14 Ir    0.06461    0.08558   -0.16546
 15 Ir    0.11776    0.07567    0.14037
 16 Ir    0.00802   -0.00241    0.31555
 17 Ir    0.06420   -0.03706   -0.35588
 18 Ir   -0.00738    0.00424   -0.66599
 19 Ir    0.00316   -0.98980    0.22163
 20 Ir   -0.00169    0.00098    0.29014
 21 Ir   -0.00851    0.09665   -0.36094
 22 Ir    0.12669   -0.01375   -0.16135
 23 Ir   -0.88024    0.50790    0.24735
 24 Ir   -0.00293   -0.04003    0.37344
 25 Ir   -0.03871    0.02234   -0.46078
 26 Ir    0.01789   -0.01034   -0.14741
 27 Ir    0.00193    0.60369   -0.09779
 28 Ir   -0.03153    0.01821    0.35327
 29 Ir   -0.00179    0.00744   -0.46293
 30 Ir   -0.04188   -0.09862   -0.16530
 31 Ir    0.51549   -0.29760   -0.08405
 32 Ir    0.00611   -0.00573    0.31555
 33 Ir    0.02568    0.00390   -0.36584
 34 Ir   -0.10281    0.01075   -0.15821
 35 Ir    0.85843    0.49162    0.22159
 36 C    -0.01095    0.00769    1.73134

BFGS:    1 02:45:10   -11737.649187        1.7314
System changes: positions 

Initializing position-dependent things.

Density initialized from wave functions
                                            
                                            
                                            
                                            
                                            
                    C                       
          Ir     Ir     Ir                  
           IIr    IIr    IIr                
              Ir     Ir     Ir              
             Ir     Ir     Ir               
              IIr    IIr    IIr             
                                            
                Ir     Ir     Ir            
                  Ir     Ir     Ir          
          Ir     Ir     Ir                  
            Ir     Ir     Ir                
              Ir     Ir     Ir              
                                            
                                            
                                            
                                            

Positions:
   0 Ir     0.000000    0.000000    9.999999    ( 0.0000,  0.0000,  0.0000)
   1 Ir     1.378048    0.795616   12.250341    ( 0.0000,  0.0000,  0.0000)
   2 Ir    -0.002019    1.594640   14.455367    ( 0.0000,  0.0000,  0.0000)
   3 Ir    -0.002205    0.001264   16.675133    ( 0.0000,  0.0000,  0.0000)
   4 Ir    -1.378048    2.386848    9.999999    ( 0.0000,  0.0000,  0.0000)
   5 Ir     0.000000    3.182464   12.250341    ( 0.0000,  0.0000,  0.0000)
   6 Ir    -1.376666    3.974496   14.455885    ( 0.0000,  0.0000,  0.0000)
   7 Ir    -1.400487    2.373761   16.670942    ( 0.0000,  0.0000,  0.0000)
   8 Ir    -2.756095    4.773697    9.999999    ( 0.0000,  0.0000,  0.0000)
   9 Ir    -1.378048    5.569313   12.250341    ( 0.0000,  0.0000,  0.0000)
  10 Ir    -2.754440    6.363972   14.456190    ( 0.0000,  0.0000,  0.0000)
  11 Ir    -2.756503    4.771204   16.679220    ( 0.0000,  0.0000,  0.0000)
  12 Ir     2.756095    0.000000    9.999999    ( 0.0000,  0.0000,  0.0000)
  13 Ir     4.134143    0.795616   12.250341    ( 0.0000,  0.0000,  0.0000)
  14 Ir     2.759026    1.594065   14.455303    ( 0.0000,  0.0000,  0.0000)
  15 Ir     2.758053    0.001593   16.679222    ( 0.0000,  0.0000,  0.0000)
  16 Ir     1.378048    2.386848    9.999999    ( 0.0000,  0.0000,  0.0000)
  17 Ir     2.756095    3.182464   12.250341    ( 0.0000,  0.0000,  0.0000)
  18 Ir     1.378541    3.977796   14.427563    ( 0.0000,  0.0000,  0.0000)
  19 Ir     1.378354    2.290179   16.659807    ( 0.0000,  0.0000,  0.0000)
  20 Ir     0.000000    4.773697    9.999999    ( 0.0000,  0.0000,  0.0000)
  21 Ir     1.378048    5.569313   12.250341    ( 0.0000,  0.0000,  0.0000)
  22 Ir     0.003796    6.365526   14.455883    ( 0.0000,  0.0000,  0.0000)
  23 Ir    -0.083692    4.822016   16.658702    ( 0.0000,  0.0000,  0.0000)
  24 Ir     5.512190    0.000000    9.999999    ( 0.0000,  0.0000,  0.0000)
  25 Ir     6.890238    0.795616   12.250341    ( 0.0000,  0.0000,  0.0000)
  26 Ir     5.511934    1.591379   14.459215    ( 0.0000,  0.0000,  0.0000)
  27 Ir     5.512305    0.025978   16.670941    ( 0.0000,  0.0000,  0.0000)
  28 Ir     4.134143    2.386848    9.999999    ( 0.0000,  0.0000,  0.0000)
  29 Ir     5.512190    3.182464   12.250341    ( 0.0000,  0.0000,  0.0000)
  30 Ir     4.133153    3.974128   14.455307    ( 0.0000,  0.0000,  0.0000)
  31 Ir     4.156175    2.374129   16.670698    ( 0.0000,  0.0000,  0.0000)
  32 Ir     2.756095    4.773697    9.999999    ( 0.0000,  0.0000,  0.0000)
  33 Ir     4.134143    5.569313   12.250341    ( 0.0000,  0.0000,  0.0000)
  34 Ir     2.752135    6.364971   14.455370    ( 0.0000,  0.0000,  0.0000)
  35 Ir     2.839894    4.821723   16.659845    ( 0.0000,  0.0000,  0.0000)
  36 C      1.377224    3.978497   17.595878    ( 0.0000,  0.0000,  0.0000)

Unit cell:
           periodic     x           y           z      points  spacing
  1. axis:    yes    8.268285    0.000000    0.000000    40     0.1790
  2. axis:    yes   -4.134143    7.160545    0.000000    40     0.1790
  3. axis:    no     0.000000    0.000000   26.751025   148     0.1808

  Lengths:   8.268285   8.268285  26.751025
  Angles:   90.000000  90.000000 120.000000

Effective grid spacing dv^(1/3) = 0.1884

     iter     time        total  log10-change:
                         energy  eigst   dens
iter:   1 02:46:54 -11740.006512  -1.73
iter:   2 02:47:37 -11767.079910  -1.30  -1.91
iter:   3 02:48:20 -11737.902181  -1.79  -1.35
iter:   4 02:49:04 -11737.876229  -2.43  -2.53
iter:   5 02:49:47 -11737.776172c -3.21  -2.53
iter:   6 02:50:30 -11737.769191c -3.71  -2.99
iter:   7 02:51:13 -11737.762295c -3.86  -3.17
iter:   8 02:51:57 -11737.762088c -4.16  -3.37
iter:   9 02:52:40 -11737.763608c -4.55  -3.33
iter:  10 02:53:23 -11737.759593c -4.77  -3.18
iter:  11 02:54:06 -11737.759725c -4.84  -3.69
iter:  12 02:54:50 -11737.759275c -5.37  -3.81
iter:  13 02:55:33 -11737.759552c -5.85  -3.86
iter:  14 02:56:16 -11737.759448c -5.79  -3.94
iter:  15 02:57:00 -11737.760033c -5.78  -4.03c
iter:  16 02:57:43 -11737.759504c -5.87  -3.71
iter:  17 02:58:26 -11737.759479c -6.52  -4.00c
iter:  18 02:59:10 -11737.759541c -6.47  -4.33c
iter:  19 02:59:53 -11737.759453c -6.92  -4.53c
iter:  20 03:00:36 -11737.759526c -7.11  -4.60c
iter:  21 03:01:20 -11737.759481c -7.21  -4.73c
iter:  22 03:02:03 -11737.759479c -7.64c -4.92c

Converged after 22 iterations.

Dipole moment: (-2.102502, -8.857640, -0.017168) |e|*Ang

Energy contributions relative to reference atoms: (reference = -17442482.204197)

Kinetic:       +1123.314335
Potential:     -1073.109895
External:        +0.000000
XC:            -11780.917032
Entropy (-ST):   -1.495514
Local:           -6.299130
--------------------------
Free energy:   -11738.507236
Extrapolated:  -11737.759479

Showing only first 2 kpts
 Kpt  Band  Eigenvalues  Occupancy
  0   270     -5.76186    1.29324
  0   271     -5.68292    0.90765
  0   272     -5.64349    0.71809
  0   273     -5.60443    0.54971

  1   270     -5.85467    1.64469
  1   271     -5.81959    1.53043
  1   272     -5.73817    1.18160
  1   273     -5.71465    1.06596


Fermi level: -5.70144

No gap

Forces in eV/Ang:
  0 Ir   -0.01580    0.00913    0.30486
  1 Ir    0.00972   -0.02936   -0.38296
  2 Ir   -0.02116    0.06636   -0.09280
  3 Ir   -0.11274    0.06480    0.08477
  4 Ir    0.03425    0.02319    0.36317
  5 Ir   -0.10903   -0.05287   -0.40175
  6 Ir    0.07321   -0.06327   -0.09599
  7 Ir   -0.32776   -0.19607   -0.09352
  8 Ir    0.00857   -0.03297    0.32300
  9 Ir   -0.05115    0.02954   -0.38289
 10 Ir    0.01732   -0.01004   -0.10544
 11 Ir   -0.00269   -0.12992    0.08277
 12 Ir    0.03284    0.00907    0.32299
 13 Ir   -0.00470   -0.00102   -0.47818
 14 Ir    0.02818    0.06758   -0.09407
 15 Ir    0.11128    0.06707    0.08277
 16 Ir    0.00839   -0.00451    0.31027
 17 Ir    0.08522   -0.04919   -0.39567
 18 Ir   -0.00342    0.00193   -0.32481
 19 Ir    0.00332   -0.13151    0.43152
 20 Ir   -0.00333    0.00193    0.28434
 21 Ir   -0.00872    0.12088   -0.40176
 22 Ir    0.09142   -0.03181   -0.09599
 23 Ir   -0.12860    0.07396    0.43119
 24 Ir   -0.00294   -0.04125    0.36315
 25 Ir   -0.04035    0.02328   -0.47600
 26 Ir    0.01416   -0.00819   -0.19396
 27 Ir    0.00590    0.38183   -0.09351
 28 Ir   -0.03287    0.01899    0.34349
 29 Ir   -0.00148    0.00460   -0.47816
 30 Ir   -0.04447   -0.05813   -0.09400
 31 Ir    0.32701   -0.18882   -0.07885
 32 Ir    0.00811   -0.00500    0.31027
 33 Ir    0.03029    0.00627   -0.38294
 34 Ir   -0.06804   -0.01498   -0.09272
 35 Ir    0.11569    0.06267    0.43116
 36 C    -0.00465    0.00360    0.78657

BFGS:    2 03:02:27   -11737.759479        0.7866
System changes: positions 

Initializing position-dependent things.

Density initialized from wave functions
                                            
                                            
                                            
                                            
                                            
                    C                       
          Ir     Ir     Ir                  
           IIr    IIr    IIr                
              Ir     Ir     Ir              
             Ir     Ir     Ir               
              IIr    IIr    IIr             
                                            
                Ir     Ir     Ir            
                  Ir     Ir     Ir          
          Ir     Ir     Ir                  
            Ir     Ir     Ir                
              Ir     Ir     Ir              
                                            
                                            
                                            
                                            

Positions:
   0 Ir     0.000000    0.000000    9.999999    ( 0.0000,  0.0000,  0.0000)
   1 Ir     1.378048    0.795616   12.250341    ( 0.0000,  0.0000,  0.0000)
   2 Ir    -0.002826    1.596614   14.452370    ( 0.0000,  0.0000,  0.0000)
   3 Ir    -0.005420    0.003112   16.677887    ( 0.0000,  0.0000,  0.0000)
   4 Ir    -1.378048    2.386848    9.999999    ( 0.0000,  0.0000,  0.0000)
   5 Ir     0.000000    3.182464   12.250341    ( 0.0000,  0.0000,  0.0000)
   6 Ir    -1.374568    3.972490   14.452802    ( 0.0000,  0.0000,  0.0000)
   7 Ir    -1.411019    2.367510   16.668233    ( 0.0000,  0.0000,  0.0000)
   8 Ir    -2.756095    4.773697    9.999999    ( 0.0000,  0.0000,  0.0000)
   9 Ir    -1.378048    5.569313   12.250341    ( 0.0000,  0.0000,  0.0000)
  10 Ir    -2.753929    6.363676   14.452866    ( 0.0000,  0.0000,  0.0000)
  11 Ir    -2.756606    4.767489   16.681889    ( 0.0000,  0.0000,  0.0000)
  12 Ir     2.756095    0.000000    9.999999    ( 0.0000,  0.0000,  0.0000)
  13 Ir     4.134143    0.795616   12.250341    ( 0.0000,  0.0000,  0.0000)
  14 Ir     2.760017    1.596080   14.452241    ( 0.0000,  0.0000,  0.0000)
  15 Ir     2.761222    0.003534   16.681891    ( 0.0000,  0.0000,  0.0000)
  16 Ir     1.378048    2.386848    9.999999    ( 0.0000,  0.0000,  0.0000)
  17 Ir     2.756095    3.182464   12.250341    ( 0.0000,  0.0000,  0.0000)
  18 Ir     1.378423    3.977863   14.416186    ( 0.0000,  0.0000,  0.0000)
  19 Ir     1.378458    2.280185   16.670471    ( 0.0000,  0.0000,  0.0000)
  20 Ir     0.000000    4.773697    9.999999    ( 0.0000,  0.0000,  0.0000)
  21 Ir     1.378048    5.569313   12.250341    ( 0.0000,  0.0000,  0.0000)
  22 Ir     0.006583    6.364710   14.452801    ( 0.0000,  0.0000,  0.0000)
  23 Ir    -0.092790    4.827260   16.669486    ( 0.0000,  0.0000,  0.0000)
  24 Ir     5.512190    0.000000    9.999999    ( 0.0000,  0.0000,  0.0000)
  25 Ir     6.890238    0.795616   12.250341    ( 0.0000,  0.0000,  0.0000)
  26 Ir     5.512358    1.591134   14.453980    ( 0.0000,  0.0000,  0.0000)
  27 Ir     5.512452    0.038223   16.668232    ( 0.0000,  0.0000,  0.0000)
  28 Ir     4.134143    2.386848    9.999999    ( 0.0000,  0.0000,  0.0000)
  29 Ir     5.512190    3.182464   12.250341    ( 0.0000,  0.0000,  0.0000)
  30 Ir     4.131902    3.972265   14.452248    ( 0.0000,  0.0000,  0.0000)
  31 Ir     4.166648    2.368082   16.668404    ( 0.0000,  0.0000,  0.0000)
  32 Ir     2.756095    4.773697    9.999999    ( 0.0000,  0.0000,  0.0000)
  33 Ir     4.134143    5.569313   12.250341    ( 0.0000,  0.0000,  0.0000)
  34 Ir     2.750022    6.364679   14.452375    ( 0.0000,  0.0000,  0.0000)
  35 Ir     2.848600    4.826622   16.670502    ( 0.0000,  0.0000,  0.0000)
  36 C      1.377049    3.978629   17.625234    ( 0.0000,  0.0000,  0.0000)

Unit cell:
           periodic     x           y           z      points  spacing
  1. axis:    yes    8.268285    0.000000    0.000000    40     0.1790
  2. axis:    yes   -4.134143    7.160545    0.000000    40     0.1790
  3. axis:    no     0.000000    0.000000   26.751025   148     0.1808

  Lengths:   8.268285   8.268285  26.751025
  Angles:   90.000000  90.000000 120.000000

Effective grid spacing dv^(1/3) = 0.1884

     iter     time        total  log10-change:
                         energy  eigst   dens
iter:   1 03:04:11 -11739.203888  -1.95
iter:   2 03:04:54 -11757.557902  -1.49  -1.99
iter:   3 03:05:37 -11737.875275  -1.97  -1.42
iter:   4 03:06:20 -11737.841143  -2.70  -2.65
iter:   5 03:07:03 -11737.813998c -3.49  -2.74
iter:   6 03:07:47 -11737.811387c -3.97  -3.11
iter:   7 03:08:30 -11737.806540c -3.98  -3.24
iter:   8 03:09:13 -11737.805825c -4.20  -3.49
iter:   9 03:09:56 -11737.807519c -4.76  -3.56
iter:  10 03:10:40 -11737.805449c -5.28  -3.32
iter:  11 03:11:23 -11737.805405c -5.54  -3.71
iter:  12 03:12:06 -11737.805141c -5.31  -3.86
iter:  13 03:12:49 -11737.805298c -6.03  -4.05c
iter:  14 03:13:32 -11737.805157c -6.46  -4.10c
iter:  15 03:14:16 -11737.805431c -5.73  -4.14c
iter:  16 03:14:59 -11737.805246c -6.28  -3.79
iter:  17 03:15:42 -11737.805217c -7.22  -4.36c
iter:  18 03:16:25 -11737.805228c -6.05  -4.40c
iter:  19 03:17:09 -11737.805198c -7.07  -4.74c
iter:  20 03:17:52 -11737.805216c -7.28  -4.84c
iter:  21 03:18:35 -11737.805216c -7.45c -4.82c

Converged after 21 iterations.

Dipole moment: (-0.794275, -9.589605, -0.024292) |e|*Ang

Energy contributions relative to reference atoms: (reference = -17442482.204197)

Kinetic:       +1119.401546
Potential:     -1069.840639
External:        +0.000000
XC:            -11780.328154
Entropy (-ST):   -1.490502
Local:           -6.292717
--------------------------
Free energy:   -11738.550466
Extrapolated:  -11737.805216

Showing only first 2 kpts
 Kpt  Band  Eigenvalues  Occupancy
  0   270     -5.76750    1.29649
  0   271     -5.68886    0.91273
  0   272     -5.65100    0.73003
  0   273     -5.60783    0.54366

  1   270     -5.86403    1.65745
  1   271     -5.81836    1.50796
  1   272     -5.74415    1.18672
  1   273     -5.72143    1.07519


Fermi level: -5.70636

No gap

Forces in eV/Ang:
  0 Ir   -0.01531    0.00885    0.30402
  1 Ir    0.01028   -0.03242   -0.39756
  2 Ir    0.02946    0.03843   -0.00736
  3 Ir   -0.07903    0.04542    0.02396
  4 Ir    0.03514    0.02348    0.35662
  5 Ir   -0.12172   -0.06088   -0.44473
  6 Ir    0.06525   -0.00957   -0.00883
  7 Ir   -0.13268   -0.08942   -0.07662
  8 Ir    0.00915   -0.03235    0.32085
  9 Ir   -0.05348    0.03089   -0.39831
 10 Ir    0.01315   -0.00761   -0.01451
 11 Ir    0.00137   -0.08751    0.02217
 12 Ir    0.03260    0.00826    0.32084
 13 Ir   -0.00936   -0.00422   -0.49283
 14 Ir   -0.01782    0.03947   -0.00273
 15 Ir    0.07654    0.04242    0.02215
 16 Ir    0.00855   -0.00619    0.30236
 17 Ir    0.09888   -0.05707   -0.43667
 18 Ir    0.00454   -0.00269   -0.02064
 19 Ir    0.00433    0.31751    0.43956
 20 Ir   -0.00477    0.00276    0.27634
 21 Ir   -0.00812    0.13587   -0.44474
 22 Ir    0.04090   -0.05179   -0.00880
 23 Ir    0.27662   -0.15992    0.42391
 24 Ir   -0.00275   -0.04216    0.35659
 25 Ir   -0.03454    0.01992   -0.49145
 26 Ir    0.00913   -0.00529   -0.19912
 27 Ir    0.01103    0.15954   -0.07660
 28 Ir   -0.03391    0.01959    0.33768
 29 Ir   -0.00104    0.01024   -0.49282
 30 Ir   -0.04311   -0.00433   -0.00276
 31 Ir    0.12758   -0.07373   -0.06267
 32 Ir    0.00965   -0.00431    0.30236
 33 Ir    0.03321    0.00731   -0.39754
 34 Ir   -0.01857   -0.04480   -0.00736
 35 Ir   -0.27239   -0.16246    0.43910
 36 C    -0.00758    0.00494    0.25078

BFGS:    3 03:19:01   -11737.805216        0.5423
System changes: positions 

Initializing position-dependent things.

Density initialized from wave functions
                                            
                                            
                                            
                                            
                                            
                    C                       
          Ir     Ir     Ir                  
           IIr    IIr    IIr                
              Ir     Ir     Ir              
             Ir     Ir     Ir               
               Ir     Ir     Ir             
              Ir     Ir     Ir              
                Ir     Ir     Ir            
                  Ir     Ir     Ir          
          Ir     Ir     Ir                  
            Ir     Ir     Ir                
              Ir     Ir     Ir              
                                            
                                            
                                            
                                            

Positions:
   0 Ir     0.000000    0.000000    9.999999    ( 0.0000,  0.0000,  0.0000)
   1 Ir     1.378048    0.795616   12.250341    ( 0.0000,  0.0000,  0.0000)
   2 Ir    -0.002621    1.598250   14.450855    ( 0.0000,  0.0000,  0.0000)
   3 Ir    -0.008368    0.004806   16.679647    ( 0.0000,  0.0000,  0.0000)
   4 Ir    -1.378048    2.386848    9.999999    ( 0.0000,  0.0000,  0.0000)
   5 Ir     0.000000    3.182464   12.250341    ( 0.0000,  0.0000,  0.0000)
   6 Ir    -1.372350    3.971395   14.451225    ( 0.0000,  0.0000,  0.0000)
   7 Ir    -1.418574    2.362823   16.665517    ( 0.0000,  0.0000,  0.0000)
   8 Ir    -2.756095    4.773697    9.999999    ( 0.0000,  0.0000,  0.0000)
   9 Ir    -1.378048    5.569313   12.250341    ( 0.0000,  0.0000,  0.0000)
  10 Ir    -2.753439    6.363392   14.451087    ( 0.0000,  0.0000,  0.0000)
  11 Ir    -2.756631    4.764157   16.683564    ( 0.0000,  0.0000,  0.0000)
  12 Ir     2.756095    0.000000    9.999999    ( 0.0000,  0.0000,  0.0000)
  13 Ir     4.134143    0.795616   12.250341    ( 0.0000,  0.0000,  0.0000)
  14 Ir     2.760124    1.597756   14.450784    ( 0.0000,  0.0000,  0.0000)
  15 Ir     2.764098    0.005215   16.683566    ( 0.0000,  0.0000,  0.0000)
  16 Ir     1.378048    2.386848    9.999999    ( 0.0000,  0.0000,  0.0000)
  17 Ir     2.756095    3.182464   12.250341    ( 0.0000,  0.0000,  0.0000)
  18 Ir     1.378461    3.977839   14.410217    ( 0.0000,  0.0000,  0.0000)
  19 Ir     1.378595    2.279932   16.683212    ( 0.0000,  0.0000,  0.0000)
  20 Ir     0.000000    4.773697    9.999999    ( 0.0000,  0.0000,  0.0000)
  21 Ir     1.378048    5.569313   12.250341    ( 0.0000,  0.0000,  0.0000)
  22 Ir     0.008640    6.363335   14.451224    ( 0.0000,  0.0000,  0.0000)
  23 Ir    -0.093161    4.827467   16.682003    ( 0.0000,  0.0000,  0.0000)
  24 Ir     5.512190    0.000000    9.999999    ( 0.0000,  0.0000,  0.0000)
  25 Ir     6.890238    0.795616   12.250341    ( 0.0000,  0.0000,  0.0000)
  26 Ir     5.512729    1.590920   14.447833    ( 0.0000,  0.0000,  0.0000)
  27 Ir     5.512733    0.047107   16.665516    ( 0.0000,  0.0000,  0.0000)
  28 Ir     4.134143    2.386848    9.999999    ( 0.0000,  0.0000,  0.0000)
  29 Ir     5.512190    3.182464   12.250341    ( 0.0000,  0.0000,  0.0000)
  30 Ir     4.130503    3.971335   14.450792    ( 0.0000,  0.0000,  0.0000)
  31 Ir     4.174055    2.363804   16.666146    ( 0.0000,  0.0000,  0.0000)
  32 Ir     2.756095    4.773697    9.999999    ( 0.0000,  0.0000,  0.0000)
  33 Ir     4.134143    5.569313   12.250341    ( 0.0000,  0.0000,  0.0000)
  34 Ir     2.748708    6.363681   14.450862    ( 0.0000,  0.0000,  0.0000)
  35 Ir     2.848894    4.826626   16.683232    ( 0.0000,  0.0000,  0.0000)
  36 C      1.376799    3.978798   17.645512    ( 0.0000,  0.0000,  0.0000)

Unit cell:
           periodic     x           y           z      points  spacing
  1. axis:    yes    8.268285    0.000000    0.000000    40     0.1790
  2. axis:    yes   -4.134143    7.160545    0.000000    40     0.1790
  3. axis:    no     0.000000    0.000000   26.751025   148     0.1808

  Lengths:   8.268285   8.268285  26.751025
  Angles:   90.000000  90.000000 120.000000

Effective grid spacing dv^(1/3) = 0.1884

     iter     time        total  log10-change:
                         energy  eigst   dens
iter:   1 03:20:44 -11738.239845  -2.32
iter:   2 03:21:27 -11743.964632  -2.02  -2.25
iter:   3 03:22:10 -11737.844736  -2.49  -1.66
iter:   4 03:22:54 -11737.833613  -3.33  -2.97
iter:   5 03:23:37 -11737.832462c -4.06  -3.10
iter:   6 03:24:20 -11737.830759c -4.34  -3.31
iter:   7 03:25:03 -11737.829572c -4.30  -3.47
iter:   8 03:25:46 -11737.831945c -4.81  -3.60
iter:   9 03:26:29 -11737.829390c -5.13  -3.29
iter:  10 03:27:12 -11737.829119c -5.85  -3.70
iter:  11 03:27:55 -11737.829201c -5.96  -3.82
iter:  12 03:28:39 -11737.828890c -5.98  -4.02c
iter:  13 03:29:22 -11737.829053c -6.29  -4.10c
iter:  14 03:30:05 -11737.829023c -6.49  -4.26c
iter:  15 03:30:48 -11737.829058c -6.92  -4.26c
iter:  16 03:31:31 -11737.829020c -7.16  -4.36c
iter:  17 03:32:14 -11737.828979c -6.74  -4.53c
iter:  18 03:32:57 -11737.829038c -7.33  -4.71c
iter:  19 03:33:40 -11737.828996c -7.82c -4.85c

Converged after 19 iterations.

Dipole moment: (0.247684, -10.171846, -0.028697) |e|*Ang

Energy contributions relative to reference atoms: (reference = -17442482.204197)

Kinetic:       +1117.246169
Potential:     -1068.042600
External:        +0.000000
XC:            -11779.998431
Entropy (-ST):   -1.487598
Local:           -6.290334
--------------------------
Free energy:   -11738.572795
Extrapolated:  -11737.828996

Showing only first 2 kpts
 Kpt  Band  Eigenvalues  Occupancy
  0   270     -5.77151    1.30047
  0   271     -5.69262    0.91578
  0   272     -5.65557    0.73669
  0   273     -5.60986    0.53927

  1   270     -5.87092    1.66797
  1   271     -5.81769    1.49369
  1   272     -5.74864    1.19323
  1   273     -5.72561    1.08037


Fermi level: -5.70950

No gap

Forces in eV/Ang:
  0 Ir   -0.01464    0.00846    0.30092
  1 Ir    0.01126   -0.03319   -0.40523
  2 Ir    0.06156    0.01282    0.05189
  3 Ir   -0.03994    0.02297   -0.00812
  4 Ir    0.03596    0.02367    0.35603
  5 Ir   -0.12162   -0.06221   -0.46762
  6 Ir    0.05183    0.02883    0.05243
  7 Ir   -0.00595   -0.01814   -0.05679
  8 Ir    0.00959   -0.03134    0.31666
  9 Ir   -0.05332    0.03079   -0.40738
 10 Ir    0.00917   -0.00529    0.05062
 11 Ir    0.00491   -0.04011   -0.01311
 12 Ir    0.03194    0.00737    0.31665
 13 Ir   -0.01902   -0.01033   -0.50079
 14 Ir   -0.04660    0.01427    0.05879
 15 Ir    0.03719    0.01574   -0.01315
 16 Ir    0.00858   -0.00737    0.29611
 17 Ir    0.10072   -0.05813   -0.45779
 18 Ir    0.01000   -0.00585    0.13674
 19 Ir    0.00356    0.38917    0.34271
 20 Ir   -0.00603    0.00348    0.27039
 21 Ir   -0.00692    0.13644   -0.46762
 22 Ir    0.00092   -0.05937    0.05247
 23 Ir    0.35104   -0.20281    0.33785
 24 Ir   -0.00250   -0.04296    0.35600
 25 Ir   -0.02390    0.01377   -0.50034
 26 Ir    0.00631   -0.00366   -0.15636
 27 Ir    0.01265    0.01414   -0.05678
 28 Ir   -0.03481    0.02011    0.33758
 29 Ir   -0.00058    0.02166   -0.50080
 30 Ir   -0.03566    0.03313    0.05869
 31 Ir   -0.00118    0.00059   -0.04688
 32 Ir    0.01069   -0.00374    0.29611
 33 Ir    0.03437    0.00684   -0.40523
 34 Ir    0.01964   -0.05975    0.05183
 35 Ir   -0.33480   -0.19753    0.34228
 36 C    -0.00087    0.00084    0.12983

BFGS:    4 03:34:05   -11737.828996        0.5277
System changes: positions 

Initializing position-dependent things.

Density initialized from wave functions
                                            
                                            
                                            
                                            
                                            
                    C                       
          Ir     Ir     Ir                  
           IIr    IIr    IIr                
              Ir     Ir     Ir              
             Ir     Ir     Ir               
               Ir     Ir     Ir             
              Ir     Ir     Ir              
                Ir     Ir     Ir            
                  Ir     Ir     Ir          
          Ir     Ir     Ir                  
            Ir     Ir     Ir                
              Ir     Ir     Ir              
                                            
                                            
                                            
                                            

Positions:
   0 Ir     0.000000    0.000000    9.999999    ( 0.0000,  0.0000,  0.0000)
   1 Ir     1.378048    0.795616   12.250341    ( 0.0000,  0.0000,  0.0000)
   2 Ir    -0.000848    1.600484   14.450338    ( 0.0000,  0.0000,  0.0000)
   3 Ir    -0.012762    0.007332   16.681654    ( 0.0000,  0.0000,  0.0000)
   4 Ir    -1.378048    2.386848    9.999999    ( 0.0000,  0.0000,  0.0000)
   5 Ir     0.000000    3.182464   12.250341    ( 0.0000,  0.0000,  0.0000)
   6 Ir    -1.368445    3.970817   14.450656    ( 0.0000,  0.0000,  0.0000)
   7 Ir    -1.427980    2.356647   16.660889    ( 0.0000,  0.0000,  0.0000)
   8 Ir    -2.756095    4.773697    9.999999    ( 0.0000,  0.0000,  0.0000)
   9 Ir    -1.378048    5.569313   12.250341    ( 0.0000,  0.0000,  0.0000)
  10 Ir    -2.752627    6.362922   14.450252    ( 0.0000,  0.0000,  0.0000)
  11 Ir    -2.756535    4.759320   16.685313    ( 0.0000,  0.0000,  0.0000)
  12 Ir     2.756095    0.000000    9.999999    ( 0.0000,  0.0000,  0.0000)
  13 Ir     4.134143    0.795616   12.250341    ( 0.0000,  0.0000,  0.0000)
  14 Ir     2.759103    1.600080   14.450498    ( 0.0000,  0.0000,  0.0000)
  15 Ir     2.768338    0.007542   16.685312    ( 0.0000,  0.0000,  0.0000)
  16 Ir     1.378048    2.386848    9.999999    ( 0.0000,  0.0000,  0.0000)
  17 Ir     2.756095    3.182464   12.250341    ( 0.0000,  0.0000,  0.0000)
  18 Ir     1.378762    3.977661   14.405845    ( 0.0000,  0.0000,  0.0000)
  19 Ir     1.378843    2.286399   16.705935    ( 0.0000,  0.0000,  0.0000)
  20 Ir     0.000000    4.773697    9.999999    ( 0.0000,  0.0000,  0.0000)
  21 Ir     1.378048    5.569313   12.250341    ( 0.0000,  0.0000,  0.0000)
  22 Ir     0.011093    6.360238   14.450656    ( 0.0000,  0.0000,  0.0000)
  23 Ir    -0.087371    4.824111   16.704504    ( 0.0000,  0.0000,  0.0000)
  24 Ir     5.512190    0.000000    9.999999    ( 0.0000,  0.0000,  0.0000)
  25 Ir     6.890238    0.795616   12.250341    ( 0.0000,  0.0000,  0.0000)
  26 Ir     5.513337    1.590567   14.436923    ( 0.0000,  0.0000,  0.0000)
  27 Ir     5.513374    0.058336   16.660889    ( 0.0000,  0.0000,  0.0000)
  28 Ir     4.134143    2.386848    9.999999    ( 0.0000,  0.0000,  0.0000)
  29 Ir     5.512190    3.182464   12.250341    ( 0.0000,  0.0000,  0.0000)
  30 Ir     4.127979    3.971055   14.450503    ( 0.0000,  0.0000,  0.0000)
  31 Ir     4.183094    2.358581   16.662291    ( 0.0000,  0.0000,  0.0000)
  32 Ir     2.756095    4.773697    9.999999    ( 0.0000,  0.0000,  0.0000)
  33 Ir     4.134143    5.569313   12.250341    ( 0.0000,  0.0000,  0.0000)
  34 Ir     2.747658    6.361024   14.450344    ( 0.0000,  0.0000,  0.0000)
  35 Ir     2.843436    4.823175   16.705932    ( 0.0000,  0.0000,  0.0000)
  36 C      1.376523    3.978998   17.676331    ( 0.0000,  0.0000,  0.0000)

Unit cell:
           periodic     x           y           z      points  spacing
  1. axis:    yes    8.268285    0.000000    0.000000    40     0.1790
  2. axis:    yes   -4.134143    7.160545    0.000000    40     0.1790
  3. axis:    no     0.000000    0.000000   26.751025   148     0.1808

  Lengths:   8.268285   8.268285  26.751025
  Angles:   90.000000  90.000000 120.000000

Effective grid spacing dv^(1/3) = 0.1884

     iter     time        total  log10-change:
                         energy  eigst   dens
iter:   1 03:35:48 -11738.246834  -2.00
iter:   2 03:36:32 -11742.667247  -2.08  -2.25
iter:   3 03:37:15 -11737.889632  -2.55  -1.71
iter:   4 03:37:58 -11737.864189  -3.42  -2.84
iter:   5 03:38:41 -11737.860495c -3.97  -3.02
iter:   6 03:39:25 -11737.857003c -4.01  -3.20
iter:   7 03:40:08 -11737.856286c -4.42  -3.35
iter:   8 03:40:51 -11737.855792c -4.75  -3.42
iter:   9 03:41:34 -11737.856542c -5.14  -3.53
iter:  10 03:42:18 -11737.855196c -5.10  -3.39
iter:  11 03:43:01 -11737.855191c -5.78  -3.81
iter:  12 03:43:44 -11737.855080c -5.42  -3.84
iter:  13 03:44:27 -11737.855205c -6.21  -4.13c
iter:  14 03:45:11 -11737.855041c -6.67  -4.20c
iter:  15 03:45:54 -11737.855215c -6.61  -4.34c
iter:  16 03:46:37 -11737.855147c -6.91  -4.28c
iter:  17 03:47:20 -11737.855129c -6.78  -4.23c
iter:  18 03:48:04 -11737.855133c -7.03  -4.63c
iter:  19 03:48:47 -11737.855116c -7.39  -4.71c
iter:  20 03:49:30 -11737.855141c -7.83c -4.79c

Converged after 20 iterations.

Dipole moment: (1.688265, -10.976714, -0.033403) |e|*Ang

Energy contributions relative to reference atoms: (reference = -17442482.204197)

Kinetic:       +1114.046904
Potential:     -1065.321699
External:        +0.000000
XC:            -11779.550059
Entropy (-ST):   -1.485068
Local:           -6.287753
--------------------------
Free energy:   -11738.597675
Extrapolated:  -11737.855141

Showing only first 2 kpts
 Kpt  Band  Eigenvalues  Occupancy
  0   270     -5.77603    1.30625
  0   271     -5.69668    0.91983
  0   272     -5.66026    0.74338
  0   273     -5.61189    0.53449

  1   270     -5.87903    1.68123
  1   271     -5.81653    1.47685
  1   272     -5.75412    1.20393
  1   273     -5.72957    1.08386


Fermi level: -5.71275

No gap

Forces in eV/Ang:
  0 Ir   -0.01345    0.00777    0.29609
  1 Ir    0.01341   -0.03294   -0.40878
  2 Ir    0.08940   -0.02542    0.11811
  3 Ir    0.02882   -0.01653   -0.04239
  4 Ir    0.03862    0.02449    0.36338
  5 Ir   -0.11156   -0.05953   -0.48257
  6 Ir    0.02304    0.07127    0.12301
  7 Ir    0.14877    0.07612   -0.02030
  8 Ir    0.01019   -0.02968    0.31029
  9 Ir   -0.05112    0.02952   -0.41336
 10 Ir    0.00308   -0.00176    0.12595
 11 Ir    0.01046    0.03840   -0.05297
 12 Ir    0.03080    0.00602    0.31028
 13 Ir   -0.04017   -0.02351   -0.50312
 14 Ir   -0.07019   -0.02274    0.12469
 15 Ir   -0.02814   -0.02819   -0.05303
 16 Ir    0.00864   -0.00912    0.28976
 17 Ir    0.09492   -0.05479   -0.47022
 18 Ir    0.01423   -0.00828    0.28096
 19 Ir    0.00394    0.30056    0.13747
 20 Ir   -0.00791    0.00457    0.26505
 21 Ir   -0.00421    0.12636   -0.48256
 22 Ir   -0.05026   -0.05567    0.12304
 23 Ir    0.27877   -0.16096    0.16458
 24 Ir   -0.00189   -0.04568    0.36336
 25 Ir   -0.00105    0.00058   -0.50503
 26 Ir    0.00396   -0.00231   -0.05288
 27 Ir    0.00837   -0.16698   -0.02031
 28 Ir   -0.03732    0.02156    0.34539
 29 Ir    0.00025    0.04654   -0.50316
 30 Ir   -0.01537    0.07200    0.12452
 31 Ir   -0.15197    0.08763   -0.02354
 32 Ir    0.01223   -0.00292    0.28976
 33 Ir    0.03522    0.00485   -0.40879
 34 Ir    0.06666   -0.06468    0.11797
 35 Ir   -0.25802   -0.15355    0.13721
 36 C    -0.00539    0.00327    0.10745

BFGS:    5 03:49:55   -11737.855141        0.3615
System changes: positions 

Initializing position-dependent things.

Density initialized from wave functions
                                            
                                            
                                            
                                            
                                            
                    C                       
          Ir     Ir     Ir                  
           IIr    IIr    IIr                
              Ir     Ir     Ir              
             Ir     Ir     Ir               
               Ir     Ir     Ir             
              Ir     Ir     Ir              
                Ir     Ir     Ir            
                  Ir     Ir     Ir          
          Ir     Ir     Ir                  
            Ir     Ir     Ir                
              Ir     Ir     Ir              
                                            
                                            
                                            
                                            

Positions:
   0 Ir     0.000000    0.000000    9.999999    ( 0.0000,  0.0000,  0.0000)
   1 Ir     1.378048    0.795616   12.250341    ( 0.0000,  0.0000,  0.0000)
   2 Ir     0.001665    1.601178   14.452182    ( 0.0000,  0.0000,  0.0000)
   3 Ir    -0.014489    0.008325   16.681955    ( 0.0000,  0.0000,  0.0000)
   4 Ir    -1.378048    2.386848    9.999999    ( 0.0000,  0.0000,  0.0000)
   5 Ir     0.000000    3.182464   12.250341    ( 0.0000,  0.0000,  0.0000)
   6 Ir    -1.366014    3.971787   14.452566    ( 0.0000,  0.0000,  0.0000)
   7 Ir    -1.430225    2.354805   16.658129    ( 0.0000,  0.0000,  0.0000)
   8 Ir    -2.756095    4.773697    9.999999    ( 0.0000,  0.0000,  0.0000)
   9 Ir    -1.378048    5.569313   12.250341    ( 0.0000,  0.0000,  0.0000)
  10 Ir    -2.752149    6.362646   14.452076    ( 0.0000,  0.0000,  0.0000)
  11 Ir    -2.756291    4.757532   16.685282    ( 0.0000,  0.0000,  0.0000)
  12 Ir     2.756095    0.000000    9.999999    ( 0.0000,  0.0000,  0.0000)
  13 Ir     4.134143    0.795616   12.250341    ( 0.0000,  0.0000,  0.0000)
  14 Ir     2.757334    1.600872   14.452572    ( 0.0000,  0.0000,  0.0000)
  15 Ir     2.770007    0.008222   16.685280    ( 0.0000,  0.0000,  0.0000)
  16 Ir     1.378048    2.386848    9.999999    ( 0.0000,  0.0000,  0.0000)
  17 Ir     2.756095    3.182464   12.250341    ( 0.0000,  0.0000,  0.0000)
  18 Ir     1.379169    3.977423   14.408497    ( 0.0000,  0.0000,  0.0000)
  19 Ir     1.379049    2.294784   16.720126    ( 0.0000,  0.0000,  0.0000)
  20 Ir     0.000000    4.773697    9.999999    ( 0.0000,  0.0000,  0.0000)
  21 Ir     1.378048    5.569313   12.250341    ( 0.0000,  0.0000,  0.0000)
  22 Ir     0.011467    6.357644   14.452568    ( 0.0000,  0.0000,  0.0000)
  23 Ir    -0.079709    4.819681   16.719124    ( 0.0000,  0.0000,  0.0000)
  24 Ir     5.512190    0.000000    9.999999    ( 0.0000,  0.0000,  0.0000)
  25 Ir     6.890238    0.795616   12.250341    ( 0.0000,  0.0000,  0.0000)
  26 Ir     5.513731    1.590338   14.430385    ( 0.0000,  0.0000,  0.0000)
  27 Ir     5.513843    0.061198   16.658128    ( 0.0000,  0.0000,  0.0000)
  28 Ir     4.134143    2.386848    9.999999    ( 0.0000,  0.0000,  0.0000)
  29 Ir     5.512190    3.182464   12.250341    ( 0.0000,  0.0000,  0.0000)
  30 Ir     4.126408    3.972188   14.452574    ( 0.0000,  0.0000,  0.0000)
  31 Ir     4.185109    2.357414   16.659853    ( 0.0000,  0.0000,  0.0000)
  32 Ir     2.756095    4.773697    9.999999    ( 0.0000,  0.0000,  0.0000)
  33 Ir     4.134143    5.569313   12.250341    ( 0.0000,  0.0000,  0.0000)
  34 Ir     2.748312    6.358500   14.452186    ( 0.0000,  0.0000,  0.0000)
  35 Ir     2.836291    4.818806   16.720107    ( 0.0000,  0.0000,  0.0000)
  36 C      1.376240    3.979186   17.694744    ( 0.0000,  0.0000,  0.0000)

Unit cell:
           periodic     x           y           z      points  spacing
  1. axis:    yes    8.268285    0.000000    0.000000    40     0.1790
  2. axis:    yes   -4.134143    7.160545    0.000000    40     0.1790
  3. axis:    no     0.000000    0.000000   26.751025   148     0.1808

  Lengths:   8.268285   8.268285  26.751025
  Angles:   90.000000  90.000000 120.000000

Effective grid spacing dv^(1/3) = 0.1884

     iter     time        total  log10-change:
                         energy  eigst   dens
iter:   1 03:51:38 -11737.920725  -2.41
iter:   2 03:52:21 -11737.914406  -3.19  -2.72
iter:   3 03:53:04 -11738.014153c -3.47  -2.79
iter:   4 03:53:47 -11737.871635c -3.98  -2.45
iter:   5 03:54:30 -11737.868918c -4.36  -3.23
iter:   6 03:55:13 -11737.868105c -4.61  -3.56
iter:   7 03:55:56 -11737.868117c -5.22  -3.68
iter:   8 03:56:39 -11737.867912c -5.76  -3.72
iter:   9 03:57:22 -11737.868428c -5.56  -3.82
iter:  10 03:58:05 -11737.868357c -5.69  -3.70
iter:  11 03:58:48 -11737.867835c -6.23  -3.84
iter:  12 03:59:31 -11737.867919c -6.93  -4.21c
iter:  13 04:00:14 -11737.867923c -6.95  -4.29c
iter:  14 04:00:57 -11737.867969c -6.55  -4.43c
iter:  15 04:01:40 -11737.867924c -6.83  -4.59c
iter:  16 04:02:23 -11737.867917c -7.48c -4.56c

Converged after 16 iterations.

Dipole moment: (2.197565, -11.268105, -0.035715) |e|*Ang

Energy contributions relative to reference atoms: (reference = -17442482.204197)

Kinetic:       +1112.479212
Potential:     -1063.993109
External:        +0.000000
XC:            -11779.325576
Entropy (-ST):   -1.486079
Local:           -6.285405
--------------------------
Free energy:   -11738.610957
Extrapolated:  -11737.867917

Showing only first 2 kpts
 Kpt  Band  Eigenvalues  Occupancy
  0   270     -5.77828    1.30756
  0   271     -5.69893    0.92126
  0   272     -5.66239    0.74425
  0   273     -5.61369    0.53391

  1   270     -5.88245    1.68513
  1   271     -5.81689    1.47067
  1   272     -5.75681    1.20748
  1   273     -5.73074    1.07998


Fermi level: -5.71471

No gap

Forces in eV/Ang:
  0 Ir   -0.01248    0.00721    0.29453
  1 Ir    0.01515   -0.03226   -0.40607
  2 Ir    0.07628   -0.03804    0.12059
  3 Ir    0.06018   -0.03455   -0.03460
  4 Ir    0.04056    0.02525    0.37618
  5 Ir   -0.09756   -0.05380   -0.47030
  6 Ir    0.00232    0.06918    0.12695
  7 Ir    0.17719    0.09761    0.00596
  8 Ir    0.01027   -0.02857    0.30806
  9 Ir   -0.04837    0.02793   -0.41121
 10 Ir   -0.00016    0.00010    0.12253
 11 Ir    0.01107    0.07108   -0.04559
 12 Ir    0.02988    0.00540    0.30805
 13 Ir   -0.05587   -0.03397   -0.49459
 14 Ir   -0.05680   -0.03510    0.12264
 15 Ir   -0.05619   -0.04501   -0.04564
 16 Ir    0.00874   -0.01023    0.29181
 17 Ir    0.08398   -0.04848   -0.45777
 18 Ir    0.01188   -0.00691    0.27378
 19 Ir    0.00542    0.11766    0.00621
 20 Ir   -0.00909    0.00525    0.26821
 21 Ir   -0.00219    0.11135   -0.47029
 22 Ir   -0.05882   -0.03666    0.12698
 23 Ir    0.11474   -0.06619    0.02104
 24 Ir   -0.00158   -0.04773    0.37617
 25 Ir    0.01613   -0.00933   -0.49812
 26 Ir    0.00441   -0.00258    0.03408
 27 Ir    0.00399   -0.20232    0.00593
 28 Ir   -0.03914    0.02261    0.35850
 29 Ir    0.00147    0.06534   -0.49467
 30 Ir    0.00203    0.06657    0.12249
 31 Ir   -0.17377    0.10023   -0.00464
 32 Ir    0.01324   -0.00245    0.29181
 33 Ir    0.03551    0.00301   -0.40608
 34 Ir    0.07102   -0.04700    0.12046
 35 Ir   -0.09899   -0.06336    0.00605
 36 C     0.00920   -0.00519    0.20303

BFGS:    6 04:02:47   -11737.867917        0.2741
System changes: positions 

Initializing position-dependent things.

Density initialized from wave functions
                                            
                                            
                                            
                                            
                                            
                    C                       
          Ir     Ir     Ir                  
           IIr    IIr    IIr                
              Ir     Ir     Ir              
             Ir     Ir     Ir               
               Ir     Ir     Ir             
              Ir     Ir     Ir              
                Ir     Ir     Ir            
                  Ir     Ir     Ir          
          Ir     Ir     Ir                  
            Ir     Ir     Ir                
              Ir     Ir     Ir              
                                            
                                            
                                            
                                            

Positions:
   0 Ir     0.000000    0.000000    9.999999    ( 0.0000,  0.0000,  0.0000)
   1 Ir     1.378048    0.795616   12.250341    ( 0.0000,  0.0000,  0.0000)
   2 Ir     0.004967    1.600901   14.455936    ( 0.0000,  0.0000,  0.0000)
   3 Ir    -0.014480    0.008322   16.681519    ( 0.0000,  0.0000,  0.0000)
   4 Ir    -1.378048    2.386848    9.999999    ( 0.0000,  0.0000,  0.0000)
   5 Ir     0.000000    3.182464   12.250341    ( 0.0000,  0.0000,  0.0000)
   6 Ir    -1.364247    3.973848   14.456498    ( 0.0000,  0.0000,  0.0000)
   7 Ir    -1.428205    2.355492   16.656311    ( 0.0000,  0.0000,  0.0000)
   8 Ir    -2.756095    4.773697    9.999999    ( 0.0000,  0.0000,  0.0000)
   9 Ir    -1.378048    5.569313   12.250341    ( 0.0000,  0.0000,  0.0000)
  10 Ir    -2.751810    6.362451   14.455802    ( 0.0000,  0.0000,  0.0000)
  11 Ir    -2.755890    4.757708   16.684391    ( 0.0000,  0.0000,  0.0000)
  12 Ir     2.756095    0.000000    9.999999    ( 0.0000,  0.0000,  0.0000)
  13 Ir     4.134143    0.795616   12.250341    ( 0.0000,  0.0000,  0.0000)
  14 Ir     2.754968    1.600725   14.456516    ( 0.0000,  0.0000,  0.0000)
  15 Ir     2.770052    0.007787   16.684387    ( 0.0000,  0.0000,  0.0000)
  16 Ir     1.378048    2.386848    9.999999    ( 0.0000,  0.0000,  0.0000)
  17 Ir     2.756095    3.182464   12.250341    ( 0.0000,  0.0000,  0.0000)
  18 Ir     1.379692    3.977117   14.416040    ( 0.0000,  0.0000,  0.0000)
  19 Ir     1.379318    2.303460   16.730558    ( 0.0000,  0.0000,  0.0000)
  20 Ir     0.000000    4.773697    9.999999    ( 0.0000,  0.0000,  0.0000)
  21 Ir     1.378048    5.569313   12.250341    ( 0.0000,  0.0000,  0.0000)
  22 Ir     0.010563    6.355080   14.456501    ( 0.0000,  0.0000,  0.0000)
  23 Ir    -0.071683    4.815044   16.730030    ( 0.0000,  0.0000,  0.0000)
  24 Ir     5.512190    0.000000    9.999999    ( 0.0000,  0.0000,  0.0000)
  25 Ir     6.890238    0.795616   12.250341    ( 0.0000,  0.0000,  0.0000)
  26 Ir     5.514114    1.590116   14.426519    ( 0.0000,  0.0000,  0.0000)
  27 Ir     5.514254    0.059101   16.656310    ( 0.0000,  0.0000,  0.0000)
  28 Ir     4.134143    2.386848    9.999999    ( 0.0000,  0.0000,  0.0000)
  29 Ir     5.512190    3.182464   12.250341    ( 0.0000,  0.0000,  0.0000)
  30 Ir     4.125354    3.974304   14.456512    ( 0.0000,  0.0000,  0.0000)
  31 Ir     4.183024    2.358612   16.658038    ( 0.0000,  0.0000,  0.0000)
  32 Ir     2.756095    4.773697    9.999999    ( 0.0000,  0.0000,  0.0000)
  33 Ir     4.134143    5.569313   12.250341    ( 0.0000,  0.0000,  0.0000)
  34 Ir     2.750201    6.355778   14.455935    ( 0.0000,  0.0000,  0.0000)
  35 Ir     2.828928    4.814240   16.730523    ( 0.0000,  0.0000,  0.0000)
  36 C      1.376291    3.979176   17.711821    ( 0.0000,  0.0000,  0.0000)

Unit cell:
           periodic     x           y           z      points  spacing
  1. axis:    yes    8.268285    0.000000    0.000000    40     0.1790
  2. axis:    yes   -4.134143    7.160545    0.000000    40     0.1790
  3. axis:    no     0.000000    0.000000   26.751025   148     0.1808

  Lengths:   8.268285   8.268285  26.751025
  Angles:   90.000000  90.000000 120.000000

Effective grid spacing dv^(1/3) = 0.1884

     iter     time        total  log10-change:
                         energy  eigst   dens
iter:   1 04:04:30 -11738.100807  -2.43
iter:   2 04:05:13 -11741.285955  -2.22  -2.39
iter:   3 04:05:56 -11737.912183  -2.67  -1.78
iter:   4 04:06:40 -11737.880188  -3.48  -2.84
iter:   5 04:07:23 -11737.877786c -4.17  -3.29
iter:   6 04:08:06 -11737.877558c -4.60  -3.43
iter:   7 04:08:50 -11737.877044c -5.13  -3.66
iter:   8 04:09:33 -11737.877228c -5.54  -3.73
iter:   9 04:10:16 -11737.878528c -5.46  -3.72
iter:  10 04:11:00 -11737.876841c -5.51  -3.41
iter:  11 04:11:43 -11737.876952c -5.96  -4.02c
iter:  12 04:12:26 -11737.876880c -6.59  -4.18c
iter:  13 04:13:09 -11737.876949c -6.74  -4.22c
iter:  14 04:13:53 -11737.876910c -6.60  -4.34c
iter:  15 04:14:36 -11737.876964c -6.83  -4.50c
iter:  16 04:15:19 -11737.876989c -7.32  -4.49c
iter:  17 04:16:03 -11737.876951c -7.64c -4.52c

Converged after 17 iterations.

Dipole moment: (2.157686, -11.260506, -0.035415) |e|*Ang

Energy contributions relative to reference atoms: (reference = -17442482.204197)

Kinetic:       +1110.245327
Potential:     -1062.023692
External:        +0.000000
XC:            -11779.068030
Entropy (-ST):   -1.489543
Local:           -6.285785
--------------------------
Free energy:   -11738.621723
Extrapolated:  -11737.876951

Showing only first 2 kpts
 Kpt  Band  Eigenvalues  Occupancy
  0   270     -5.77890    1.30563
  0   271     -5.70000    0.92141
  0   272     -5.66324    0.74327
  0   273     -5.61529    0.53607

  1   270     -5.88291    1.68355
  1   271     -5.81703    1.46713
  1   272     -5.75742    1.20534
  1   273     -5.73008    1.07150


Fermi level: -5.71576

No gap

Forces in eV/Ang:
  0 Ir   -0.01265    0.00731    0.29138
  1 Ir    0.01715   -0.03300   -0.39027
  2 Ir    0.04702   -0.03221    0.08915
  3 Ir    0.08269   -0.04752   -0.01297
  4 Ir    0.04341    0.02645    0.38772
  5 Ir   -0.07955   -0.04560   -0.42970
  6 Ir   -0.00690    0.04532    0.09552
  7 Ir    0.12576    0.07359    0.02205
  8 Ir    0.01017   -0.02886    0.30484
  9 Ir   -0.04665    0.02693   -0.39487
 10 Ir   -0.00187    0.00107    0.07664
 11 Ir    0.00914    0.08989   -0.02049
 12 Ir    0.03008    0.00563    0.30483
 13 Ir   -0.07291   -0.04499   -0.47130
 14 Ir   -0.02868   -0.02992    0.08302
 15 Ir   -0.07347   -0.05274   -0.02050
 16 Ir    0.00883   -0.01115    0.29294
 17 Ir    0.06929   -0.04002   -0.41825
 18 Ir    0.00495   -0.00287    0.17148
 19 Ir    0.00964   -0.07405   -0.07763
 20 Ir   -0.00993    0.00573    0.27066
 21 Ir   -0.00030    0.09163   -0.42969
 22 Ir   -0.04275   -0.01674    0.09553
 23 Ir   -0.05452    0.03160   -0.07227
 24 Ir   -0.00119   -0.05080    0.38773
 25 Ir    0.03511   -0.02028   -0.47703
 26 Ir    0.00442   -0.00258    0.11052
 27 Ir   -0.00089   -0.14576    0.02200
 28 Ir   -0.04176    0.02412    0.36991
 29 Ir    0.00250    0.08557   -0.47141
 30 Ir    0.01160    0.03967    0.08293
 31 Ir   -0.11689    0.06743    0.01067
 32 Ir    0.01408   -0.00207    0.29294
 33 Ir    0.03716    0.00165   -0.39029
 34 Ir    0.05135   -0.02457    0.08905
 35 Ir    0.06902    0.02883   -0.07765
 36 C     0.00867   -0.00503    0.29481

BFGS:    7 04:16:27   -11737.876951        0.2950
System changes: positions 

Initializing position-dependent things.

Density initialized from wave functions
                                            
                                            
                                            
                                            
                                            
                    C                       
          Ir     Ir     Ir                  
           IIr    IIr    IIr                
              Ir     Ir     Ir              
             Ir     Ir     Ir               
               Ir     Ir     Ir             
              Ir     Ir     Ir              
                Ir     Ir     Ir            
                  Ir     Ir     Ir          
          Ir     Ir     Ir                  
            Ir     Ir     Ir                
              Ir     Ir     Ir              
                                            
                                            
                                            
                                            

Positions:
   0 Ir     0.000000    0.000000    9.999999    ( 0.0000,  0.0000,  0.0000)
   1 Ir     1.378048    0.795616   12.250341    ( 0.0000,  0.0000,  0.0000)
   2 Ir     0.007833    1.600111   14.459903    ( 0.0000,  0.0000,  0.0000)
   3 Ir    -0.012805    0.007360   16.680969    ( 0.0000,  0.0000,  0.0000)
   4 Ir    -1.378048    2.386848    9.999999    ( 0.0000,  0.0000,  0.0000)
   5 Ir     0.000000    3.182464   12.250341    ( 0.0000,  0.0000,  0.0000)
   6 Ir    -1.363345    3.975950   14.460695    ( 0.0000,  0.0000,  0.0000)
   7 Ir    -1.424459    2.357396   16.655697    ( 0.0000,  0.0000,  0.0000)
   8 Ir    -2.756095    4.773697    9.999999    ( 0.0000,  0.0000,  0.0000)
   9 Ir    -1.378048    5.569313   12.250341    ( 0.0000,  0.0000,  0.0000)
  10 Ir    -2.751653    6.362360   14.459480    ( 0.0000,  0.0000,  0.0000)
  11 Ir    -2.755475    4.759619   16.683440    ( 0.0000,  0.0000,  0.0000)
  12 Ir     2.756095    0.000000    9.999999    ( 0.0000,  0.0000,  0.0000)
  13 Ir     4.134143    0.795616   12.250341    ( 0.0000,  0.0000,  0.0000)
  14 Ir     2.753016    1.600053   14.460467    ( 0.0000,  0.0000,  0.0000)
  15 Ir     2.768598    0.006475   16.683434    ( 0.0000,  0.0000,  0.0000)
  16 Ir     1.378048    2.386848    9.999999    ( 0.0000,  0.0000,  0.0000)
  17 Ir     2.756095    3.182464   12.250341    ( 0.0000,  0.0000,  0.0000)
  18 Ir     1.380090    3.976886   14.424011    ( 0.0000,  0.0000,  0.0000)
  19 Ir     1.379674    2.307890   16.735311    ( 0.0000,  0.0000,  0.0000)
  20 Ir     0.000000    4.773697    9.999999    ( 0.0000,  0.0000,  0.0000)
  21 Ir     1.378048    5.569313   12.250341    ( 0.0000,  0.0000,  0.0000)
  22 Ir     0.009191    6.353244   14.460699    ( 0.0000,  0.0000,  0.0000)
  23 Ir    -0.067341    4.812537   16.735164    ( 0.0000,  0.0000,  0.0000)
  24 Ir     5.512190    0.000000    9.999999    ( 0.0000,  0.0000,  0.0000)
  25 Ir     6.890238    0.795616   12.250341    ( 0.0000,  0.0000,  0.0000)
  26 Ir     5.514418    1.589939   14.426465    ( 0.0000,  0.0000,  0.0000)
  27 Ir     5.514475    0.054902   16.655695    ( 0.0000,  0.0000,  0.0000)
  28 Ir     4.134143    2.386848    9.999999    ( 0.0000,  0.0000,  0.0000)
  29 Ir     5.512190    3.182464   12.250341    ( 0.0000,  0.0000,  0.0000)
  30 Ir     4.124960    3.976325   14.460458    ( 0.0000,  0.0000,  0.0000)
  31 Ir     4.179419    2.360690   16.657210    ( 0.0000,  0.0000,  0.0000)
  32 Ir     2.756095    4.773697    9.999999    ( 0.0000,  0.0000,  0.0000)
  33 Ir     4.134143    5.569313   12.250341    ( 0.0000,  0.0000,  0.0000)
  34 Ir     2.752315    6.353692   14.459898    ( 0.0000,  0.0000,  0.0000)
  35 Ir     2.825279    4.811722   16.735267    ( 0.0000,  0.0000,  0.0000)
  36 C      1.376452    3.979093   17.726547    ( 0.0000,  0.0000,  0.0000)

Unit cell:
           periodic     x           y           z      points  spacing
  1. axis:    yes    8.268285    0.000000    0.000000    40     0.1790
  2. axis:    yes   -4.134143    7.160545    0.000000    40     0.1790
  3. axis:    no     0.000000    0.000000   26.751025   148     0.1808

  Lengths:   8.268285   8.268285  26.751025
  Angles:   90.000000  90.000000 120.000000

Effective grid spacing dv^(1/3) = 0.1884

     iter     time        total  log10-change:
                         energy  eigst   dens
iter:   1 04:18:11 -11738.065626  -2.66
iter:   2 04:18:54 -11740.841130  -2.29  -2.41
iter:   3 04:19:37 -11737.903163  -2.76  -1.81
iter:   4 04:20:21 -11737.882905  -3.59  -2.95
iter:   5 04:21:04 -11737.882593c -4.42  -3.41
iter:   6 04:21:47 -11737.882233c -4.77  -3.47
iter:   7 04:22:31 -11737.881626c -4.93  -3.68
iter:   8 04:23:14 -11737.881836c -5.36  -3.91
iter:   9 04:23:58 -11737.881963c -5.97  -3.85
iter:  10 04:24:41 -11737.881573c -6.35  -3.78
iter:  11 04:25:24 -11737.881654c -6.64  -4.09c
iter:  12 04:26:08 -11737.881591c -6.80  -4.19c
iter:  13 04:26:51 -11737.881662c -6.79  -4.23c
iter:  14 04:27:35 -11737.881651c -7.03  -4.41c
iter:  15 04:28:18 -11737.881664c -7.13  -4.60c
iter:  16 04:29:01 -11737.881654c -7.69c -4.80c

Converged after 16 iterations.

Dipole moment: (1.763624, -11.053174, -0.036902) |e|*Ang

Energy contributions relative to reference atoms: (reference = -17442482.204197)

Kinetic:       +1108.522185
Potential:     -1060.545266
External:        +0.000000
XC:            -11778.829057
Entropy (-ST):   -1.493648
Local:           -6.282692
--------------------------
Free energy:   -11738.628478
Extrapolated:  -11737.881654

Showing only first 2 kpts
 Kpt  Band  Eigenvalues  Occupancy
  0   270     -5.78053    1.30142
  0   271     -5.70255    0.92133
  0   272     -5.66555    0.74211
  0   273     -5.61884    0.53994

  1   270     -5.88366    1.67871
  1   271     -5.81890    1.46442
  1   272     -5.75869    1.19917
  1   273     -5.73072    1.06193


Fermi level: -5.71832

No gap

Forces in eV/Ang:
  0 Ir   -0.01272    0.00735    0.29280
  1 Ir    0.01834   -0.03238   -0.37298
  2 Ir    0.00863   -0.01643    0.03643
  3 Ir    0.06899   -0.03966    0.02522
  4 Ir    0.04552    0.02749    0.39837
  5 Ir   -0.06672   -0.03937   -0.38559
  6 Ir   -0.01080    0.00962    0.03941
  7 Ir    0.04788    0.02899    0.03997
  8 Ir    0.00989   -0.02925    0.30644
  9 Ir   -0.04399    0.02539   -0.37588
 10 Ir   -0.00177    0.00099    0.00250
 11 Ir    0.00516    0.06991    0.02328
 12 Ir    0.03028    0.00607    0.30644
 13 Ir   -0.07831   -0.04998   -0.44292
 14 Ir    0.00520   -0.01520    0.02399
 15 Ir   -0.05814   -0.03935    0.02330
 16 Ir    0.00899   -0.01180    0.29939
 17 Ir    0.05799   -0.03351   -0.37637
 18 Ir   -0.00057    0.00034    0.05216
 19 Ir    0.01045   -0.12370   -0.05980
 20 Ir   -0.01037    0.00599    0.27805
 21 Ir    0.00070    0.07740   -0.38558
 22 Ir   -0.01376    0.00451    0.03941
 23 Ir   -0.10258    0.05935   -0.05995
 24 Ir   -0.00103   -0.05314    0.39839
 25 Ir    0.04286   -0.02474   -0.44934
 26 Ir    0.00432   -0.00252    0.13956
 27 Ir   -0.00117   -0.05601    0.03993
 28 Ir   -0.04386    0.02534    0.38025
 29 Ir    0.00413    0.09273   -0.44306
 30 Ir    0.01579    0.00302    0.02396
 31 Ir   -0.03516    0.02029    0.03153
 32 Ir    0.01472   -0.00188    0.29939
 33 Ir    0.03721    0.00029   -0.37301
 34 Ir    0.01852    0.00077    0.03640
 35 Ir    0.11234    0.05292   -0.05975
 36 C     0.02438   -0.01404    0.26220

BFGS:    8 04:29:26   -11737.881654        0.2637
System changes: positions 

Initializing position-dependent things.

Density initialized from wave functions
                                            
                                            
                                            
                                            
                                            
                    C                       
          Ir     Ir     Ir                  
           IIr    IIr    IIr                
              Ir     Ir     Ir              
             Ir     Ir     Ir               
               Ir     Ir     Ir             
              Ir     Ir     Ir              
                Ir     Ir     Ir            
                  Ir     Ir     Ir          
          Ir     Ir     Ir                  
            Ir     Ir     Ir                
              Ir     Ir     Ir              
                                            
                                            
                                            
                                            

Positions:
   0 Ir     0.000000    0.000000    9.999999    ( 0.0000,  0.0000,  0.0000)
   1 Ir     1.378048    0.795616   12.250341    ( 0.0000,  0.0000,  0.0000)
   2 Ir     0.009805    1.599455   14.462938    ( 0.0000,  0.0000,  0.0000)
   3 Ir    -0.010750    0.006179   16.681299    ( 0.0000,  0.0000,  0.0000)
   4 Ir    -1.378048    2.386848    9.999999    ( 0.0000,  0.0000,  0.0000)
   5 Ir     0.000000    3.182464   12.250341    ( 0.0000,  0.0000,  0.0000)
   6 Ir    -1.362790    3.977347   14.463913    ( 0.0000,  0.0000,  0.0000)
   7 Ir    -1.421809    2.358741   16.655892    ( 0.0000,  0.0000,  0.0000)
   8 Ir    -2.756095    4.773697    9.999999    ( 0.0000,  0.0000,  0.0000)
   9 Ir    -1.378048    5.569313   12.250341    ( 0.0000,  0.0000,  0.0000)
  10 Ir    -2.751545    6.362297   14.461615    ( 0.0000,  0.0000,  0.0000)
  11 Ir    -2.755121    4.761803   16.683481    ( 0.0000,  0.0000,  0.0000)
  12 Ir     2.756095    0.000000    9.999999    ( 0.0000,  0.0000,  0.0000)
  13 Ir     4.134143    0.795616   12.250341    ( 0.0000,  0.0000,  0.0000)
  14 Ir     2.751902    1.599498   14.463258    ( 0.0000,  0.0000,  0.0000)
  15 Ir     2.766877    0.005078   16.683475    ( 0.0000,  0.0000,  0.0000)
  16 Ir     1.378048    2.386848    9.999999    ( 0.0000,  0.0000,  0.0000)
  17 Ir     2.756095    3.182464   12.250341    ( 0.0000,  0.0000,  0.0000)
  18 Ir     1.380338    3.976741   14.429598    ( 0.0000,  0.0000,  0.0000)
  19 Ir     1.380101    2.309029   16.738555    ( 0.0000,  0.0000,  0.0000)
  20 Ir     0.000000    4.773697    9.999999    ( 0.0000,  0.0000,  0.0000)
  21 Ir     1.378048    5.569313   12.250341    ( 0.0000,  0.0000,  0.0000)
  22 Ir     0.008256    6.352062   14.463918    ( 0.0000,  0.0000,  0.0000)
  23 Ir    -0.065952    4.811737   16.738669    ( 0.0000,  0.0000,  0.0000)
  24 Ir     5.512190    0.000000    9.999999    ( 0.0000,  0.0000,  0.0000)
  25 Ir     6.890238    0.795616   12.250341    ( 0.0000,  0.0000,  0.0000)
  26 Ir     5.514719    1.589764   14.428506    ( 0.0000,  0.0000,  0.0000)
  27 Ir     5.514633    0.051931   16.655889    ( 0.0000,  0.0000,  0.0000)
  28 Ir     4.134143    2.386848    9.999999    ( 0.0000,  0.0000,  0.0000)
  29 Ir     5.512190    3.182464   12.250341    ( 0.0000,  0.0000,  0.0000)
  30 Ir     4.124885    3.977562   14.463245    ( 0.0000,  0.0000,  0.0000)
  31 Ir     4.177086    2.362034   16.657160    ( 0.0000,  0.0000,  0.0000)
  32 Ir     2.756095    4.773697    9.999999    ( 0.0000,  0.0000,  0.0000)
  33 Ir     4.134143    5.569313   12.250341    ( 0.0000,  0.0000,  0.0000)
  34 Ir     2.753867    6.352313   14.462928    ( 0.0000,  0.0000,  0.0000)
[...]
  12 Ir     2.756095    0.000000    9.999999    ( 0.0000,  0.0000,  0.0000)
  13 Ir     4.134143    0.795616   12.250341    ( 0.0000,  0.0000,  0.0000)
  14 Ir     2.753232    1.599161   14.464361    ( 0.0000,  0.0000,  0.0000)
  15 Ir     2.763194    0.002553   16.687700    ( 0.0000,  0.0000,  0.0000)
  16 Ir     1.378048    2.386848    9.999999    ( 0.0000,  0.0000,  0.0000)
  17 Ir     2.756095    3.182464   12.250341    ( 0.0000,  0.0000,  0.0000)
  18 Ir     1.380349    3.976736   14.431665    ( 0.0000,  0.0000,  0.0000)
  19 Ir     1.381085    2.307919   16.742857    ( 0.0000,  0.0000,  0.0000)
  20 Ir     0.000000    4.773697    9.999999    ( 0.0000,  0.0000,  0.0000)
  21 Ir     1.378048    5.569313   12.250341    ( 0.0000,  0.0000,  0.0000)
  22 Ir     0.008477    6.352529   14.466333    ( 0.0000,  0.0000,  0.0000)
  23 Ir    -0.065755    4.811632   16.743268    ( 0.0000,  0.0000,  0.0000)
  24 Ir     5.512190    0.000000    9.999999    ( 0.0000,  0.0000,  0.0000)
  25 Ir     6.890238    0.795616   12.250341    ( 0.0000,  0.0000,  0.0000)
  26 Ir     5.515104    1.589539   14.439141    ( 0.0000,  0.0000,  0.0000)
  27 Ir     5.514947    0.049523   16.661068    ( 0.0000,  0.0000,  0.0000)
  28 Ir     4.134143    2.386848    9.999999    ( 0.0000,  0.0000,  0.0000)
  29 Ir     5.512190    3.182464   12.250341    ( 0.0000,  0.0000,  0.0000)
  30 Ir     4.125843    3.976573   14.464349    ( 0.0000,  0.0000,  0.0000)
  31 Ir     4.176473    2.362387   16.661678    ( 0.0000,  0.0000,  0.0000)
  32 Ir     2.756095    4.773697    9.999999    ( 0.0000,  0.0000,  0.0000)
  33 Ir     4.134143    5.569313   12.250341    ( 0.0000,  0.0000,  0.0000)
  34 Ir     2.754118    6.352603   14.465245    ( 0.0000,  0.0000,  0.0000)
  35 Ir     2.825973    4.810504   16.742807    ( 0.0000,  0.0000,  0.0000)
  36 C      1.378665    3.977843   17.758830    ( 0.0000,  0.0000,  0.0000)

Unit cell:
           periodic     x           y           z      points  spacing
  1. axis:    yes    8.268285    0.000000    0.000000    40     0.1790
  2. axis:    yes   -4.134143    7.160545    0.000000    40     0.1790
  3. axis:    no     0.000000    0.000000   26.751025   148     0.1808

  Lengths:   8.268285   8.268285  26.751025
  Angles:   90.000000  90.000000 120.000000

Effective grid spacing dv^(1/3) = 0.1884

     iter     time        total  log10-change:
                         energy  eigst   dens
iter:   1 05:03:26 -11737.900905  -3.45
iter:   2 05:04:10 -11738.126305  -3.40  -2.94
iter:   3 05:04:53 -11737.889278c -3.87  -2.35
iter:   4 05:05:36 -11737.886234c -4.85  -3.49
iter:   5 05:06:19 -11737.886072c -5.19  -3.69
iter:   6 05:07:03 -11737.886131c -5.41  -3.89
iter:   7 05:07:46 -11737.886034c -5.66  -4.09c
iter:   8 05:08:29 -11737.886080c -6.25  -4.20c
iter:   9 05:09:12 -11737.886096c -6.63  -4.22c
iter:  10 05:09:56 -11737.885994c -6.99  -4.13c
iter:  11 05:10:39 -11737.886021c -7.46c -4.42c

Converged after 11 iterations.

Dipole moment: (0.765047, -10.497772, -0.042024) |e|*Ang

Energy contributions relative to reference atoms: (reference = -17442482.204197)

Kinetic:       +1103.376115
Potential:     -1056.216158
External:        +0.000000
XC:            -11778.024661
Entropy (-ST):   -1.499996
Local:           -6.271318
--------------------------
Free energy:   -11738.636019
Extrapolated:  -11737.886021

Showing only first 2 kpts
 Kpt  Band  Eigenvalues  Occupancy
  0   270     -5.78633    1.29754
  0   271     -5.70909    0.92079
  0   272     -5.67223    0.74225
  0   273     -5.62768    0.54862

  1   270     -5.88836    1.67343
  1   271     -5.82433    1.45961
  1   272     -5.76398    1.19265
  1   273     -5.73444    1.04732


Fermi level: -5.72497

No gap

Forces in eV/Ang:
  0 Ir   -0.00961    0.00555    0.29461
  1 Ir    0.01796   -0.02337   -0.34487
  2 Ir   -0.00344    0.00162    0.01198
  3 Ir    0.01092   -0.00627    0.00435
  4 Ir    0.04664    0.02845    0.40230
  5 Ir   -0.06577   -0.03959   -0.33844
  6 Ir    0.00094   -0.00361    0.01169
  7 Ir    0.00821   -0.00132    0.02516
  8 Ir    0.00958   -0.02714    0.30891
  9 Ir   -0.03268    0.01885   -0.34400
 10 Ir    0.00104   -0.00061    0.00218
 11 Ir    0.00171    0.00292    0.00041
 12 Ir    0.02830    0.00527    0.30891
 13 Ir   -0.05442   -0.04349   -0.39063
 14 Ir    0.00407    0.00134    0.01128
 15 Ir   -0.00169   -0.00293    0.00040
 16 Ir    0.00985   -0.01425    0.30162
 17 Ir    0.05513   -0.03187   -0.33531
 18 Ir    0.00028   -0.00015   -0.00070
 19 Ir    0.00385    0.03383    0.01681
 20 Ir   -0.01230    0.00711    0.28120
 21 Ir    0.00136    0.07668   -0.33843
 22 Ir    0.00358    0.00101    0.01168
 23 Ir    0.04015   -0.02315    0.02180
 24 Ir   -0.00130   -0.05459    0.40232
 25 Ir    0.02685   -0.01549   -0.39412
 26 Ir   -0.00001    0.00000    0.01715
 27 Ir    0.00525   -0.00642    0.02516
 28 Ir   -0.04544    0.02625    0.38405
 29 Ir    0.01047    0.06875   -0.39078
 30 Ir    0.00087   -0.00418    0.01130
 31 Ir    0.00147   -0.00085    0.02253
 32 Ir    0.01727   -0.00139    0.30162
 33 Ir    0.02922   -0.00389   -0.34489
 34 Ir   -0.00311    0.00218    0.01199
 35 Ir   -0.02726   -0.02016    0.01681
 36 C     0.01177   -0.00673   -0.03393

BFGS:   12 05:11:03   -11737.886021        0.0512
System changes: positions 

Initializing position-dependent things.

Density initialized from wave functions
                                            
                                            
                                            
                                            
                                            
                    C                       
          Ir     Ir     Ir                  
           IIr    IIr    IIr                
              Ir     Ir                     
             Ir     Ir     IIr              
               Ir     Ir     Ir             
              Ir     Ir     Ir              
                Ir     Ir     Ir            
                  Ir     Ir     Ir          
          Ir     Ir     Ir                  
            Ir     Ir     Ir                
              Ir     Ir     Ir              
                                            
                                            
                                            
                                            

Positions:
   0 Ir     0.000000    0.000000    9.999999    ( 0.0000,  0.0000,  0.0000)
   1 Ir     1.378048    0.795616   12.250341    ( 0.0000,  0.0000,  0.0000)
   2 Ir     0.009513    1.599089   14.465804    ( 0.0000,  0.0000,  0.0000)
   3 Ir    -0.004748    0.002729   16.686519    ( 0.0000,  0.0000,  0.0000)
   4 Ir    -1.378048    2.386848    9.999999    ( 0.0000,  0.0000,  0.0000)
   5 Ir     0.000000    3.182464   12.250341    ( 0.0000,  0.0000,  0.0000)
   6 Ir    -1.363136    3.976707   14.466879    ( 0.0000,  0.0000,  0.0000)
   7 Ir    -1.419077    2.359770   16.662559    ( 0.0000,  0.0000,  0.0000)
   8 Ir    -2.756095    4.773697    9.999999    ( 0.0000,  0.0000,  0.0000)
   9 Ir    -1.378048    5.569313   12.250341    ( 0.0000,  0.0000,  0.0000)
  10 Ir    -2.751441    6.362231   14.458657    ( 0.0000,  0.0000,  0.0000)
  11 Ir    -2.754680    4.767026   16.688535    ( 0.0000,  0.0000,  0.0000)
  12 Ir     2.756095    0.000000    9.999999    ( 0.0000,  0.0000,  0.0000)
  13 Ir     4.134143    0.795616   12.250341    ( 0.0000,  0.0000,  0.0000)
  14 Ir     2.753606    1.599150   14.464680    ( 0.0000,  0.0000,  0.0000)
  15 Ir     2.762558    0.002090   16.688532    ( 0.0000,  0.0000,  0.0000)
  16 Ir     1.378048    2.386848    9.999999    ( 0.0000,  0.0000,  0.0000)
  17 Ir     2.756095    3.182464   12.250341    ( 0.0000,  0.0000,  0.0000)
  18 Ir     1.380352    3.976735   14.431863    ( 0.0000,  0.0000,  0.0000)
  19 Ir     1.381325    2.308614   16.744037    ( 0.0000,  0.0000,  0.0000)
  20 Ir     0.000000    4.773697    9.999999    ( 0.0000,  0.0000,  0.0000)
  21 Ir     1.378048    5.569313   12.250341    ( 0.0000,  0.0000,  0.0000)
  22 Ir     0.008633    6.352679   14.466884    ( 0.0000,  0.0000,  0.0000)
  23 Ir    -0.064737    4.811047   16.744583    ( 0.0000,  0.0000,  0.0000)
  24 Ir     5.512190    0.000000    9.999999    ( 0.0000,  0.0000,  0.0000)
  25 Ir     6.890238    0.795616   12.250341    ( 0.0000,  0.0000,  0.0000)
  26 Ir     5.515165    1.589503   14.441355    ( 0.0000,  0.0000,  0.0000)
  27 Ir     5.515107    0.049047   16.662552    ( 0.0000,  0.0000,  0.0000)
  28 Ir     4.134143    2.386848    9.999999    ( 0.0000,  0.0000,  0.0000)
  29 Ir     5.512190    3.182464   12.250341    ( 0.0000,  0.0000,  0.0000)
  30 Ir     4.126040    3.976254   14.464668    ( 0.0000,  0.0000,  0.0000)
  31 Ir     4.176468    2.362390   16.662996    ( 0.0000,  0.0000,  0.0000)
  32 Ir     2.756095    4.773697    9.999999    ( 0.0000,  0.0000,  0.0000)
  33 Ir     4.134143    5.569313   12.250341    ( 0.0000,  0.0000,  0.0000)
  34 Ir     2.754038    6.352750   14.465795    ( 0.0000,  0.0000,  0.0000)
  35 Ir     2.825495    4.809953   16.743988    ( 0.0000,  0.0000,  0.0000)
  36 C      1.379212    3.977532   17.760461    ( 0.0000,  0.0000,  0.0000)

Unit cell:
           periodic     x           y           z      points  spacing
  1. axis:    yes    8.268285    0.000000    0.000000    40     0.1790
  2. axis:    yes   -4.134143    7.160545    0.000000    40     0.1790
  3. axis:    no     0.000000    0.000000   26.751025   148     0.1808

  Lengths:   8.268285   8.268285  26.751025
  Angles:   90.000000  90.000000 120.000000

Effective grid spacing dv^(1/3) = 0.1884

     iter     time        total  log10-change:
                         energy  eigst   dens
iter:   1 05:12:46 -11737.907881  -3.81
iter:   2 05:13:29 -11738.336899  -3.18  -2.86
iter:   3 05:14:12 -11737.889295  -3.59  -2.21
iter:   4 05:14:55 -11737.886063  -4.48  -3.45
iter:   5 05:15:38 -11737.885902c -5.22  -3.95
iter:   6 05:16:21 -11737.886018c -5.88  -4.20c
iter:   7 05:17:04 -11737.885985c -6.38  -4.42c
iter:   8 05:17:47 -11737.886019c -6.67  -4.51c
iter:   9 05:18:31 -11737.885988c -6.91  -4.46c
iter:  10 05:19:14 -11737.885973c -7.20  -4.28c
iter:  11 05:19:57 -11737.885983c -7.95c -4.79c

Converged after 11 iterations.

Dipole moment: (0.633660, -10.423067, -0.041736) |e|*Ang

Energy contributions relative to reference atoms: (reference = -17442482.204197)

Kinetic:       +1102.604897
Potential:     -1055.534817
External:        +0.000000
XC:            -11777.934688
Entropy (-ST):   -1.500757
Local:           -6.270997
--------------------------
Free energy:   -11738.636362
Extrapolated:  -11737.885983

Showing only first 2 kpts
 Kpt  Band  Eigenvalues  Occupancy
  0   270     -5.78607    1.29754
  0   271     -5.70880    0.92065
  0   272     -5.67193    0.74206
  0   273     -5.62761    0.54938

  1   270     -5.88810    1.67342
  1   271     -5.82416    1.45996
  1   272     -5.76395    1.19374
  1   273     -5.73387    1.04579


Fermi level: -5.72471

No gap

Forces in eV/Ang:
  0 Ir   -0.00907    0.00524    0.29583
  1 Ir    0.01770   -0.02156   -0.33797
  2 Ir   -0.00174    0.00083    0.01113
  3 Ir    0.00580   -0.00332    0.00292
  4 Ir    0.04689    0.02847    0.40508
  5 Ir   -0.06646   -0.04007   -0.33180
  6 Ir    0.00188   -0.00174    0.01137
  7 Ir    0.00036   -0.00603    0.02093
  8 Ir    0.00966   -0.02684    0.31019
  9 Ir   -0.03101    0.01788   -0.33670
 10 Ir    0.00142   -0.00082    0.00711
 11 Ir    0.00275   -0.00346   -0.00243
 12 Ir    0.02808    0.00506    0.31019
 13 Ir   -0.05030   -0.04197   -0.38097
 14 Ir    0.00130    0.00049    0.01208
 15 Ir    0.00436   -0.00063   -0.00244
 16 Ir    0.01003   -0.01421    0.30340
 17 Ir    0.05531   -0.03197   -0.32930
 18 Ir    0.00057   -0.00032   -0.00495
 19 Ir    0.00390    0.01263    0.01085
 20 Ir   -0.01204    0.00696    0.28303
 21 Ir    0.00143    0.07753   -0.33180
 22 Ir    0.00244   -0.00073    0.01137
 23 Ir    0.02141   -0.01234    0.01562
 24 Ir   -0.00119   -0.05482    0.40510
 25 Ir    0.02354   -0.01357   -0.38384
 26 Ir   -0.00014    0.00009    0.00232
 27 Ir    0.00540    0.00274    0.02094
 28 Ir   -0.04552    0.02630    0.38670
 29 Ir    0.01121    0.06443   -0.38112
 30 Ir    0.00022   -0.00135    0.01210
 31 Ir    0.00870   -0.00502    0.02050
 32 Ir    0.01733   -0.00158    0.30340
 33 Ir    0.02752   -0.00458   -0.33799
 34 Ir   -0.00158    0.00110    0.01115
 35 Ir   -0.00887   -0.00960    0.01085
 36 C     0.00747   -0.00432   -0.02804

BFGS:   13 05:20:21   -11737.885983        0.0293
Timing:                                      incl.     excl.
-------------------------------------------------------------------
Density initialized from wave functions:     7.490     7.490   0.1% |
 Symmetrize density:                         0.000     0.000   0.0% |
Forces:                                    342.777   342.777   2.8% ||
Hamiltonian:                                51.006     0.002   0.0% |
 Atomic:                                     0.004     0.004   0.0% |
  XC Correction:                             0.000     0.000   0.0% |
 Calculate atomic Hamiltonians:              0.005     0.005   0.0% |
 Communicate:                                3.482     3.482   0.0% |
 Hartree integrate/restrict:                 0.134     0.134   0.0% |
 Initialize Hamiltonian:                     0.002     0.002   0.0% |
 Poisson:                                    2.480     0.102   0.0% |
  Communicate from 1D:                       0.193     0.193   0.0% |
  Communicate from 2D:                       0.408     0.408   0.0% |
  Communicate to 1D:                         0.117     0.117   0.0% |
  Communicate to 2D:                         0.443     0.443   0.0% |
  FFT 1D:                                    0.625     0.625   0.0% |
  FFT 2D:                                    0.591     0.591   0.0% |
 XC 3D grid:                                44.852    11.102   0.1% |
  VdW-DF integral:                          33.750     1.799   0.0% |
   Convolution:                              2.922     2.922   0.0% |
   FFT:                                      2.104     2.104   0.0% |
   gather:                                   9.580     9.580   0.1% |
   hmm1:                                     0.587     0.587   0.0% |
   hmm2:                                     1.260     1.260   0.0% |
   iFFT:                                     1.970     1.970   0.0% |
   potential:                                9.355     0.219   0.0% |
    collect:                                 0.637     0.637   0.0% |
    p1:                                      5.569     5.569   0.0% |
    p2:                                      1.879     1.879   0.0% |
    sum:                                     1.052     1.052   0.0% |
   splines:                                  4.172     4.172   0.0% |
 vbar:                                       0.045     0.045   0.0% |
LCAO initialization:                        39.489     1.072   0.0% |
 LCAO eigensolver:                          27.106     0.004   0.0% |
  Calculate projections:                     0.000     0.000   0.0% |
  DenseAtomicCorrection:                     0.000     0.000   0.0% |
  Distribute overlap matrix:                26.193    26.193   0.2% |
  Orbital Layouts:                           0.740     0.740   0.0% |
  Potential matrix:                          0.024     0.024   0.0% |
  Sum over cells:                            0.145     0.145   0.0% |
 LCAO to grid:                               9.486     9.486   0.1% |
 Set positions (LCAO WFS):                   1.825     1.308   0.0% |
  Basic WFS set positions:                   0.001     0.001   0.0% |
  Basis functions set positions:             0.000     0.000   0.0% |
  P tci:                                     0.000     0.000   0.0% |
  ST tci:                                    0.422     0.422   0.0% |
  mktci:                                     0.093     0.093   0.0% |
Redistribute:                                0.009     0.009   0.0% |
SCF-cycle:                               10955.124   113.389   0.9% |
 Davidson:                                9931.636  3428.686  28.4% |----------|
  Apply hamiltonian:                       191.803   191.803   1.6% ||
  Subspace diag:                           813.711     0.037   0.0% |
   calc_h_matrix:                          408.575   226.543   1.9% ||
    Apply hamiltonian:                     182.032   182.032   1.5% ||
   diagonalize:                             18.643    18.643   0.2% |
   rotate_psi:                             386.457   386.457   3.2% ||
  calc. matrices:                         4628.510  1506.938  12.5% |----|
   Apply hamiltonian:                     3121.572  3121.572  25.8% |---------|
  diagonalize:                             119.285   119.285   1.0% |
  rotate_psi:                              749.641   749.641   6.2% |-|
 Density:                                   16.335     0.006   0.0% |
  Atomic density matrices:                   1.309     1.309   0.0% |
  Mix:                                       4.083     4.083   0.0% |
  Multipole moments:                         0.111     0.111   0.0% |
  Pseudo density:                           10.826    10.817   0.1% |
   Symmetrize density:                       0.009     0.009   0.0% |
 Hamiltonian:                              799.602     0.036   0.0% |
  Atomic:                                    0.065     0.065   0.0% |
   XC Correction:                            0.001     0.001   0.0% |
  Calculate atomic Hamiltonians:             0.089     0.089   0.0% |
  Communicate:                              60.109    60.109   0.5% |
  Hartree integrate/restrict:                2.293     2.293   0.0% |
  Poisson:                                  42.221     1.698   0.0% |
   Communicate from 1D:                      3.248     3.248   0.0% |
   Communicate from 2D:                      6.969     6.969   0.1% |
   Communicate to 1D:                        1.928     1.928   0.0% |
   Communicate to 2D:                        7.608     7.608   0.1% |
   FFT 1D:                                  10.671    10.671   0.1% |
   FFT 2D:                                  10.100    10.100   0.1% |
  XC 3D grid:                              694.211   189.482   1.6% ||
   VdW-DF integral:                        504.730    30.413   0.3% |
    Convolution:                            49.939    49.939   0.4% |
    FFT:                                    35.723    35.723   0.3% |
    gather:                                164.673   164.673   1.4% ||
    hmm1:                                    9.778     9.778   0.1% |
    hmm2:                                   20.868    20.868   0.2% |
    iFFT:                                   33.853    33.853   0.3% |
    potential:                             159.479     3.709   0.0% |
     collect:                               10.756    10.756   0.1% |
     p1:                                    95.739    95.739   0.8% |
     p2:                                    32.111    32.111   0.3% |
     sum:                                   17.163    17.163   0.1% |
    splines:                                 0.002     0.002   0.0% |
  vbar:                                      0.577     0.577   0.0% |
 Orthonormalize:                            94.162     0.004   0.0% |
  calc_s_matrix:                             5.567     5.567   0.0% |
  inverse-cholesky:                         77.904    77.904   0.6% |
  projections:                               0.001     0.001   0.0% |
  rotate_psi_s:                             10.687    10.687   0.1% |
Set symmetry:                                0.001     0.001   0.0% |
Other:                                     691.129   691.129   5.7% |-|
-------------------------------------------------------------------
Total:                                             12087.025 100.0%

Memory usage: 1.58 GiB
Date: Thu Sep 28 05:20:21 2023
