
  ___ ___ ___ _ _ _  
 |   |   |_  | | | | 
 | | | | | . | | | | 
 |__ |  _|___|_____|  22.8.0
 |___|_|             

User:   s204775@a117.nifl.fysik.dtu.dk
Date:   Thu Oct  5 12:58:04 2023
Arch:   x86_64
Pid:    186689
CWD:    /home/cat/s204775/projects/Bachelor_project/C_missing_features
Python: 3.10.4
gpaw:   /home/modules/software/GPAW/22.8.0-intel-2022a/lib/python3.10/site-packages/gpaw
_gpaw:  /home/modules/software/GPAW/22.8.0-intel-2022a/lib/python3.10/site-packages/
        _gpaw.cpython-310-x86_64-linux-gnu.so
ase:    /home/modules/software/ASE/3.22.1-intel-2022a/lib/python3.10/site-packages/ase (version 3.22.1)
numpy:  /home/modules/software/SciPy-bundle/2022.05-intel-2022a/lib/python3.10/site-packages/numpy (version 1.22.3)
scipy:  /home/modules/software/SciPy-bundle/2022.05-intel-2022a/lib/python3.10/site-packages/scipy (version 1.8.1)
libxc:  5.2.3
units:  Angstrom and eV
cores: 40
OpenMP: False
OMP_NUM_THREADS: 1

Input parameters:
  basis: dzp
  h: 0.18
  kpts: {size: (4, 4, 1)}
  maxiter: 3000
  xc: BEEF-vdW

System changes: positions, numbers, cell, pbc, initial_charges, initial_magmoms 

Initialize ...

species:
  Ni:
    name: Nickel
    id: 0d9f38a9d6e76a2886f07bb4381f212b
    Z: 28.0
    valence: 16
    core: 12
    charge: 0.0
    file: /home/modules/software/GPAW-setups/0.9.20000/Ni.PBE.gz
    compensation charges: {type: gauss,
                           rc: 0.36,
                           lmax: 2}
    cutoffs: {filter: 2.14,
              core: 1.98}
    valence states:
      #              energy  rcut
      - 4s(2.00)    -5.642   1.164
      - 3p(6.00)   -71.394   1.207
      - 4p(0.00)    -1.226   1.207
      - 3d(8.00)    -8.875   1.138
      -  s          21.570   1.164
      -  d          18.337   1.138
  
    # LCAO basis set for Ni:
    #   Name: dzp
    #   File: /home/modules/software/GPAW-setups/0.9.20000/Ni.dzp.basis.gz
    #   Number of radial functions: 9
    #   Number of spherical harmonics: 27
    #     l=0, rc=8.5156 Bohr: 4s-sz confined orbital
    #     l=1, rc=2.9375 Bohr: 3p-sz confined orbital
    #     l=1, rc=12.4062 Bohr: 4p-sz confined orbital
    #     l=2, rc=4.6875 Bohr: 3d-sz confined orbital
    #     l=0, rc=4.9688 Bohr: 4s-dz split-valence wave
    #     l=1, rc=2.0781 Bohr: 3p-dz split-valence wave
    #     l=1, rc=7.5469 Bohr: 4p-dz split-valence wave
    #     l=2, rc=2.9375 Bohr: 3d-dz split-valence wave
    #     l=1, rc=8.5156 Bohr: p-type Gaussian polarization
    #   Number of RI-basis functions 0

  C:
    name: Carbon
    id: 4aa54d4b901d75f77cc0ea3eec22967b
    Z: 6.0
    valence: 4
    core: 2
    charge: 0.0
    file: /home/modules/software/GPAW-setups/0.9.20000/C.PBE.gz
    compensation charges: {type: gauss,
                           rc: 0.20,
                           lmax: 2}
    cutoffs: {filter: 1.14,
              core: 1.14}
    valence states:
      #              energy  rcut
      - 2s(2.00)   -13.751   0.635
      - 2p(2.00)    -5.284   0.635
      -  s          13.461   0.635
      -  p          21.927   0.635
      -  d           0.000   0.635
  
    # LCAO basis set for C:
    #   Name: dzp
    #   File: /home/modules/software/GPAW-setups/0.9.20000/C.dzp.basis.gz
    #   Number of radial functions: 5
    #   Number of spherical harmonics: 13
    #     l=0, rc=5.5469 Bohr: 2s-sz confined orbital
    #     l=1, rc=6.6719 Bohr: 2p-sz confined orbital
    #     l=0, rc=3.0312 Bohr: 2s-dz split-valence wave
    #     l=1, rc=3.7500 Bohr: 2p-dz split-valence wave
    #     l=2, rc=6.6719 Bohr: d-type Gaussian polarization
    #   Number of RI-basis functions 0

Reference energy: -1490275.572218  # eV

Spin-polarized calculation.
Magnetic moment: 24.133853

Convergence criteria:
 Maximum [total energy] change in last 3 cyles: 0.0005 eV / electron
 Maximum integral of absolute [dens]ity change: 0.0001 electrons / valence electron
 Maximum integral of absolute [eigenst]ate change: 4e-08 eV^2 / valence electron
 Maximum number of scf [iter]ations: 3000
 (Square brackets indicate name in SCF output, whereas a 'c' in
 the SCF output indicates the quantity has converged.)

Symmetries present (total): 1

  ( 1  0  0)
  ( 0  1  0)
  ( 0  0  1)

16 k-points: 4 x 4 x 1 Monkhorst-Pack grid
8 k-points in the irreducible part of the Brillouin zone
       k-points in crystal coordinates                weights
   0:     0.12500000   -0.37500000    0.00000000          2/16
   1:     0.12500000   -0.12500000    0.00000000          2/16
   2:     0.12500000    0.12500000    0.00000000          2/16
   3:     0.12500000    0.37500000    0.00000000          2/16
   4:     0.37500000   -0.37500000    0.00000000          2/16
   5:     0.37500000   -0.12500000    0.00000000          2/16
   6:     0.37500000    0.12500000    0.00000000          2/16
   7:     0.37500000    0.37500000    0.00000000          2/16

Wave functions: Uniform real-space grid
  Kinetic energy operator: 8*3+1=25 point O(h^6) finite-difference Laplacian
  ScaLapack parameters: grid=1x1, blocksize=None
  Wavefunction extrapolation:
    Improved wavefunction reuse through dual PAW basis 

Occupation numbers: Fermi-Dirac:
  width: 0.1000  # eV
 

Eigensolver
   Davidson(niter=2) 

Densities:
  Coarse grid: 36*36*144 grid
  Fine grid: 72*72*288 grid
  Total Charge: 0.000000 

Density mixing:
  Method: difference
  Backend: pulay
  Linear mixing parameter: 0.05
  old densities: 5
  Damping of long wavelength oscillations: 50 

Hamiltonian:
  XC and Coulomb potentials evaluated on a 72*72*288 grid
  Using the BEEF-vdW Exchange-Correlation functional
  Interpolation: tri-quintic (5. degree polynomial)
  Poisson solver: FastPoissonSolver using
    Stencil: 8*3+1=25 point O(h^6) finite-difference Laplacian
    FFT axes: [0, 1]
    FST axes: [2]
 

XC parameters: BEEF-vdW with 2 nearest neighbor stencil

Memory estimate:
  Process memory now: 191.29 MiB
  Calculator: 697.76 MiB
    Density: 47.55 MiB
      Arrays: 9.85 MiB
      Localized functions: 33.82 MiB
      Mixer: 3.88 MiB
    Hamiltonian: 9.92 MiB
      Arrays: 7.32 MiB
      XC: 0.00 MiB
      Poisson: 0.00 MiB
      vbar: 2.60 MiB
    Wavefunctions: 640.30 MiB
      Arrays psit_nG: 406.42 MiB
      Eigensolver: 226.54 MiB
      Projections: 1.48 MiB
      Projectors: 5.85 MiB

Total number of cores used: 40
Parallelization over k-points: 8
Domain decomposition: 1 x 1 x 5

Number of atoms: 37
Number of atomic orbitals: 985
Number of bands in calculation: 367
Number of valence electrons: 580
Bands to converge: occupied

... initialized

Initializing position-dependent things.

Density initialized from atomic densities
Creating initial wave functions:
  367 bands from LCAO basis set

                                          
                                          
                                          
                                          
                                          
          Ni    Ni C  Ni                  
                                          
           NNi   NNi   NNi                
             NNi   NNi   NNi              
                                          
             NNi    NNi   NNi             
               Ni     Ni    Ni            
                 Ni    Ni     Ni          
          Ni    Ni    Ni                  
            Ni    Ni    Ni                
              Ni    Ni    Ni              
                                          
                                          
                                          
                                          

Positions:
   0 Ni    -0.000000    0.000000   10.000000    ( 0.0000,  0.0000,  0.6703)
   1 Ni     1.261746    0.728469   12.060422    ( 0.0000,  0.0000,  0.6693)
   2 Ni    -0.000000    1.456879   14.115099    ( 0.0000,  0.0000,  0.6697)
   3 Ni    -0.000000    0.000000   16.159108    ( 0.0000,  0.0000,  0.6722)
   4 Ni    -1.261746    2.185408   10.000000    ( 0.0000,  0.0000,  0.6703)
   5 Ni    -0.000000    2.913877   12.060422    ( 0.0000,  0.0000,  0.6693)
   6 Ni    -1.261752    3.642342   14.115047    ( 0.0000,  0.0000,  0.6697)
   7 Ni    -1.261722    2.185367   16.159160    ( 0.0000,  0.0000,  0.6722)
   8 Ni    -2.523491    4.370815   10.000000    ( 0.0000,  0.0000,  0.6703)
   9 Ni    -1.261746    5.099284   12.060422    ( 0.0000,  0.0000,  0.6693)
  10 Ni    -2.523542    5.827783   14.115099    ( 0.0000,  0.0000,  0.6697)
  11 Ni    -2.523515    4.370856   16.159160    ( 0.0000,  0.0000,  0.6722)
  12 Ni     2.523491    0.000000   10.000000    ( 0.0000,  0.0000,  0.6703)
  13 Ni     3.785237    0.728469   12.060422    ( 0.0000,  0.0000,  0.6693)
  14 Ni     2.523448    1.456914   14.115068    ( 0.0000,  0.0000,  0.6697)
  15 Ni     2.523444    0.000000   16.159160    ( 0.0000,  0.0000,  0.6722)
  16 Ni     1.261746    2.185408   10.000000    ( 0.0000,  0.0000,  0.6703)
  17 Ni     2.523491    2.913877   12.060422    ( 0.0000,  0.0000,  0.6693)
  18 Ni     1.261752    3.642342   14.115047    ( 0.0000,  0.0000,  0.6697)
  19 Ni     1.261722    2.185367   16.159160    ( 0.0000,  0.0000,  0.6722)
  20 Ni    -0.000000    4.370815   10.000000    ( 0.0000,  0.0000,  0.6703)
  21 Ni     1.261746    5.099284   12.060422    ( 0.0000,  0.0000,  0.6693)
  22 Ni    -0.000000    5.827761   14.115047    ( 0.0000,  0.0000,  0.6697)
  23 Ni    -0.000000    4.370815   16.159174    ( 0.0000,  0.0000,  0.6722)
  24 Ni     5.046982    0.000000   10.000000    ( 0.0000,  0.0000,  0.6703)
  25 Ni     6.308728    0.728469   12.060422    ( 0.0000,  0.0000,  0.6693)
  26 Ni     5.047025    1.456914   14.115068    ( 0.0000,  0.0000,  0.6697)
  27 Ni     5.047030    0.000000   16.159160    ( 0.0000,  0.0000,  0.6722)
  28 Ni     3.785237    2.185408   10.000000    ( 0.0000,  0.0000,  0.6703)
  29 Ni     5.046982    2.913877   12.060422    ( 0.0000,  0.0000,  0.6693)
  30 Ni     3.785237    3.642395   14.115068    ( 0.0000,  0.0000,  0.6697)
  31 Ni     3.785237    2.185408   16.159114    ( 0.0000,  0.0000,  0.6722)
  32 Ni     2.523491    4.370815   10.000000    ( 0.0000,  0.0000,  0.6703)
  33 Ni     3.785237    5.099284   12.060422    ( 0.0000,  0.0000,  0.6693)
  34 Ni     2.523542    5.827783   14.115099    ( 0.0000,  0.0000,  0.6697)
  35 Ni     2.523515    4.370856   16.159160    ( 0.0000,  0.0000,  0.6722)
  36 C      1.261722    3.642319   16.887636    ( 0.0000,  0.0000,  0.0000)

Unit cell:
           periodic     x           y           z      points  spacing
  1. axis:    yes    7.570474    0.000000    0.000000    36     0.1821
  2. axis:    yes   -3.785237    6.556223    0.000000    36     0.1821
  3. axis:    no     0.000000    0.000000   26.181266   144     0.1818

  Lengths:   7.570474   7.570474  26.181266
  Angles:   90.000000  90.000000 120.000000

Effective grid spacing dv^(1/3) = 0.1910

     iter     time        total  log10-change:  magmom
                         energy  eigst   dens
iter:   1 13:00:25 -2748.000961                  +23.8879
iter:   2 13:01:26 -2834.340138  -0.10  -1.43    +18.9439
iter:   3 13:02:27 -2752.084409  -0.55  -1.39    +14.9349
iter:   4 13:03:29 -2753.183799  -0.91  -1.58    +12.8654
iter:   5 13:04:30 -2743.224479  -1.16  -1.61    +12.1339
iter:   6 13:05:31 -2738.472767  -1.28  -1.75    +10.9739
iter:   7 13:06:32 -2748.823473  -1.31  -1.83    +11.1839
iter:   8 13:07:33 -2738.906916  -1.70  -1.77    +9.9609
iter:   9 13:08:34 -2735.717816  -1.67  -1.81    +10.3585
iter:  10 13:09:35 -2737.667244  -2.36  -1.84    +12.7767
iter:  11 13:10:35 -2736.572916  -1.90  -1.87    +14.8370
iter:  12 13:11:36 -2733.435054  -1.93  -2.07    +17.1231
iter:  13 13:12:37 -2734.665349  -2.02  -2.11    +17.6450
iter:  14 13:13:38 -2731.851919  -2.23  -1.96    +17.3623
iter:  15 13:14:39 -2733.479146  -2.48  -2.27    +17.1077
iter:  16 13:15:40 -2730.697802  -2.77  -2.08    +17.5531
iter:  17 13:16:41 -2730.724024  -3.14  -2.42    +18.8874
iter:  18 13:17:42 -2731.703286  -2.67  -2.47    +19.6616
iter:  19 13:18:43 -2731.245709  -2.96  -2.41    +19.8881
iter:  20 13:19:44 -2731.004692  -2.84  -2.54    +20.4188
iter:  21 13:20:45 -2730.874246  -3.15  -2.71    +20.7741
iter:  22 13:21:46 -2730.963021c -3.49  -2.94    +21.0280
iter:  23 13:22:47 -2730.970792c -3.73  -2.88    +21.3262
iter:  24 13:23:48 -2731.039824c -3.61  -2.97    +21.5278
iter:  25 13:24:49 -2730.959712c -4.17  -2.91    +21.5213
iter:  26 13:25:50 -2730.964457c -4.23  -3.14    +21.6331
iter:  27 13:26:51 -2730.975578c -4.52  -3.25    +21.6506
iter:  28 13:27:52 -2730.981118c -4.61  -3.28    +21.7328
iter:  29 13:28:53 -2731.014431c -4.30  -3.26    +21.7590
iter:  30 13:29:53 -2731.004464c -3.69  -3.20    +21.8498
iter:  31 13:30:54 -2731.008809c -4.60  -3.21    +21.8256
iter:  32 13:31:55 -2730.987316c -4.07  -3.32    +21.8595
iter:  33 13:32:56 -2731.023067c -4.63  -3.53    +21.8594
iter:  34 13:33:57 -2730.988382c -4.70  -3.21    +21.8848
iter:  35 13:34:58 -2730.979631c -4.52  -3.81    +21.9086
iter:  36 13:35:59 -2731.000512c -4.51  -3.70    +21.9011
iter:  37 13:37:00 -2730.976365c -3.45  -3.59    +21.9389
iter:  38 13:38:01 -2730.983522c -3.88  -3.07    +21.9517
iter:  39 13:39:01 -2730.962088c -4.04  -2.97    +21.9525
iter:  40 13:40:02 -2730.971536c -5.22  -2.95    +21.9475
iter:  41 13:41:03 -2730.969635c -5.29  -2.98    +21.9454
iter:  42 13:42:04 -2730.990546c -5.00  -2.98    +21.9440
iter:  43 13:43:05 -2731.048457c -4.78  -2.95    +21.9431
iter:  44 13:44:06 -2731.024487c -5.17  -2.87    +21.9464
iter:  45 13:45:07 -2730.889070c -3.62  -2.91    +21.9414
iter:  46 13:46:08 -2730.867042c -4.49  -3.08    +21.9449
iter:  47 13:47:09 -2730.926287c -4.13  -3.42    +21.9099
iter:  48 13:48:10 -2731.032739c -3.30  -3.50    +21.8604
iter:  49 13:49:10 -2731.029789c -3.74  -3.17    +21.8882
iter:  50 13:50:11 -2731.031413c -3.61  -3.26    +21.9002
iter:  51 13:51:12 -2731.062143c -4.10  -3.28    +21.8820
iter:  52 13:52:13 -2731.039992c -4.62  -3.14    +21.8806
iter:  53 13:53:14 -2730.999620c -4.30  -3.19    +21.8693
iter:  54 13:54:15 -2731.005881c -4.95  -3.35    +21.8550
iter:  55 13:55:16 -2730.997638c -5.00  -3.31    +21.8434
iter:  56 13:56:17 -2730.985688c -4.50  -3.35    +21.8373
iter:  57 13:57:18 -2730.981504c -5.02  -3.59    +21.8417
iter:  58 13:58:19 -2730.987482c -5.09  -3.56    +21.8378
iter:  59 13:59:20 -2730.980660c -4.82  -3.42    +21.8483
iter:  60 14:00:20 -2730.997376c -4.72  -3.56    +21.8375
iter:  61 14:01:21 -2730.994892c -5.16  -3.43    +21.8324
iter:  62 14:02:22 -2730.997450c -4.49  -3.57    +21.8355
iter:  63 14:03:24 -2730.999839c -5.06  -3.72    +21.8500
iter:  64 14:04:25 -2730.997591c -5.39  -3.82    +21.8527
iter:  65 14:05:25 -2730.998147c -4.99  -3.91    +21.8574
iter:  66 14:06:26 -2730.999518c -4.91  -3.86    +21.8642
iter:  67 14:07:27 -2730.998902c -5.02  -3.80    +21.8767
iter:  68 14:08:28 -2731.000101c -5.38  -3.79    +21.8852
iter:  69 14:09:29 -2730.999839c -5.66  -3.65    +21.8864
iter:  70 14:10:30 -2730.998472c -5.58  -3.75    +21.8908
iter:  71 14:11:31 -2730.996717c -5.56  -3.81    +21.9000
iter:  72 14:12:32 -2730.996702c -5.83  -3.96    +21.9016
iter:  73 14:13:33 -2730.998074c -5.85  -4.05c   +21.9052
iter:  74 14:14:34 -2730.998047c -5.91  -4.09c   +21.9051
iter:  75 14:15:34 -2730.998899c -5.53  -4.19c   +21.9001
iter:  76 14:16:35 -2730.998846c -6.49  -4.10c   +21.9000
iter:  77 14:17:36 -2730.997779c -5.99  -4.19c   +21.9008
iter:  78 14:18:37 -2730.998710c -6.51  -4.33c   +21.8986
iter:  79 14:19:38 -2730.998206c -6.86  -4.28c   +21.8962
iter:  80 14:20:39 -2730.998348c -6.53  -4.56c   +21.8951
iter:  81 14:21:40 -2730.998595c -6.60  -4.60c   +21.8967
iter:  82 14:22:41 -2730.998887c -6.40  -4.64c   +21.8977
iter:  83 14:23:42 -2730.999118c -6.61  -4.60c   +21.8965
iter:  84 14:24:42 -2730.999487c -6.84  -4.52c   +21.8958
iter:  85 14:25:43 -2730.999330c -7.31  -4.38c   +21.8957
iter:  86 14:26:44 -2730.999629c -7.13  -4.48c   +21.8961
iter:  87 14:27:45 -2730.999230c -7.08  -4.32c   +21.8964
iter:  88 14:28:46 -2730.998953c -7.33  -4.46c   +21.8978
iter:  89 14:29:47 -2730.999475c -7.21  -4.52c   +21.8977
iter:  90 14:30:48 -2730.999237c -7.62c -4.28c   +21.8965

Converged after 90 iterations.

Dipole moment: (-2.561140, -4.440379, -0.051160) |e|*Ang

Total magnetic moment: (0.000000, 0.000000, 21.896545)
Local magnetic moments:
   0 Ni ( 0.000000,  0.000000,  0.724244)
   1 Ni ( 0.000000,  0.000000,  0.725292)
   2 Ni ( 0.000000,  0.000000,  0.668048)
   3 Ni ( 0.000000,  0.000000,  0.643453)
   4 Ni ( 0.000000,  0.000000,  0.740665)
   5 Ni ( 0.000000,  0.000000,  0.727938)
   6 Ni ( 0.000000,  0.000000,  0.669632)
   7 Ni ( 0.000000,  0.000000,  0.690803)
   8 Ni ( 0.000000,  0.000000,  0.723561)
   9 Ni ( 0.000000,  0.000000,  0.723008)
  10 Ni ( 0.000000,  0.000000,  0.702204)
  11 Ni ( 0.000000,  0.000000,  0.651813)
  12 Ni ( 0.000000,  0.000000,  0.723569)
  13 Ni ( 0.000000,  0.000000,  0.716594)
  14 Ni ( 0.000000,  0.000000,  0.665467)
  15 Ni ( 0.000000,  0.000000,  0.651813)
  16 Ni ( 0.000000,  0.000000,  0.726215)
  17 Ni ( 0.000000,  0.000000,  0.728316)
  18 Ni ( 0.000000,  0.000000,  0.701413)
  19 Ni ( 0.000000,  0.000000,  0.115592)
  20 Ni ( 0.000000,  0.000000,  0.725438)
  21 Ni ( 0.000000,  0.000000,  0.727908)
  22 Ni ( 0.000000,  0.000000,  0.669656)
  23 Ni ( 0.000000,  0.000000,  0.115793)
  24 Ni ( 0.000000,  0.000000,  0.740664)
  25 Ni ( 0.000000,  0.000000,  0.717416)
  26 Ni ( 0.000000,  0.000000,  0.725175)
  27 Ni ( 0.000000,  0.000000,  0.690822)
  28 Ni ( 0.000000,  0.000000,  0.739331)
  29 Ni ( 0.000000,  0.000000,  0.716598)
  30 Ni ( 0.000000,  0.000000,  0.665464)
  31 Ni ( 0.000000,  0.000000,  0.693836)
  32 Ni ( 0.000000,  0.000000,  0.726200)
  33 Ni ( 0.000000,  0.000000,  0.725285)
  34 Ni ( 0.000000,  0.000000,  0.668067)
  35 Ni ( 0.000000,  0.000000,  0.115598)
  36 C  ( 0.000000,  0.000000, -0.008242)

Energy contributions relative to reference atoms: (reference = -1490275.572218)

Kinetic:       +959.563988
Potential:     -831.345704
External:        +0.000000
XC:            -2861.531871
Entropy (-ST):   -2.038982
Local:           +3.333841
--------------------------
Free energy:   -2732.018728
Extrapolated:  -2730.999237

Spin contamination: 1.998694 electrons
Showing only first 2 kpts
                      Up                     Down
 Kpt  Band  Eigenvalues  Occupancy  Eigenvalues  Occupancy
  0   288     -5.96875    0.99877     -5.14286    0.17352
  0   289     -5.96804    0.99876     -5.12590    0.15053
  0   290     -5.95723    0.99862     -5.10552    0.12627
  0   291     -5.93941    0.99835     -5.09783    0.11803

  1   288     -6.05671    0.99949     -5.22656    0.32653
  1   289     -6.03534    0.99937     -5.22338    0.31957
  1   290     -6.02180    0.99927     -5.20085    0.27270
  1   291     -6.02104    0.99927     -5.18489    0.24221


Fermi level: -5.29895

No gap

Forces in eV/Ang:
  0 Ni   -0.00305    0.00185    0.09631
  1 Ni   -0.00001    0.00249   -0.10175
  2 Ni   -0.03777   -0.01035   -0.06138
  3 Ni    0.03011   -0.01741   -0.02618
  4 Ni    0.01068    0.00826    0.10984
  5 Ni   -0.00032   -0.00245   -0.08533
  6 Ni   -0.02979   -0.02696   -0.06228
  7 Ni   -0.35833   -0.20824   -0.08921
  8 Ni   -0.00268   -0.00172    0.09129
  9 Ni    0.00182   -0.00099   -0.09906
 10 Ni    0.00177   -0.00116    0.05189
 11 Ni   -0.00085    0.02941   -0.02833
 12 Ni    0.00019    0.00330    0.09127
 13 Ni    0.02182    0.01270   -0.15572
 14 Ni    0.03905   -0.01231   -0.06383
 15 Ni   -0.02600   -0.01406   -0.02837
 16 Ni   -0.00162    0.00130    0.09589
 17 Ni    0.00031   -0.00013   -0.08506
 18 Ni    0.00023   -0.00030   -0.74629
 19 Ni   -0.01057   -4.14725   -1.31245
 20 Ni   -0.00085    0.00056    0.09570
 21 Ni    0.00199    0.00156   -0.08530
 22 Ni    0.00837    0.03916   -0.06226
 23 Ni   -3.57732    2.06530   -1.31853
 24 Ni   -0.00173   -0.01323    0.10983
 25 Ni   -0.02152    0.01248   -0.15757
 26 Ni    0.00092   -0.00059    0.13434
 27 Ni    0.00114    0.41447   -0.08931
 28 Ni   -0.01358    0.00793    0.10766
 29 Ni   -0.00004   -0.02525   -0.15581
 30 Ni    0.03017   -0.02779   -0.06383
 31 Ni    0.36265   -0.20941   -0.08970
 32 Ni   -0.00188    0.00085    0.09590
 33 Ni   -0.00208   -0.00113   -0.10171
 34 Ni   -0.00995    0.03782   -0.06136
 35 Ni    3.58532    2.08212   -1.31198
 36 C     0.00335   -0.00063    5.29915

      Step     Time          Energy         fmax
BFGS:    0 14:31:25    -2730.999237        5.2992
System changes: positions 

Initializing position-dependent things.

Density initialized from wave functions
                                          
                                          
                                          
                                          
                                          
          Ni    Ni C   Ni                 
                                          
           NNi   NNi   NNi                
             NNi   NNi   NNi              
                                          
             NNi    NNi   NNi             
               Ni     Ni    Ni            
                                          
          Ni    NNi   NNi     Ni          
            Ni    Ni    Ni                
              Ni    Ni    Ni              
                                          
                                          
                                          
                                          

Positions:
   0 Ni    -0.000000    0.000000   10.000000    ( 0.0000,  0.0000,  0.6703)
   1 Ni     1.261746    0.728469   12.060422    ( 0.0000,  0.0000,  0.6693)
   2 Ni    -0.000540    1.456731   14.114223    ( 0.0000,  0.0000,  0.6697)
   3 Ni     0.000430   -0.000249   16.158735    ( 0.0000,  0.0000,  0.6722)
   4 Ni    -1.261746    2.185408   10.000000    ( 0.0000,  0.0000,  0.6703)
   5 Ni    -0.000000    2.913877   12.060422    ( 0.0000,  0.0000,  0.6693)
   6 Ni    -1.262177    3.641957   14.114157    ( 0.0000,  0.0000,  0.6697)
   7 Ni    -1.266841    2.182392   16.157886    ( 0.0000,  0.0000,  0.6722)
   8 Ni    -2.523491    4.370815   10.000000    ( 0.0000,  0.0000,  0.6703)
   9 Ni    -1.261746    5.099284   12.060422    ( 0.0000,  0.0000,  0.6693)
  10 Ni    -2.523517    5.827766   14.115841    ( 0.0000,  0.0000,  0.6697)
  11 Ni    -2.523527    4.371276   16.158755    ( 0.0000,  0.0000,  0.6722)
  12 Ni     2.523491    0.000000   10.000000    ( 0.0000,  0.0000,  0.6703)
  13 Ni     3.785237    0.728469   12.060422    ( 0.0000,  0.0000,  0.6693)
  14 Ni     2.524006    1.456738   14.114156    ( 0.0000,  0.0000,  0.6697)
  15 Ni     2.523073   -0.000201   16.158755    ( 0.0000,  0.0000,  0.6722)
  16 Ni     1.261746    2.185408   10.000000    ( 0.0000,  0.0000,  0.6703)
  17 Ni     2.523491    2.913877   12.060422    ( 0.0000,  0.0000,  0.6693)
  18 Ni     1.261755    3.642338   14.104386    ( 0.0000,  0.0000,  0.6697)
  19 Ni     1.261571    2.126120   16.140411    ( 0.0000,  0.0000,  0.6722)
  20 Ni    -0.000000    4.370815   10.000000    ( 0.0000,  0.0000,  0.6703)
  21 Ni     1.261746    5.099284   12.060422    ( 0.0000,  0.0000,  0.6693)
  22 Ni     0.000120    5.828320   14.114157    ( 0.0000,  0.0000,  0.6697)
  23 Ni    -0.051105    4.400319   16.140338    ( 0.0000,  0.0000,  0.6722)
  24 Ni     5.046982    0.000000   10.000000    ( 0.0000,  0.0000,  0.6703)
  25 Ni     6.308728    0.728469   12.060422    ( 0.0000,  0.0000,  0.6693)
  26 Ni     5.047038    1.456905   14.116987    ( 0.0000,  0.0000,  0.6697)
  27 Ni     5.047046    0.005921   16.157884    ( 0.0000,  0.0000,  0.6722)
  28 Ni     3.785237    2.185408   10.000000    ( 0.0000,  0.0000,  0.6703)
  29 Ni     5.046982    2.913877   12.060422    ( 0.0000,  0.0000,  0.6693)
  30 Ni     3.785668    3.641998   14.114156    ( 0.0000,  0.0000,  0.6697)
  31 Ni     3.790418    2.182416   16.157832    ( 0.0000,  0.0000,  0.6722)
  32 Ni     2.523491    4.370815   10.000000    ( 0.0000,  0.0000,  0.6703)
  33 Ni     3.785237    5.099284   12.060422    ( 0.0000,  0.0000,  0.6693)
  34 Ni     2.523400    5.828323   14.114223    ( 0.0000,  0.0000,  0.6697)
  35 Ni     2.574734    4.400600   16.140418    ( 0.0000,  0.0000,  0.6722)
  36 C      1.261770    3.642310   16.963338    ( 0.0000,  0.0000,  0.0000)

Unit cell:
           periodic     x           y           z      points  spacing
  1. axis:    yes    7.570474    0.000000    0.000000    36     0.1821
  2. axis:    yes   -3.785237    6.556223    0.000000    36     0.1821
  3. axis:    no     0.000000    0.000000   26.181266   144     0.1818

  Lengths:   7.570474   7.570474  26.181266
  Angles:   90.000000  90.000000 120.000000

Effective grid spacing dv^(1/3) = 0.1910

     iter     time        total  log10-change:  magmom
                         energy  eigst   dens
iter:   1 14:34:30 -2736.990785  -1.03           +21.8951
iter:   2 14:35:33 -2756.782242  -1.51  -2.11    +24.0400
iter:   3 14:36:36 -2778.035513  -1.06  -1.72    +22.7834
iter:   4 14:37:38 -2760.137819  -1.63  -1.58    +19.9615
iter:   5 14:38:41 -2751.263815  -1.47  -1.73    +23.2618
iter:   6 14:39:44 -2737.150172  -1.88  -1.96    +23.9015
iter:   7 14:40:46 -2731.830278  -1.92  -2.29    +23.1240
iter:   8 14:41:49 -2731.800220  -1.92  -2.42    +23.4074
iter:   9 14:42:52 -2732.498171  -2.36  -2.22    +23.2173
iter:  10 14:43:54 -2732.530009  -2.39  -2.41    +24.0324
iter:  11 14:44:57 -2731.717450  -2.80  -2.46    +22.8496
iter:  12 14:46:00 -2733.036279  -2.47  -2.60    +22.5959
iter:  13 14:47:02 -2733.809915  -2.39  -2.35    +21.8034
iter:  14 14:48:05 -2731.668627  -2.88  -2.25    +21.1709
iter:  15 14:49:08 -2731.735618  -3.32  -2.85    +21.1914
iter:  16 14:50:11 -2731.707494c -3.51  -2.84    +21.4019
iter:  17 14:51:13 -2731.698634c -3.64  -2.97    +21.4754
iter:  18 14:52:16 -2731.711571c -3.85  -3.04    +21.6532
iter:  19 14:53:19 -2731.740659c -3.62  -3.22    +21.8732
iter:  20 14:54:21 -2731.752105c -4.04  -3.41    +21.9144
iter:  21 14:55:24 -2731.751825c -4.41  -3.42    +21.9766
iter:  22 14:56:27 -2731.766318c -4.46  -3.54    +22.0082
iter:  23 14:57:29 -2731.757649c -4.83  -3.30    +22.0125
iter:  24 14:58:32 -2731.755024c -4.82  -3.42    +22.0211
iter:  25 14:59:35 -2731.756200c -4.81  -3.62    +22.0477
iter:  26 15:00:37 -2731.757900c -5.30  -3.71    +22.0554
iter:  27 15:01:40 -2731.755917c -5.25  -3.69    +22.0658
iter:  28 15:02:43 -2731.756285c -5.55  -3.71    +22.0677
iter:  29 15:03:45 -2731.757705c -5.44  -3.82    +22.0692
iter:  30 15:04:48 -2731.757057c -6.01  -3.90    +22.0704
iter:  31 15:05:51 -2731.758016c -5.67  -4.00c   +22.0726
iter:  32 15:06:54 -2731.757856c -5.72  -3.91    +22.0746
iter:  33 15:07:56 -2731.759386c -5.89  -4.09c   +22.0774
iter:  34 15:08:59 -2731.757692c -6.17  -4.05c   +22.0816
iter:  35 15:10:02 -2731.757580c -6.24  -4.21c   +22.0828
iter:  36 15:11:04 -2731.757877c -6.72  -4.52c   +22.0839
iter:  37 15:12:07 -2731.758026c -7.02  -4.55c   +22.0863
iter:  38 15:13:10 -2731.757672c -7.03  -4.48c   +22.0864
iter:  39 15:14:12 -2731.757626c -7.22  -4.75c   +22.0874
iter:  40 15:15:15 -2731.757762c -7.73c -4.74c   +22.0870

Converged after 40 iterations.

Dipole moment: (-2.327848, -4.570338, -0.075768) |e|*Ang

Total magnetic moment: (0.000000, 0.000000, 22.087001)
Local magnetic moments:
   0 Ni ( 0.000000,  0.000000,  0.724724)
   1 Ni ( 0.000000,  0.000000,  0.725577)
   2 Ni ( 0.000000,  0.000000,  0.670918)
   3 Ni ( 0.000000,  0.000000,  0.646664)
   4 Ni ( 0.000000,  0.000000,  0.739452)
   5 Ni ( 0.000000,  0.000000,  0.729091)
   6 Ni ( 0.000000,  0.000000,  0.672369)
   7 Ni ( 0.000000,  0.000000,  0.697191)
   8 Ni ( 0.000000,  0.000000,  0.723601)
   9 Ni ( 0.000000,  0.000000,  0.723362)
  10 Ni ( 0.000000,  0.000000,  0.710820)
  11 Ni ( 0.000000,  0.000000,  0.654780)
  12 Ni ( 0.000000,  0.000000,  0.723606)
  13 Ni ( 0.000000,  0.000000,  0.715049)
  14 Ni ( 0.000000,  0.000000,  0.668172)
  15 Ni ( 0.000000,  0.000000,  0.654786)
  16 Ni ( 0.000000,  0.000000,  0.726305)
  17 Ni ( 0.000000,  0.000000,  0.729436)
  18 Ni ( 0.000000,  0.000000,  0.710628)
  19 Ni ( 0.000000,  0.000000,  0.161646)
  20 Ni ( 0.000000,  0.000000,  0.725276)
  21 Ni ( 0.000000,  0.000000,  0.729065)
  22 Ni ( 0.000000,  0.000000,  0.672389)
  23 Ni ( 0.000000,  0.000000,  0.160912)
  24 Ni ( 0.000000,  0.000000,  0.739450)
  25 Ni ( 0.000000,  0.000000,  0.715738)
  26 Ni ( 0.000000,  0.000000,  0.730327)
  27 Ni ( 0.000000,  0.000000,  0.697196)
  28 Ni ( 0.000000,  0.000000,  0.738525)
  29 Ni ( 0.000000,  0.000000,  0.715053)
  30 Ni ( 0.000000,  0.000000,  0.668165)
  31 Ni ( 0.000000,  0.000000,  0.700073)
  32 Ni ( 0.000000,  0.000000,  0.726293)
  33 Ni ( 0.000000,  0.000000,  0.725572)
  34 Ni ( 0.000000,  0.000000,  0.670929)
  35 Ni ( 0.000000,  0.000000,  0.161616)
  36 C  ( 0.000000,  0.000000, -0.011303)

Energy contributions relative to reference atoms: (reference = -1490275.572218)

Kinetic:       +946.439907
Potential:     -821.365249
External:        +0.000000
XC:            -2859.195572
Entropy (-ST):   -2.055893
Local:           +3.391097
--------------------------
Free energy:   -2732.785709
Extrapolated:  -2731.757762

Spin contamination: 2.007630 electrons
Showing only first 2 kpts
                      Up                     Down
 Kpt  Band  Eigenvalues  Occupancy  Eigenvalues  Occupancy
  0   288     -6.00239    0.99881     -5.17175    0.17193
  0   289     -5.99781    0.99876     -5.15880    0.15427
  0   290     -5.98945    0.99865     -5.14635    0.13871
  0   291     -5.96883    0.99834     -5.12900    0.11926

  1   288     -6.08358    0.99947     -5.25731    0.32819
  1   289     -6.06924    0.99939     -5.24895    0.31002
  1   290     -6.05399    0.99929     -5.23353    0.27804
  1   291     -6.04376    0.99921     -5.21377    0.24015


Fermi level: -5.32895

No gap

Forces in eV/Ang:
  0 Ni   -0.00223    0.00137    0.09600
  1 Ni    0.00011   -0.00070   -0.10911
  2 Ni   -0.06568   -0.00639   -0.10967
  3 Ni    0.00808   -0.00472    0.00284
  4 Ni    0.01125    0.00886    0.10543
  5 Ni   -0.01151   -0.00866   -0.10629
  6 Ni   -0.04022   -0.05297   -0.10991
  7 Ni   -0.25594   -0.14926   -0.06034
  8 Ni   -0.00256   -0.00108    0.09089
  9 Ni   -0.00084    0.00055   -0.10658
 10 Ni    0.00182   -0.00116    0.02777
 11 Ni   -0.00029    0.00301    0.00135
 12 Ni   -0.00030    0.00287    0.09086
 13 Ni    0.02342    0.01380   -0.15169
 14 Ni    0.06669   -0.00766   -0.11095
 15 Ni   -0.00283   -0.00136    0.00132
 16 Ni   -0.00148    0.00215    0.09487
 17 Ni    0.01188   -0.00681   -0.10559
 18 Ni    0.00109   -0.00079   -0.43565
 19 Ni   -0.01067   -1.11759   -0.15878
 20 Ni   -0.00055    0.00039    0.09451
 21 Ni    0.00178    0.01435   -0.10626
 22 Ni    0.02570    0.06119   -0.10991
 23 Ni   -0.95947    0.55382   -0.16534
 24 Ni   -0.00197   -0.01403    0.10541
 25 Ni   -0.02313    0.01341   -0.15301
 26 Ni    0.00063   -0.00042    0.08724
 27 Ni    0.00123    0.29612   -0.06038
 28 Ni   -0.01434    0.00837    0.10282
 29 Ni   -0.00019   -0.02717   -0.15178
 30 Ni    0.03994   -0.05404   -0.11096
 31 Ni    0.25764   -0.14882   -0.06052
 32 Ni   -0.00255    0.00031    0.09488
 33 Ni    0.00073    0.00036   -0.10907
 34 Ni   -0.02737    0.05997   -0.10969
 35 Ni    0.96185    0.56752   -0.15855
 36 C     0.00641   -0.00245    1.90874

BFGS:    1 15:15:53    -2731.757762        1.9088
System changes: positions 

Initializing position-dependent things.

Density initialized from wave functions
                                          
                                          
                                          
                                          
                                          
                   C                      
          Ni    Ni     Ni                 
           NNi   NNi   NNi                
              Ni    Ni    Ni              
             Ni    Ni    Ni               
              Ni     Ni    Ni             
             Ni     Ni    Ni              
               Ni     Ni    Ni            
                 Ni    Ni     Ni          
          Ni    Ni    Ni                  
            Ni    Ni    Ni                
              Ni    Ni    Ni              
                                          
                                          
                                          
                                          

Positions:
   0 Ni    -0.000000    0.000000   10.000000    ( 0.0000,  0.0000,  0.6703)
   1 Ni     1.261746    0.728469   12.060422    ( 0.0000,  0.0000,  0.6693)
   2 Ni    -0.001878    1.456600   14.111988    ( 0.0000,  0.0000,  0.6697)
   3 Ni     0.000599   -0.000347   16.158788    ( 0.0000,  0.0000,  0.6722)
   4 Ni    -1.261746    2.185408   10.000000    ( 0.0000,  0.0000,  0.6703)
   5 Ni    -0.000000    2.913877   12.060422    ( 0.0000,  0.0000,  0.6693)
   6 Ni    -1.262998    3.640878   14.111918    ( 0.0000,  0.0000,  0.6697)
   7 Ni    -1.272093    2.179329   16.156647    ( 0.0000,  0.0000,  0.6722)
   8 Ni    -2.523491    4.370815   10.000000    ( 0.0000,  0.0000,  0.6703)
   9 Ni    -1.261746    5.099284   12.060422    ( 0.0000,  0.0000,  0.6693)
  10 Ni    -2.523480    5.827743   14.116413    ( 0.0000,  0.0000,  0.6697)
  11 Ni    -2.523533    4.371342   16.158778    ( 0.0000,  0.0000,  0.6722)
  12 Ni     2.523491    0.000000   10.000000    ( 0.0000,  0.0000,  0.6703)
  13 Ni     3.785237    0.728469   12.060422    ( 0.0000,  0.0000,  0.6693)
  14 Ni     2.525365    1.456580   14.111895    ( 0.0000,  0.0000,  0.6697)
  15 Ni     2.523011   -0.000231   16.158777    ( 0.0000,  0.0000,  0.6722)
  16 Ni     1.261746    2.185408   10.000000    ( 0.0000,  0.0000,  0.6703)
  17 Ni     2.523491    2.913877   12.060422    ( 0.0000,  0.0000,  0.6693)
  18 Ni     1.261777    3.642322   14.095422    ( 0.0000,  0.0000,  0.6697)
  19 Ni     1.261353    2.102735   16.136962    ( 0.0000,  0.0000,  0.6722)
  20 Ni    -0.000000    4.370815   10.000000    ( 0.0000,  0.0000,  0.6703)
  21 Ni     1.261746    5.099284   12.060422    ( 0.0000,  0.0000,  0.6693)
  22 Ni     0.000642    5.829568   14.111918    ( 0.0000,  0.0000,  0.6697)
  23 Ni    -0.071184    4.411909   16.136755    ( 0.0000,  0.0000,  0.6722)
  24 Ni     5.046982    0.000000   10.000000    ( 0.0000,  0.0000,  0.6703)
  25 Ni     6.308728    0.728469   12.060422    ( 0.0000,  0.0000,  0.6693)
  26 Ni     5.047051    1.456897   14.118779    ( 0.0000,  0.0000,  0.6697)
  27 Ni     5.047071    0.011998   16.156644    ( 0.0000,  0.0000,  0.6722)
  28 Ni     3.785237    2.185408   10.000000    ( 0.0000,  0.0000,  0.6703)
  29 Ni     5.046982    2.913877   12.060422    ( 0.0000,  0.0000,  0.6693)
  30 Ni     3.786483    3.640898   14.111895    ( 0.0000,  0.0000,  0.6697)
  31 Ni     3.795705    2.179362   16.156590    ( 0.0000,  0.0000,  0.6722)
  32 Ni     2.523491    4.370815   10.000000    ( 0.0000,  0.0000,  0.6703)
  33 Ni     3.785237    5.099284   12.060422    ( 0.0000,  0.0000,  0.6693)
  34 Ni     2.522844    5.829546   14.111988    ( 0.0000,  0.0000,  0.6697)
  35 Ni     2.594863    4.412471   16.136974    ( 0.0000,  0.0000,  0.6722)
  36 C      1.261900    3.642260   17.002966    ( 0.0000,  0.0000,  0.0000)

Unit cell:
           periodic     x           y           z      points  spacing
  1. axis:    yes    7.570474    0.000000    0.000000    36     0.1821
  2. axis:    yes   -3.785237    6.556223    0.000000    36     0.1821
  3. axis:    no     0.000000    0.000000   26.181266   144     0.1818

  Lengths:   7.570474   7.570474  26.181266
  Angles:   90.000000  90.000000 120.000000

Effective grid spacing dv^(1/3) = 0.1910

     iter     time        total  log10-change:  magmom
                         energy  eigst   dens
iter:   1 15:18:55 -2733.393502  -1.80           +22.0873
iter:   2 15:19:57 -2755.258441  -1.74  -2.32    +23.1437
iter:   3 15:20:59 -2734.495667  -1.83  -1.76    +22.0891
iter:   4 15:22:01 -2734.182390  -2.47  -2.22    +21.4019
iter:   5 15:23:04 -2732.055044  -2.76  -2.33    +22.1148
iter:   6 15:24:06 -2731.871988  -3.18  -2.71    +21.9800
iter:   7 15:25:08 -2731.828627c -3.49  -2.85    +21.9016
iter:   8 15:26:10 -2731.850419c -3.65  -2.95    +21.8489
iter:   9 15:27:13 -2731.838595c -3.85  -3.17    +21.9107
iter:  10 15:28:15 -2731.859116c -4.02  -3.26    +21.9144
iter:  11 15:29:17 -2731.849527c -4.33  -3.30    +21.9985
iter:  12 15:30:20 -2731.844376c -4.57  -3.45    +22.0164
iter:  13 15:31:22 -2731.854687c -4.71  -3.66    +22.0520
iter:  14 15:32:24 -2731.853708c -4.60  -3.49    +22.0399
iter:  15 15:33:27 -2731.857610c -4.59  -3.78    +22.0650
iter:  16 15:34:29 -2731.860528c -4.62  -3.80    +22.0995
iter:  17 15:35:31 -2731.860179c -5.14  -3.75    +22.1227
iter:  18 15:36:33 -2731.860667c -5.40  -3.72    +22.1266
iter:  19 15:37:36 -2731.860712c -5.45  -3.90    +22.1439
iter:  20 15:38:38 -2731.860498c -5.34  -3.82    +22.1417
iter:  21 15:39:40 -2731.862417c -5.32  -3.76    +22.1458
iter:  22 15:40:42 -2731.861697c -5.68  -3.68    +22.1494
iter:  23 15:41:45 -2731.860490c -5.23  -3.71    +22.1666
iter:  24 15:42:47 -2731.863513c -5.82  -4.05c   +22.1679
iter:  25 15:43:49 -2731.861466c -5.94  -3.64    +22.1778
iter:  26 15:44:51 -2731.860087c -5.93  -3.80    +22.1856
iter:  27 15:45:54 -2731.859999c -6.06  -3.96    +22.1845
iter:  28 15:46:56 -2731.860003c -6.29  -4.27c   +22.1878
iter:  29 15:47:58 -2731.860765c -6.06  -4.26c   +22.1948
iter:  30 15:49:00 -2731.861252c -6.14  -4.39c   +22.1933
iter:  31 15:50:03 -2731.862223c -6.02  -4.50c   +22.1921
iter:  32 15:51:05 -2731.862464c -5.89  -4.27c   +22.1919
iter:  33 15:52:07 -2731.862564c -5.81  -4.32c   +22.1850
iter:  34 15:53:10 -2731.863598c -5.85  -4.31c   +22.1769
iter:  35 15:54:12 -2731.863115c -6.86  -4.07c   +22.1816
iter:  36 15:55:14 -2731.863397c -6.69  -4.16c   +22.1836
iter:  37 15:56:16 -2731.863591c -6.93  -4.02c   +22.1777
iter:  38 15:57:19 -2731.863765c -6.55  -4.00c   +22.1879
iter:  39 15:58:21 -2731.864882c -6.28  -3.94    +22.1832
iter:  40 15:59:23 -2731.862165c -5.51  -3.83    +22.1942
iter:  41 16:00:25 -2731.860806c -5.34  -4.32c   +22.1972
iter:  42 16:01:28 -2731.862910c -5.59  -4.36c   +22.1894
iter:  43 16:02:30 -2731.859190c -4.32  -4.04c   +22.2148
iter:  44 16:03:32 -2731.858422c -5.54  -3.60    +22.2081
iter:  45 16:04:35 -2731.857291c -5.49  -3.74    +22.2117
iter:  46 16:05:37 -2731.859370c -5.24  -3.68    +22.1989
iter:  47 16:06:39 -2731.861007c -5.09  -3.93    +22.1926
iter:  48 16:07:42 -2731.860920c -5.79  -4.15c   +22.1929
iter:  49 16:08:44 -2731.860885c -6.17  -4.13c   +22.1918
iter:  50 16:09:46 -2731.860730c -6.19  -4.38c   +22.1907
iter:  51 16:10:48 -2731.860875c -6.82  -4.17c   +22.1899
iter:  52 16:11:51 -2731.861576c -6.02  -4.16c   +22.1886
iter:  53 16:12:53 -2731.861184c -6.91  -4.08c   +22.1889
iter:  54 16:13:55 -2731.861528c -6.41  -4.47c   +22.1888
iter:  55 16:14:57 -2731.861800c -6.46  -4.44c   +22.1860
iter:  56 16:15:59 -2731.861282c -6.56  -4.49c   +22.1866
iter:  57 16:17:02 -2731.861301c -7.04  -4.56c   +22.1858
iter:  58 16:18:04 -2731.861628c -6.65  -4.59c   +22.1848
iter:  59 16:19:06 -2731.861549c -7.70c -5.00c   +22.1852

Converged after 59 iterations.

Dipole moment: (-2.092300, -4.701079, -0.087660) |e|*Ang

Total magnetic moment: (0.000000, 0.000000, 22.185223)
Local magnetic moments:
   0 Ni ( 0.000000,  0.000000,  0.718996)
   1 Ni ( 0.000000,  0.000000,  0.722272)
   2 Ni ( 0.000000,  0.000000,  0.674409)
   3 Ni ( 0.000000,  0.000000,  0.653849)
   4 Ni ( 0.000000,  0.000000,  0.735975)
   5 Ni ( 0.000000,  0.000000,  0.728284)
   6 Ni ( 0.000000,  0.000000,  0.675664)
   7 Ni ( 0.000000,  0.000000,  0.709871)
   8 Ni ( 0.000000,  0.000000,  0.717557)
   9 Ni ( 0.000000,  0.000000,  0.719897)
  10 Ni ( 0.000000,  0.000000,  0.713720)
  11 Ni ( 0.000000,  0.000000,  0.661267)
  12 Ni ( 0.000000,  0.000000,  0.717561)
  13 Ni ( 0.000000,  0.000000,  0.712854)
  14 Ni ( 0.000000,  0.000000,  0.671576)
  15 Ni ( 0.000000,  0.000000,  0.661277)
  16 Ni ( 0.000000,  0.000000,  0.723606)
  17 Ni ( 0.000000,  0.000000,  0.728787)
  18 Ni ( 0.000000,  0.000000,  0.714806)
  19 Ni ( 0.000000,  0.000000,  0.184949)
  20 Ni ( 0.000000,  0.000000,  0.722149)
  21 Ni ( 0.000000,  0.000000,  0.728261)
  22 Ni ( 0.000000,  0.000000,  0.675684)
  23 Ni ( 0.000000,  0.000000,  0.183994)
  24 Ni ( 0.000000,  0.000000,  0.735973)
  25 Ni ( 0.000000,  0.000000,  0.713592)
  26 Ni ( 0.000000,  0.000000,  0.736760)
  27 Ni ( 0.000000,  0.000000,  0.709877)
  28 Ni ( 0.000000,  0.000000,  0.735400)
  29 Ni ( 0.000000,  0.000000,  0.712861)
  30 Ni ( 0.000000,  0.000000,  0.671564)
  31 Ni ( 0.000000,  0.000000,  0.711938)
  32 Ni ( 0.000000,  0.000000,  0.723596)
  33 Ni ( 0.000000,  0.000000,  0.722268)
  34 Ni ( 0.000000,  0.000000,  0.674415)
  35 Ni ( 0.000000,  0.000000,  0.184876)
  36 C  ( 0.000000,  0.000000, -0.013281)

Energy contributions relative to reference atoms: (reference = -1490275.572218)

Kinetic:       +942.687645
Potential:     -818.510704
External:        +0.000000
XC:            -2858.405675
Entropy (-ST):   -2.061098
Local:           +3.397734
--------------------------
Free energy:   -2732.892098
Extrapolated:  -2731.861549

Spin contamination: 2.014993 electrons
Showing only first 2 kpts
                      Up                     Down
 Kpt  Band  Eigenvalues  Occupancy  Eigenvalues  Occupancy
  0   288     -6.01802    0.99884     -5.18412    0.17067
  0   289     -6.01128    0.99876     -5.17324    0.15582
  0   290     -6.00445    0.99867     -5.16382    0.14382
  0   291     -5.98306    0.99836     -5.14249    0.11950

  1   288     -6.09622    0.99947     -5.27029    0.32757
  1   289     -6.08342    0.99940     -5.25899    0.30318
  1   290     -6.06674    0.99929     -5.24674    0.27795
  1   291     -6.05615    0.99921     -5.22546    0.23732


Fermi level: -5.34221

No gap

Forces in eV/Ang:
  0 Ni   -0.00005    0.00011    0.09898
  1 Ni    0.00005   -0.00476   -0.11009
  2 Ni   -0.05571   -0.00149   -0.10221
  3 Ni   -0.00030    0.00007    0.00623
  4 Ni    0.01205    0.00959    0.10578
  5 Ni   -0.01846   -0.01243   -0.12146
  6 Ni   -0.03052   -0.04699   -0.10211
  7 Ni   -0.17779   -0.10448   -0.04839
  8 Ni   -0.00238    0.00138    0.09392
  9 Ni   -0.00417    0.00247   -0.10771
 10 Ni    0.00180   -0.00113    0.02096
 11 Ni    0.00028   -0.00643    0.00467
 12 Ni   -0.00235    0.00148    0.09390
 13 Ni    0.02549    0.01483   -0.15173
 14 Ni    0.05649   -0.00221   -0.10237
 15 Ni    0.00565    0.00283    0.00463
 16 Ni   -0.00152    0.00151    0.09679
 17 Ni    0.01876   -0.01078   -0.12056
 18 Ni    0.00133   -0.00091   -0.26760
 19 Ni   -0.00755   -0.19366    0.17232
 20 Ni   -0.00152    0.00095    0.09645
 21 Ni    0.00158    0.02224   -0.12143
 22 Ni    0.02538    0.04980   -0.10212
 23 Ni   -0.16264    0.09380    0.16731
 24 Ni   -0.00220   -0.01509    0.10575
 25 Ni   -0.02500    0.01450   -0.15294
 26 Ni    0.00040   -0.00030    0.04401
 27 Ni    0.00151    0.20600   -0.04839
 28 Ni   -0.01517    0.00885    0.10315
 29 Ni   -0.00005   -0.02946   -0.15182
 30 Ni    0.03009   -0.04794   -0.10238
 31 Ni    0.17738   -0.10249   -0.04845
 32 Ni   -0.00201    0.00067    0.09680
 33 Ni    0.00422    0.00245   -0.11005
 34 Ni   -0.02665    0.04887   -0.10224
 35 Ni    0.16365    0.10311    0.17235
 36 C     0.00584   -0.00253    0.77451

BFGS:    2 16:19:44    -2731.861549        0.7745
System changes: positions 

Initializing position-dependent things.

Density initialized from wave functions
                                          
                                          
                                          
                                          
                                          
                   C                      
          Ni    Ni     Ni                 
           NNi   NNi   NNi                
              Ni    Ni    Ni              
             Ni    Ni    Ni               
              Ni     Ni    Ni             
             Ni     Ni    Ni              
               Ni     Ni    Ni            
                 Ni    Ni     Ni          
          Ni    Ni    Ni                  
            Ni    Ni    Ni                
              Ni    Ni    Ni              
                                          
                                          
                                          
                                          

Positions:
   0 Ni    -0.000000    0.000000   10.000000    ( 0.0000,  0.0000,  0.6703)
   1 Ni     1.261746    0.728469   12.060422    ( 0.0000,  0.0000,  0.6693)
   2 Ni    -0.003248    1.456546   14.109513    ( 0.0000,  0.0000,  0.6697)
   3 Ni     0.000627   -0.000366   16.158919    ( 0.0000,  0.0000,  0.6722)
   4 Ni    -1.261746    2.185408   10.000000    ( 0.0000,  0.0000,  0.6703)
   5 Ni    -0.000000    2.913877   12.060422    ( 0.0000,  0.0000,  0.6693)
   6 Ni    -1.263765    3.639732   14.109444    ( 0.0000,  0.0000,  0.6697)
   7 Ni    -1.276672    2.176643   16.155433    ( 0.0000,  0.0000,  0.6722)
   8 Ni    -2.523491    4.370815   10.000000    ( 0.0000,  0.0000,  0.6703)
   9 Ni    -1.261746    5.099284   12.060422    ( 0.0000,  0.0000,  0.6693)
  10 Ni    -2.523437    5.827715   14.116947    ( 0.0000,  0.0000,  0.6697)
  11 Ni    -2.523529    4.371227   16.158872    ( 0.0000,  0.0000,  0.6722)
  12 Ni     2.523491    0.000000   10.000000    ( 0.0000,  0.0000,  0.6703)
  13 Ni     3.785237    0.728469   12.060422    ( 0.0000,  0.0000,  0.6693)
  14 Ni     2.526754    1.456507   14.109412    ( 0.0000,  0.0000,  0.6697)
  15 Ni     2.523111   -0.000180   16.158870    ( 0.0000,  0.0000,  0.6722)
  16 Ni     1.261746    2.185408   10.000000    ( 0.0000,  0.0000,  0.6703)
  17 Ni     2.523491    2.913877   12.060422    ( 0.0000,  0.0000,  0.6693)
  18 Ni     1.261808    3.642301   14.088316    ( 0.0000,  0.0000,  0.6697)
  19 Ni     1.261160    2.094113   16.139672    ( 0.0000,  0.0000,  0.6722)
  20 Ni    -0.000000    4.370815   10.000000    ( 0.0000,  0.0000,  0.6703)
  21 Ni     1.261746    5.099284   12.060422    ( 0.0000,  0.0000,  0.6693)
  22 Ni     0.001250    5.830801   14.109444    ( 0.0000,  0.0000,  0.6697)
  23 Ni    -0.078516    4.416140   16.139339    ( 0.0000,  0.0000,  0.6722)
  24 Ni     5.046982    0.000000   10.000000    ( 0.0000,  0.0000,  0.6703)
  25 Ni     6.308728    0.728469   12.060422    ( 0.0000,  0.0000,  0.6693)
  26 Ni     5.047062    1.456889   14.120002    ( 0.0000,  0.0000,  0.6697)
  27 Ni     5.047107    0.017301   16.155431    ( 0.0000,  0.0000,  0.6722)
  28 Ni     3.785237    2.185408   10.000000    ( 0.0000,  0.0000,  0.6703)
  29 Ni     5.046982    2.913877   12.060422    ( 0.0000,  0.0000,  0.6693)
  30 Ni     3.787240    3.639729   14.109411    ( 0.0000,  0.0000,  0.6697)
  31 Ni     3.800281    2.176718   16.155375    ( 0.0000,  0.0000,  0.6722)
  32 Ni     2.523491    4.370815   10.000000    ( 0.0000,  0.0000,  0.6703)
  33 Ni     3.785237    5.099284   12.060422    ( 0.0000,  0.0000,  0.6693)
  34 Ni     2.522204    5.830756   14.109512    ( 0.0000,  0.0000,  0.6697)
  35 Ni     2.602225    4.416942   16.139685    ( 0.0000,  0.0000,  0.6722)
  36 C      1.262042    3.642200   17.026391    ( 0.0000,  0.0000,  0.0000)

Unit cell:
           periodic     x           y           z      points  spacing
  1. axis:    yes    7.570474    0.000000    0.000000    36     0.1821
  2. axis:    yes   -3.785237    6.556223    0.000000    36     0.1821
  3. axis:    no     0.000000    0.000000   26.181266   144     0.1818

  Lengths:   7.570474   7.570474  26.181266
  Angles:   90.000000  90.000000 120.000000

Effective grid spacing dv^(1/3) = 0.1910

     iter     time        total  log10-change:  magmom
                         energy  eigst   dens
iter:   1 16:22:46 -2733.902958  -2.34           +22.1838
iter:   2 16:23:48 -2781.531958  -1.40  -2.23    +22.9053
iter:   3 16:24:50 -2736.190761  -1.98  -1.57    +20.4015
iter:   4 16:25:52 -2731.585529  -1.94  -2.17    +20.1823
iter:   5 16:26:54 -2732.483558  -2.53  -2.90    +20.7355
iter:   6 16:27:57 -2731.856900  -3.16  -2.41    +20.8622
iter:   7 16:28:59 -2732.131147  -3.28  -2.75    +21.4711
iter:   8 16:30:01 -2731.536499  -3.51  -2.58    +21.6879
iter:   9 16:31:03 -2731.520699  -4.17  -2.99    +21.7150
iter:  10 16:32:05 -2731.608058c -4.01  -3.04    +21.6860
iter:  11 16:33:08 -2731.835573  -2.88  -3.24    +21.8226
iter:  12 16:34:10 -2731.844695c -3.65  -3.28    +21.9198
iter:  13 16:35:12 -2731.873097c -3.82  -3.48    +22.0951
iter:  14 16:36:14 -2731.878179c -3.99  -3.54    +22.1393
iter:  15 16:37:16 -2731.905520c -4.32  -3.49    +22.1512
iter:  16 16:38:18 -2731.889156c -4.51  -3.29    +22.1449
iter:  17 16:39:21 -2731.882236c -4.66  -3.28    +22.1667
iter:  18 16:40:23 -2731.884444c -5.03  -3.75    +22.1818
iter:  19 16:41:25 -2731.893491c -5.05  -3.68    +22.1999
iter:  20 16:42:27 -2731.887827c -5.60  -3.39    +22.2012
iter:  21 16:43:29 -2731.883286c -5.03  -3.53    +22.2335
iter:  22 16:44:31 -2731.881923c -5.25  -3.93    +22.2246
iter:  23 16:45:34 -2731.882430c -6.01  -3.85    +22.2228
iter:  24 16:46:36 -2731.882942c -6.05  -4.16c   +22.2259
iter:  25 16:47:38 -2731.882981c -6.21  -4.13c   +22.2262
iter:  26 16:48:40 -2731.883295c -6.29  -4.25c   +22.2260
iter:  27 16:49:42 -2731.882796c -6.57  -3.97    +22.2247
iter:  28 16:50:44 -2731.882361c -6.47  -4.25c   +22.2233
iter:  29 16:51:47 -2731.882830c -6.93  -4.48c   +22.2233
iter:  30 16:52:49 -2731.882513c -6.30  -4.48c   +22.2233
iter:  31 16:53:51 -2731.882465c -5.80  -4.58c   +22.2207
iter:  32 16:54:53 -2731.882556c -6.34  -4.49c   +22.2206
iter:  33 16:55:55 -2731.882691c -6.58  -4.40c   +22.2203
iter:  34 16:56:58 -2731.882954c -6.73  -4.46c   +22.2196
iter:  35 16:58:00 -2731.882851c -7.23  -4.17c   +22.2192
iter:  36 16:59:02 -2731.883033c -6.45  -4.22c   +22.2158
iter:  37 17:00:04 -2731.883151c -6.80  -4.30c   +22.2157
iter:  38 17:01:06 -2731.883369c -7.15  -4.30c   +22.2149
iter:  39 17:02:09 -2731.883500c -5.97  -4.26c   +22.2151
iter:  40 17:03:11 -2731.883579c -6.31  -3.93    +22.2139
iter:  41 17:04:13 -2731.883407c -6.86  -4.31c   +22.2159
iter:  42 17:05:15 -2731.883144c -6.94  -4.38c   +22.2149
iter:  43 17:06:17 -2731.882758c -6.49  -4.57c   +22.2150
iter:  44 17:07:20 -2731.882981c -6.87  -4.37c   +22.2142
iter:  45 17:08:22 -2731.882945c -7.06  -4.76c   +22.2148
iter:  46 17:09:24 -2731.882739c -7.17  -4.66c   +22.2161
iter:  47 17:10:26 -2731.883016c -7.71c -4.83c   +22.2160

Converged after 47 iterations.

Dipole moment: (-1.884454, -4.815595, -0.093889) |e|*Ang

Total magnetic moment: (0.000000, 0.000000, 22.216011)
Local magnetic moments:
   0 Ni ( 0.000000,  0.000000,  0.728650)
   1 Ni ( 0.000000,  0.000000,  0.727398)
   2 Ni ( 0.000000,  0.000000,  0.672129)
   3 Ni ( 0.000000,  0.000000,  0.644567)
   4 Ni ( 0.000000,  0.000000,  0.742871)
   5 Ni ( 0.000000,  0.000000,  0.732454)
   6 Ni ( 0.000000,  0.000000,  0.673348)
   7 Ni ( 0.000000,  0.000000,  0.696072)
   8 Ni ( 0.000000,  0.000000,  0.726818)
   9 Ni ( 0.000000,  0.000000,  0.724909)
  10 Ni ( 0.000000,  0.000000,  0.711239)
  11 Ni ( 0.000000,  0.000000,  0.651684)
  12 Ni ( 0.000000,  0.000000,  0.726828)
  13 Ni ( 0.000000,  0.000000,  0.717119)
  14 Ni ( 0.000000,  0.000000,  0.669160)
  15 Ni ( 0.000000,  0.000000,  0.651699)
  16 Ni ( 0.000000,  0.000000,  0.730171)
  17 Ni ( 0.000000,  0.000000,  0.732660)
  18 Ni ( 0.000000,  0.000000,  0.715077)
  19 Ni ( 0.000000,  0.000000,  0.190737)
  20 Ni ( 0.000000,  0.000000,  0.729014)
  21 Ni ( 0.000000,  0.000000,  0.732429)
  22 Ni ( 0.000000,  0.000000,  0.673365)
  23 Ni ( 0.000000,  0.000000,  0.189539)
  24 Ni ( 0.000000,  0.000000,  0.742870)
  25 Ni ( 0.000000,  0.000000,  0.718079)
  26 Ni ( 0.000000,  0.000000,  0.731147)
  27 Ni ( 0.000000,  0.000000,  0.696072)
  28 Ni ( 0.000000,  0.000000,  0.741799)
  29 Ni ( 0.000000,  0.000000,  0.717121)
  30 Ni ( 0.000000,  0.000000,  0.669146)
  31 Ni ( 0.000000,  0.000000,  0.697924)
  32 Ni ( 0.000000,  0.000000,  0.730156)
  33 Ni ( 0.000000,  0.000000,  0.727389)
  34 Ni ( 0.000000,  0.000000,  0.672130)
  35 Ni ( 0.000000,  0.000000,  0.190636)
  36 C  ( 0.000000,  0.000000, -0.014091)

Energy contributions relative to reference atoms: (reference = -1490275.572218)

Kinetic:       +940.705906
Potential:     -816.931028
External:        +0.000000
XC:            -2858.037978
Entropy (-ST):   -2.061196
Local:           +3.410683
--------------------------
Free energy:   -2732.913613
Extrapolated:  -2731.883016

Spin contamination: 2.017508 electrons
Showing only first 2 kpts
                      Up                     Down
 Kpt  Band  Eigenvalues  Occupancy  Eigenvalues  Occupancy
  0   288     -6.02356    0.99883     -5.19075    0.17060
  0   289     -6.01790    0.99876     -5.18072    0.15687
  0   290     -6.00974    0.99865     -5.17233    0.14610
  0   291     -5.98842    0.99833     -5.14920    0.11953

  1   288     -6.10168    0.99946     -5.27551    0.32438
  1   289     -6.08931    0.99939     -5.26431    0.30033
  1   290     -6.07475    0.99930     -5.25277    0.27664
  1   291     -6.06146    0.99920     -5.23101    0.23527


Fermi level: -5.34889

No gap

Forces in eV/Ang:
  0 Ni   -0.00070    0.00049    0.09758
  1 Ni   -0.00014   -0.00647   -0.11588
  2 Ni   -0.03533    0.00502   -0.07800
  3 Ni   -0.00423    0.00232   -0.00100
  4 Ni    0.01161    0.00906    0.10322
  5 Ni   -0.02405   -0.01568   -0.14174
  6 Ni   -0.01388   -0.03293   -0.07795
  7 Ni   -0.11628   -0.06897   -0.04411
  8 Ni   -0.00244    0.00070    0.09261
  9 Ni   -0.00582    0.00342   -0.11334
 10 Ni    0.00121   -0.00078    0.01276
 11 Ni    0.00061   -0.01089   -0.00215
 12 Ni   -0.00178    0.00187    0.09258
 13 Ni    0.02996    0.01757   -0.16183
 14 Ni    0.03547    0.00502   -0.07790
 15 Ni    0.00967    0.00476   -0.00219
 16 Ni   -0.00142    0.00223    0.09458
 17 Ni    0.02423   -0.01394   -0.14085
 18 Ni    0.00116   -0.00080   -0.15684
 19 Ni   -0.00517    0.15780    0.26190
 20 Ni   -0.00067    0.00047    0.09426
 21 Ni    0.00159    0.02870   -0.14171
 22 Ni    0.02152    0.02835   -0.07796
 23 Ni    0.14154   -0.08182    0.25838
 24 Ni   -0.00197   -0.01445    0.10319
 25 Ni   -0.02943    0.01705   -0.16296
 26 Ni    0.00023   -0.00020    0.00118
 27 Ni    0.00151    0.13497   -0.04410
 28 Ni   -0.01461    0.00852    0.10062
 29 Ni   -0.00019   -0.03470   -0.16192
 30 Ni    0.01330   -0.03336   -0.07791
 31 Ni    0.11509   -0.06653   -0.04438
 32 Ni   -0.00259    0.00022    0.09459
 33 Ni    0.00560    0.00347   -0.11585
 34 Ni   -0.02210    0.02795   -0.07803
 35 Ni   -0.13923   -0.07451    0.26175
 36 C     0.00328   -0.00150    0.31306

BFGS:    3 17:11:04    -2731.883016        0.3131
System changes: positions 

Initializing position-dependent things.

Density initialized from wave functions
                                          
                                          
                                          
                                          
                                          
                   C                      
          Ni    Ni     Ni                 
           NNi   NNi   NNi                
              Ni    Ni    Ni              
             Ni    Ni    Ni               
              Ni     Ni    Ni             
             Ni     Ni    Ni              
               Ni     Ni    Ni            
                 Ni    Ni     Ni          
          Ni    Ni    Ni                  
            Ni    Ni    Ni                
              Ni    Ni    Ni              
                                          
                                          
                                          
                                          

Positions:
   0 Ni    -0.000000    0.000000   10.000000    ( 0.0000,  0.0000,  0.6703)
   1 Ni     1.261746    0.728469   12.060422    ( 0.0000,  0.0000,  0.6693)
   2 Ni    -0.004513    1.456625   14.106940    ( 0.0000,  0.0000,  0.6697)
   3 Ni     0.000561   -0.000331   16.158939    ( 0.0000,  0.0000,  0.6722)
   4 Ni    -1.261746    2.185408   10.000000    ( 0.0000,  0.0000,  0.6703)
   5 Ni    -0.000000    2.913877   12.060422    ( 0.0000,  0.0000,  0.6693)
   6 Ni    -1.264355    3.638606   14.106872    ( 0.0000,  0.0000,  0.6697)
   7 Ni    -1.280947    2.174120   16.154030    ( 0.0000,  0.0000,  0.6722)
   8 Ni    -2.523491    4.370815   10.000000    ( 0.0000,  0.0000,  0.6703)
   9 Ni    -1.261746    5.099284   12.060422    ( 0.0000,  0.0000,  0.6693)
  10 Ni    -2.523395    5.827688   14.117428    ( 0.0000,  0.0000,  0.6697)
  11 Ni    -2.523515    4.370970   16.158853    ( 0.0000,  0.0000,  0.6722)
  12 Ni     2.523491    0.000000   10.000000    ( 0.0000,  0.0000,  0.6703)
  13 Ni     3.785237    0.728469   12.060422    ( 0.0000,  0.0000,  0.6693)
  14 Ni     2.528031    1.456577   14.106837    ( 0.0000,  0.0000,  0.6697)
  15 Ni     2.523339   -0.000068   16.158850    ( 0.0000,  0.0000,  0.6722)
  16 Ni     1.261746    2.185408   10.000000    ( 0.0000,  0.0000,  0.6703)
  17 Ni     2.523491    2.913877   12.060422    ( 0.0000,  0.0000,  0.6693)
  18 Ni     1.261844    3.642276   14.082099    ( 0.0000,  0.0000,  0.6697)
  19 Ni     1.260975    2.092625   16.145631    ( 0.0000,  0.0000,  0.6722)
  20 Ni    -0.000000    4.370815   10.000000    ( 0.0000,  0.0000,  0.6703)
  21 Ni     1.261746    5.099284   12.060422    ( 0.0000,  0.0000,  0.6693)
  22 Ni     0.001929    5.831871   14.106872    ( 0.0000,  0.0000,  0.6697)
  23 Ni    -0.079646    4.416790   16.145175    ( 0.0000,  0.0000,  0.6722)
  24 Ni     5.046982    0.000000   10.000000    ( 0.0000,  0.0000,  0.6703)
  25 Ni     6.308728    0.728469   12.060422    ( 0.0000,  0.0000,  0.6693)
  26 Ni     5.047071    1.456882   14.120545    ( 0.0000,  0.0000,  0.6697)
  27 Ni     5.047151    0.022259   16.154028    ( 0.0000,  0.0000,  0.6722)
  28 Ni     3.785237    2.185408   10.000000    ( 0.0000,  0.0000,  0.6703)
  29 Ni     5.046982    2.913877   12.060422    ( 0.0000,  0.0000,  0.6693)
  30 Ni     3.787814    3.638584   14.106836    ( 0.0000,  0.0000,  0.6697)
  31 Ni     3.804534    2.174260   16.153965    ( 0.0000,  0.0000,  0.6722)
  32 Ni     2.523491    4.370815   10.000000    ( 0.0000,  0.0000,  0.6703)
  33 Ni     3.785237    5.099284   12.060422    ( 0.0000,  0.0000,  0.6693)
  34 Ni     2.521500    5.831809   14.106939    ( 0.0000,  0.0000,  0.6697)
  35 Ni     2.603418    4.417841   16.145642    ( 0.0000,  0.0000,  0.6722)
  36 C      1.262165    3.642146   17.043656    ( 0.0000,  0.0000,  0.0000)

Unit cell:
           periodic     x           y           z      points  spacing
  1. axis:    yes    7.570474    0.000000    0.000000    36     0.1821
  2. axis:    yes   -3.785237    6.556223    0.000000    36     0.1821
  3. axis:    no     0.000000    0.000000   26.181266   144     0.1818

  Lengths:   7.570474   7.570474  26.181266
  Angles:   90.000000  90.000000 120.000000

Effective grid spacing dv^(1/3) = 0.1910

     iter     time        total  log10-change:  magmom
                         energy  eigst   dens
iter:   1 17:14:05 -2732.001651  -2.79           +22.2159
iter:   2 17:15:08 -2733.774616  -2.78  -2.92    +22.2989
iter:   3 17:16:10 -2731.899873  -3.31  -2.26    +22.3347
iter:   4 17:17:13 -2731.904091  -4.00  -3.35    +22.2547
iter:   5 17:18:15 -2731.897813c -4.57  -3.25    +22.2593
iter:   6 17:19:18 -2731.898571c -4.32  -3.43    +22.2440
iter:   7 17:20:20 -2731.896054c -4.76  -3.51    +22.2419
iter:   8 17:21:23 -2731.894855c -5.00  -3.73    +22.2318
iter:   9 17:22:26 -2731.894895c -5.64  -3.81    +22.2264
iter:  10 17:23:28 -2731.894307c -6.04  -4.11c   +22.2253
iter:  11 17:24:31 -2731.896407c -5.83  -4.15c   +22.2245
iter:  12 17:25:33 -2731.894880c -6.66  -3.95    +22.2283
iter:  13 17:26:36 -2731.895053c -6.85  -4.30c   +22.2292
iter:  14 17:27:38 -2731.894779c -6.59  -4.27c   +22.2302
iter:  15 17:28:41 -2731.894679c -6.95  -4.56c   +22.2318
iter:  16 17:29:43 -2731.894517c -7.05  -4.59c   +22.2314
iter:  17 17:30:46 -2731.894914c -6.91  -4.69c   +22.2313
iter:  18 17:31:48 -2731.894693c -7.22  -4.55c   +22.2315
iter:  19 17:32:51 -2731.894597c -7.56c -4.82c   +22.2327

Converged after 19 iterations.

Dipole moment: (-1.683511, -4.926449, -0.098630) |e|*Ang

Total magnetic moment: (0.000000, 0.000000, 22.232701)
Local magnetic moments:
   0 Ni ( 0.000000,  0.000000,  0.725846)
   1 Ni ( 0.000000,  0.000000,  0.726846)
   2 Ni ( 0.000000,  0.000000,  0.674139)
   3 Ni ( 0.000000,  0.000000,  0.648463)
   4 Ni ( 0.000000,  0.000000,  0.738555)
   5 Ni ( 0.000000,  0.000000,  0.731504)
   6 Ni ( 0.000000,  0.000000,  0.675461)
   7 Ni ( 0.000000,  0.000000,  0.699973)
   8 Ni ( 0.000000,  0.000000,  0.724654)
   9 Ni ( 0.000000,  0.000000,  0.724557)
  10 Ni ( 0.000000,  0.000000,  0.714265)
  11 Ni ( 0.000000,  0.000000,  0.656033)
  12 Ni ( 0.000000,  0.000000,  0.724659)
  13 Ni ( 0.000000,  0.000000,  0.715413)
  14 Ni ( 0.000000,  0.000000,  0.671530)
  15 Ni ( 0.000000,  0.000000,  0.656044)
  16 Ni ( 0.000000,  0.000000,  0.728159)
  17 Ni ( 0.000000,  0.000000,  0.731812)
  18 Ni ( 0.000000,  0.000000,  0.716973)
  19 Ni ( 0.000000,  0.000000,  0.193611)
  20 Ni ( 0.000000,  0.000000,  0.727101)
  21 Ni ( 0.000000,  0.000000,  0.731480)
  22 Ni ( 0.000000,  0.000000,  0.675476)
  23 Ni ( 0.000000,  0.000000,  0.192398)
  24 Ni ( 0.000000,  0.000000,  0.738552)
  25 Ni ( 0.000000,  0.000000,  0.715966)
  26 Ni ( 0.000000,  0.000000,  0.733224)
  27 Ni ( 0.000000,  0.000000,  0.699968)
  28 Ni ( 0.000000,  0.000000,  0.737985)
  29 Ni ( 0.000000,  0.000000,  0.715421)
  30 Ni ( 0.000000,  0.000000,  0.671515)
  31 Ni ( 0.000000,  0.000000,  0.702483)
  32 Ni ( 0.000000,  0.000000,  0.728147)
  33 Ni ( 0.000000,  0.000000,  0.726839)
  34 Ni ( 0.000000,  0.000000,  0.674138)
  35 Ni ( 0.000000,  0.000000,  0.193491)
  36 C  ( 0.000000,  0.000000, -0.014568)

Energy contributions relative to reference atoms: (reference = -1490275.572218)

Kinetic:       +940.036637
Potential:     -816.451200
External:        +0.000000
XC:            -2857.856218
Entropy (-ST):   -2.060377
Local:           +3.406372
--------------------------
Free energy:   -2732.924786
Extrapolated:  -2731.894597

Spin contamination: 2.019295 electrons
Showing only first 2 kpts
                      Up                     Down
 Kpt  Band  Eigenvalues  Occupancy  Eigenvalues  Occupancy
  0   288     -6.02914    0.99883     -5.19567    0.17049
  0   289     -6.02324    0.99876     -5.18571    0.15685
  0   290     -6.01500    0.99866     -5.17732    0.14608
  0   291     -5.99338    0.99833     -5.15408    0.11940

  1   288     -6.10730    0.99947     -5.28044    0.32421
  1   289     -6.09375    0.99939     -5.26847    0.29855
  1   290     -6.07932    0.99929     -5.25635    0.27380
  1   291     -6.06700    0.99920     -5.23492    0.23332


Fermi level: -5.35389

No gap

Forces in eV/Ang:
  0 Ni    0.00019   -0.00002    0.09870
  1 Ni   -0.00020   -0.00903   -0.11937
  2 Ni   -0.01081    0.00936   -0.03839
  3 Ni   -0.00539    0.00299   -0.00417
  4 Ni    0.01276    0.00983    0.10346
  5 Ni   -0.02741   -0.01759   -0.15931
  6 Ni    0.00266   -0.01437   -0.03833
  7 Ni   -0.06636   -0.04022   -0.03473
  8 Ni   -0.00245    0.00185    0.09357
  9 Ni   -0.00785    0.00460   -0.11688
 10 Ni    0.00093   -0.00062    0.01455
 11 Ni    0.00091   -0.01177   -0.00498
 12 Ni   -0.00278    0.00130    0.09355
 13 Ni    0.03240    0.01895   -0.16924
 14 Ni    0.01084    0.00954   -0.03785
 15 Ni    0.01058    0.00494   -0.00502
 16 Ni   -0.00154    0.00317    0.09552
 17 Ni    0.02763   -0.01590   -0.15852
 18 Ni    0.00091   -0.00065   -0.07291
 19 Ni   -0.00361    0.27172    0.26103
 20 Ni   -0.00002    0.00009    0.09513
 21 Ni    0.00158    0.03256   -0.15928
 22 Ni    0.01370    0.00475   -0.03835
 23 Ni    0.23963   -0.13845    0.25803
 24 Ni   -0.00206   -0.01583    0.10344
 25 Ni   -0.03169    0.01835   -0.17046
 26 Ni    0.00007   -0.00012   -0.02315
 27 Ni    0.00157    0.07738   -0.03471
 28 Ni   -0.01582    0.00922    0.10066
 29 Ni   -0.00017   -0.03750   -0.16933
 30 Ni   -0.00293   -0.01430   -0.03787
 31 Ni    0.06435   -0.03725   -0.03464
 32 Ni   -0.00346   -0.00014    0.09552
 33 Ni    0.00779    0.00480   -0.11933
 34 Ni   -0.01360    0.00454   -0.03842
 35 Ni   -0.23690   -0.13271    0.26078
 36 C     0.00324   -0.00164    0.15169

BFGS:    4 17:33:28    -2731.894597        0.3784
System changes: positions 

Initializing position-dependent things.

Density initialized from wave functions
                                          
                                          
                                          
                                          
                                          
                   C                      
          Ni    Ni     Ni                 
           NNi    Ni    Ni                
              Ni Ni Ni Ni Ni              
             Ni    Ni    Ni               
              Ni     Ni    Ni             
             Ni     Ni    Ni              
               Ni     Ni    Ni            
                 Ni    Ni     Ni          
          Ni    Ni    Ni                  
            Ni    Ni    Ni                
              Ni    Ni    Ni              
                                          
                                          
                                          
                                          

Positions:
   0 Ni    -0.000000    0.000000   10.000000    ( 0.0000,  0.0000,  0.6703)
   1 Ni     1.261746    0.728469   12.060422    ( 0.0000,  0.0000,  0.6693)
   2 Ni    -0.006714    1.457013   14.102008    ( 0.0000,  0.0000,  0.6697)
   3 Ni     0.000323   -0.000203   16.158855    ( 0.0000,  0.0000,  0.6722)
   4 Ni    -1.261746    2.185408   10.000000    ( 0.0000,  0.0000,  0.6703)
   5 Ni    -0.000000    2.913877   12.060422    ( 0.0000,  0.0000,  0.6693)
   6 Ni    -1.265160    3.636507   14.101943    ( 0.0000,  0.0000,  0.6697)
   7 Ni    -1.289510    2.169036   16.150883    ( 0.0000,  0.0000,  0.6722)
   8 Ni    -2.523491    4.370815   10.000000    ( 0.0000,  0.0000,  0.6703)
   9 Ni    -1.261746    5.099284   12.060422    ( 0.0000,  0.0000,  0.6693)
  10 Ni    -2.523302    5.827628   14.118659    ( 0.0000,  0.0000,  0.6697)
  11 Ni    -2.523467    4.370255   16.158687    ( 0.0000,  0.0000,  0.6722)
  12 Ni     2.523491    0.000000   10.000000    ( 0.0000,  0.0000,  0.6703)
  13 Ni     3.785237    0.728469   12.060422    ( 0.0000,  0.0000,  0.6693)
  14 Ni     2.530251    1.456956   14.101917    ( 0.0000,  0.0000,  0.6697)
  15 Ni     2.523976    0.000236   16.158681    ( 0.0000,  0.0000,  0.6722)
  16 Ni     1.261746    2.185408   10.000000    ( 0.0000,  0.0000,  0.6703)
  17 Ni     2.523491    2.913877   12.060422    ( 0.0000,  0.0000,  0.6693)
  18 Ni     1.261924    3.642220   14.070247    ( 0.0000,  0.0000,  0.6697)
  19 Ni     1.260582    2.096196   16.161590    ( 0.0000,  0.0000,  0.6722)
  20 Ni    -0.000000    4.370815   10.000000    ( 0.0000,  0.0000,  0.6703)
  21 Ni     1.261746    5.099284   12.060422    ( 0.0000,  0.0000,  0.6693)
  22 Ni     0.003339    5.833608   14.101941    ( 0.0000,  0.0000,  0.6697)
  23 Ni    -0.076183    4.414782   16.160852    ( 0.0000,  0.0000,  0.6722)
  24 Ni     5.046982    0.000000   10.000000    ( 0.0000,  0.0000,  0.6703)
  25 Ni     6.308728    0.728469   12.060422    ( 0.0000,  0.0000,  0.6693)
  26 Ni     5.047087    1.456867   14.120787    ( 0.0000,  0.0000,  0.6697)
  27 Ni     5.047266    0.032201   16.150882    ( 0.0000,  0.0000,  0.6722)
  28 Ni     3.785237    2.185408   10.000000    ( 0.0000,  0.0000,  0.6703)
  29 Ni     5.046982    2.913877   12.060422    ( 0.0000,  0.0000,  0.6693)
  30 Ni     3.788590    3.636461   14.101915    ( 0.0000,  0.0000,  0.6697)
  31 Ni     3.813003    2.169364   16.150813    ( 0.0000,  0.0000,  0.6722)
  32 Ni     2.523491    4.370815   10.000000    ( 0.0000,  0.0000,  0.6703)
  33 Ni     3.785237    5.099284   12.060422    ( 0.0000,  0.0000,  0.6693)
  34 Ni     2.520056    5.833510   14.102004    ( 0.0000,  0.0000,  0.6697)
  35 Ni     2.600129    4.416389   16.161590    ( 0.0000,  0.0000,  0.6722)
  36 C      1.262461    3.642009   17.077211    ( 0.0000,  0.0000,  0.0000)

Unit cell:
           periodic     x           y           z      points  spacing
  1. axis:    yes    7.570474    0.000000    0.000000    36     0.1821
  2. axis:    yes   -3.785237    6.556223    0.000000    36     0.1821
  3. axis:    no     0.000000    0.000000   26.181266   144     0.1818

  Lengths:   7.570474   7.570474  26.181266
  Angles:   90.000000  90.000000 120.000000

Effective grid spacing dv^(1/3) = 0.1910

     iter     time        total  log10-change:  magmom
                         energy  eigst   dens
iter:   1 17:36:31 -2733.871211  -2.11           +22.2313
iter:   2 17:37:34 -2779.603849  -1.39  -2.25    +22.7476
iter:   3 17:38:37 -2737.102634  -2.05  -1.58    +20.3160
iter:   4 17:39:40 -2732.322389  -2.03  -2.12    +20.1565
iter:   5 17:40:42 -2731.673171  -2.54  -2.54    +20.9808
iter:   6 17:41:45 -2731.743243  -3.26  -2.77    +21.1680
iter:   7 17:42:48 -2731.747829c -3.53  -2.78    +21.7394
iter:   8 17:43:51 -2731.765729c -3.39  -2.97    +21.8701
iter:   9 17:44:53 -2731.752083c -3.91  -3.28    +21.7669
iter:  10 17:45:56 -2731.689342c -4.06  -2.99    +21.9124
iter:  11 17:46:59 -2731.776302c -3.65  -2.99    +21.8702
iter:  12 17:48:02 -2731.895699c -3.42  -3.41    +22.0068
iter:  13 17:49:04 -2731.906556c -4.03  -3.29    +22.0494
iter:  14 17:50:07 -2732.032428c -3.32  -3.28    +22.2695
iter:  15 17:51:10 -2731.955395c -4.03  -2.97    +22.0927
iter:  16 17:52:13 -2732.155485c -3.29  -3.11    +22.2822
iter:  17 17:53:16 -2732.089806c -4.56  -2.80    +22.2025
iter:  18 17:54:18 -2732.112885c -4.10  -2.88    +22.1967
iter:  19 17:55:21 -2732.296423c -3.17  -2.83    +22.1882
iter:  20 17:56:24 -2732.117948c -3.77  -2.65    +22.2256
iter:  21 17:57:27 -2732.065889c -4.14  -2.81    +22.2358
iter:  22 17:58:30 -2732.037141c -3.94  -2.80    +22.2378
iter:  23 17:59:32 -2732.139426c -4.29  -2.79    +22.1881
iter:  24 18:00:35 -2732.152903c -4.37  -2.72    +22.1701
iter:  25 18:01:38 -2731.983626c -3.92  -2.69    +22.1820
iter:  26 18:02:41 -2731.998798c -4.40  -2.75    +22.1327
iter:  27 18:03:43 -2731.706477  -3.34  -2.71    +22.0255
iter:  28 18:04:46 -2731.638052  -3.46  -2.80    +22.0624
iter:  29 18:05:49 -2732.116527  -3.32  -2.91    +21.7060
iter:  30 18:06:52 -2731.955970  -3.29  -2.59    +21.7415
iter:  31 18:07:54 -2731.765637  -3.85  -2.77    +21.9187
iter:  32 18:08:57 -2731.798590c -3.80  -3.27    +21.8990
iter:  33 18:10:00 -2731.849709c -4.00  -3.29    +21.8765
iter:  34 18:11:03 -2731.888865c -3.77  -3.34    +21.9799
iter:  35 18:12:06 -2731.906031c -4.24  -3.47    +22.0245
iter:  36 18:13:08 -2731.908223c -4.37  -3.28    +22.0885
iter:  37 18:14:11 -2731.917645c -4.51  -3.35    +22.0894
iter:  38 18:15:13 -2731.918827c -4.89  -3.23    +22.1351
iter:  39 18:16:15 -2731.923609c -4.85  -3.26    +22.1964
iter:  40 18:17:18 -2731.922394c -5.35  -3.24    +22.2186
iter:  41 18:18:20 -2731.919940c -6.25  -3.25    +22.2152
iter:  42 18:19:22 -2731.906159c -4.60  -3.28    +22.2118
iter:  43 18:20:24 -2731.908940c -5.06  -3.47    +22.2125
iter:  44 18:21:26 -2731.911269c -5.36  -3.54    +22.2190
iter:  45 18:22:28 -2731.912643c -5.63  -3.47    +22.2040
iter:  46 18:23:31 -2731.912075c -5.30  -3.47    +22.1991
iter:  47 18:24:33 -2731.914014c -5.70  -3.58    +22.2022
iter:  48 18:25:35 -2731.913605c -5.45  -3.59    +22.2063
iter:  49 18:26:38 -2731.910964c -5.98  -3.75    +22.2110
iter:  50 18:27:40 -2731.913308c -5.04  -3.75    +22.1985
iter:  51 18:28:42 -2731.913815c -5.04  -3.93    +22.2044
iter:  52 18:29:45 -2731.914103c -5.72  -3.54    +22.2075
iter:  53 18:30:47 -2731.915369c -5.91  -3.57    +22.2104
iter:  54 18:31:50 -2731.914098c -6.09  -3.55    +22.2168
iter:  55 18:32:52 -2731.908646c -5.85  -3.58    +22.2181
iter:  56 18:33:54 -2731.910072c -5.07  -3.78    +22.2187
iter:  57 18:34:57 -2731.909266c -5.43  -3.93    +22.2095
iter:  58 18:35:59 -2731.910747c -5.40  -3.88    +22.2109
iter:  59 18:37:02 -2731.911992c -5.26  -3.90    +22.2230
iter:  60 18:38:04 -2731.913008c -5.23  -4.05c   +22.2279
iter:  61 18:39:06 -2731.913337c -5.46  -4.05c   +22.2344
iter:  62 18:40:09 -2731.914701c -5.32  -4.03c   +22.2413
iter:  63 18:41:11 -2731.913730c -5.72  -4.02c   +22.2395
iter:  64 18:42:14 -2731.913626c -5.85  -4.08c   +22.2409
iter:  65 18:43:16 -2731.913718c -6.43  -4.10c   +22.2417
iter:  66 18:44:18 -2731.913902c -6.21  -4.07c   +22.2435
iter:  67 18:45:21 -2731.914390c -6.37  -4.03c   +22.2429
iter:  68 18:46:23 -2731.914142c -6.25  -4.14c   +22.2441
iter:  69 18:47:26 -2731.913480c -6.24  -3.98    +22.2438
iter:  70 18:48:28 -2731.913080c -6.37  -4.02c   +22.2437
iter:  71 18:49:31 -2731.913352c -6.84  -4.26c   +22.2449
iter:  72 18:50:33 -2731.913373c -7.44c -4.31c   +22.2473

Converged after 72 iterations.

Dipole moment: (-1.261008, -5.158533, -0.103165) |e|*Ang

Total magnetic moment: (0.000000, 0.000000, 22.247295)
Local magnetic moments:
   0 Ni ( 0.000000,  0.000000,  0.716156)
   1 Ni ( 0.000000,  0.000000,  0.721717)
   2 Ni ( 0.000000,  0.000000,  0.681147)
   3 Ni ( 0.000000,  0.000000,  0.660177)
   4 Ni ( 0.000000,  0.000000,  0.729034)
   5 Ni ( 0.000000,  0.000000,  0.727366)
   6 Ni ( 0.000000,  0.000000,  0.682145)
   7 Ni ( 0.000000,  0.000000,  0.713934)
   8 Ni ( 0.000000,  0.000000,  0.714714)
   9 Ni ( 0.000000,  0.000000,  0.719048)
  10 Ni ( 0.000000,  0.000000,  0.719267)
  11 Ni ( 0.000000,  0.000000,  0.667161)
  12 Ni ( 0.000000,  0.000000,  0.714721)
  13 Ni ( 0.000000,  0.000000,  0.711328)
  14 Ni ( 0.000000,  0.000000,  0.678590)
  15 Ni ( 0.000000,  0.000000,  0.667177)
  16 Ni ( 0.000000,  0.000000,  0.718465)
  17 Ni ( 0.000000,  0.000000,  0.727715)
  18 Ni ( 0.000000,  0.000000,  0.725271)
  19 Ni ( 0.000000,  0.000000,  0.195843)
  20 Ni ( 0.000000,  0.000000,  0.717322)
  21 Ni ( 0.000000,  0.000000,  0.727339)
  22 Ni ( 0.000000,  0.000000,  0.682159)
  23 Ni ( 0.000000,  0.000000,  0.194440)
  24 Ni ( 0.000000,  0.000000,  0.729030)
  25 Ni ( 0.000000,  0.000000,  0.712084)
  26 Ni ( 0.000000,  0.000000,  0.740711)
  27 Ni ( 0.000000,  0.000000,  0.713925)
  28 Ni ( 0.000000,  0.000000,  0.728331)
  29 Ni ( 0.000000,  0.000000,  0.711341)
  30 Ni ( 0.000000,  0.000000,  0.678571)
  31 Ni ( 0.000000,  0.000000,  0.716089)
  32 Ni ( 0.000000,  0.000000,  0.718448)
  33 Ni ( 0.000000,  0.000000,  0.721710)
  34 Ni ( 0.000000,  0.000000,  0.681142)
  35 Ni ( 0.000000,  0.000000,  0.195694)
  36 C  ( 0.000000,  0.000000, -0.015376)

Energy contributions relative to reference atoms: (reference = -1490275.572218)

Kinetic:       +938.603993
Potential:     -815.347280
External:        +0.000000
XC:            -2857.556681
Entropy (-ST):   -2.056576
Local:           +3.414883
--------------------------
Free energy:   -2732.941661
Extrapolated:  -2731.913373

Spin contamination: 2.022035 electrons
Showing only first 2 kpts
                      Up                     Down
 Kpt  Band  Eigenvalues  Occupancy  Eigenvalues  Occupancy
  0   288     -6.03921    0.99885     -5.20369    0.17022
  0   289     -6.03257    0.99878     -5.19396    0.15692
  0   290     -6.02462    0.99868     -5.18437    0.14465
  0   291     -6.00203    0.99834     -5.16181    0.11891

  1   288     -6.11765    0.99948     -5.28807    0.32296
  1   289     -6.10078    0.99938     -5.27611    0.29736
  1   290     -6.08543    0.99928     -5.26205    0.26885
  1   291     -6.07829    0.99923     -5.24068    0.22897


Fermi level: -5.36210

No gap

Forces in eV/Ang:
  0 Ni   -0.00119    0.00075    0.09520
  1 Ni    0.00021   -0.01541   -0.13365
  2 Ni    0.04619    0.02209    0.04436
  3 Ni   -0.00234    0.00127   -0.01986
  4 Ni    0.00708    0.00722    0.09820
  5 Ni   -0.03809   -0.02343   -0.19826
  6 Ni    0.04299    0.02776    0.04463
  7 Ni    0.04863    0.02682   -0.02336
  8 Ni   -0.00235   -0.00033    0.08984
  9 Ni   -0.01334    0.00776   -0.13146
 10 Ni    0.00040   -0.00032    0.01109
 11 Ni    0.00136   -0.00760   -0.02058
 12 Ni   -0.00084    0.00230    0.08983
 13 Ni    0.03856    0.02306   -0.19905
 14 Ni   -0.04598    0.02277    0.04513
 15 Ni    0.00716    0.00249   -0.02063
 16 Ni   -0.00105    0.00068    0.08923
 17 Ni    0.03864   -0.02226   -0.19742
 18 Ni    0.00043   -0.00035    0.08182
 19 Ni   -0.00016    0.33098    0.18383
 20 Ni   -0.00257    0.00157    0.08871
 21 Ni    0.00129    0.04471   -0.19824
 22 Ni   -0.00263   -0.05125    0.04462
 23 Ni    0.28964   -0.16733    0.18261
 24 Ni   -0.00262   -0.00962    0.09818
 25 Ni   -0.03845    0.02225   -0.19997
 26 Ni   -0.00075    0.00035   -0.07554
 27 Ni    0.00100   -0.05567   -0.02334
 28 Ni   -0.01056    0.00619    0.09524
 29 Ni   -0.00065   -0.04489   -0.19915
 30 Ni   -0.04279    0.02828    0.04508
 31 Ni   -0.05147    0.02961   -0.02352
 32 Ni   -0.00105    0.00069    0.08923
 33 Ni    0.01351    0.00761   -0.13362
 34 Ni    0.00388   -0.05118    0.04430
 35 Ni   -0.28628   -0.16520    0.18345
 36 C     0.00113   -0.00085   -0.01190

BFGS:    5 18:51:11    -2731.913373        0.3811
System changes: positions 

Initializing position-dependent things.

Density initialized from wave functions
                                          
                                          
                                          
                                          
                                          
                   C                      
          Ni    Ni     Ni                 
            Ni    Ni    Ni                
           Ni Ni Ni Ni Ni Ni              
             Ni    Ni    Ni               
              Ni     Ni    Ni             
             Ni     Ni    Ni              
               Ni     Ni    Ni            
                 Ni    Ni     Ni          
          Ni    Ni    Ni                  
            Ni    Ni    Ni                
              Ni    Ni    Ni              
                                          
                                          
                                          
                                          

Positions:
   0 Ni    -0.000000    0.000000   10.000000    ( 0.0000,  0.0000,  0.6703)
   1 Ni     1.261746    0.728469   12.060422    ( 0.0000,  0.0000,  0.6693)
   2 Ni    -0.007064    1.457621   14.100145    ( 0.0000,  0.0000,  0.6697)
   3 Ni     0.000169   -0.000119   16.158438    ( 0.0000,  0.0000,  0.6722)
   4 Ni    -1.261746    2.185408   10.000000    ( 0.0000,  0.0000,  0.6703)
   5 Ni    -0.000000    2.913877   12.060422    ( 0.0000,  0.0000,  0.6693)
   6 Ni    -1.264818    3.635882   14.100088    ( 0.0000,  0.0000,  0.6697)
   7 Ni    -1.293191    2.166817   16.148767    ( 0.0000,  0.0000,  0.6722)
   8 Ni    -2.523491    4.370815   10.000000    ( 0.0000,  0.0000,  0.6703)
   9 Ni    -1.261746    5.099284   12.060422    ( 0.0000,  0.0000,  0.6693)
  10 Ni    -2.523245    5.827590   14.119491    ( 0.0000,  0.0000,  0.6697)
  11 Ni    -2.523418    4.369755   16.158210    ( 0.0000,  0.0000,  0.6722)
  12 Ni     2.523491    0.000000   10.000000    ( 0.0000,  0.0000,  0.6703)
  13 Ni     3.785237    0.728469   12.060422    ( 0.0000,  0.0000,  0.6693)
  14 Ni     2.530617    1.457571   14.100074    ( 0.0000,  0.0000,  0.6697)
  15 Ni     2.524430    0.000435   16.158202    ( 0.0000,  0.0000,  0.6722)
  16 Ni     1.261746    2.185408   10.000000    ( 0.0000,  0.0000,  0.6703)
  17 Ni     2.523491    2.913877   12.060422    ( 0.0000,  0.0000,  0.6693)
  18 Ni     1.261975    3.642183   14.065319    ( 0.0000,  0.0000,  0.6697)
  19 Ni     1.260370    2.103648   16.173242    ( 0.0000,  0.0000,  0.6722)
  20 Ni    -0.000000    4.370815   10.000000    ( 0.0000,  0.0000,  0.6703)
[...]
iter: 305 09:36:41 -2732.003788c -4.81  -3.13    +22.2169
iter: 306 09:37:43 -2732.004413c -4.22  -3.10    +22.2652
iter: 307 09:38:46 -2731.987678c -3.76  -3.04    +22.3013
iter: 308 09:39:49 -2732.017196c -4.55  -2.99    +22.2828
iter: 309 09:40:51 -2731.961828c -3.60  -2.98    +22.3446
iter: 310 09:41:54 -2732.010345c -3.90  -2.84    +22.3253
iter: 311 09:42:56 -2731.971919c -4.29  -2.95    +22.3603
iter: 312 09:43:59 -2731.984550c -3.27  -2.95    +22.3784
iter: 313 09:45:02 -2731.864848c -3.93  -2.81    +22.4047
iter: 314 09:46:04 -2731.872589c -4.50  -3.23    +22.3454
iter: 315 09:47:07 -2731.915069c -4.07  -3.23    +22.2863
iter: 316 09:48:09 -2731.906569c -4.73  -3.16    +22.2968
iter: 317 09:49:12 -2731.929147c -4.06  -3.38    +22.2877
iter: 318 09:50:14 -2731.957902c -4.12  -3.50    +22.2766
iter: 319 09:51:17 -2731.963144c -4.46  -3.30    +22.2779
iter: 320 09:52:20 -2731.976098c -5.09  -3.29    +22.2880
iter: 321 09:53:22 -2731.938346c -4.42  -3.18    +22.2955
iter: 322 09:54:25 -2731.934793c -5.04  -3.46    +22.2972
iter: 323 09:55:27 -2731.943788c -4.86  -3.54    +22.3050
iter: 324 09:56:30 -2731.944692c -4.83  -3.46    +22.2930
iter: 325 09:57:33 -2731.939501c -4.96  -3.42    +22.3011
iter: 326 09:58:35 -2731.952054c -4.62  -3.63    +22.3073
iter: 327 09:59:38 -2731.939899c -5.25  -3.34    +22.3019
iter: 328 10:00:40 -2731.944378c -4.62  -3.64    +22.3086
iter: 329 10:01:43 -2731.950274c -4.54  -3.57    +22.3259
iter: 330 10:02:46 -2731.952879c -4.74  -3.97    +22.3071
iter: 331 10:03:49 -2731.953853c -5.24  -3.92    +22.2991
iter: 332 10:04:51 -2731.954125c -5.54  -4.15c   +22.2991
iter: 333 10:05:54 -2731.955061c -5.44  -4.10c   +22.2989
iter: 334 10:06:56 -2731.956523c -5.00  -4.10c   +22.2937
iter: 335 10:07:59 -2731.962618c -4.79  -3.95    +22.2787
iter: 336 10:09:02 -2731.957241c -5.21  -3.59    +22.2905
iter: 337 10:10:04 -2731.959552c -5.26  -3.90    +22.2947
iter: 338 10:11:07 -2731.966556c -5.22  -3.70    +22.2792
iter: 339 10:12:09 -2731.948975c -4.14  -3.49    +22.3378
iter: 340 10:13:12 -2731.939503c -3.87  -4.13c   +22.3767
iter: 341 10:14:15 -2731.940751c -4.24  -3.39    +22.3638
iter: 342 10:15:17 -2731.939831c -4.28  -3.24    +22.3332
iter: 343 10:16:20 -2731.941270c -4.53  -3.12    +22.3140
iter: 344 10:17:22 -2731.932097c -4.48  -3.06    +22.3020
iter: 345 10:18:25 -2731.900122c -4.87  -3.02    +22.3159
iter: 346 10:19:28 -2731.978263c -4.53  -3.24    +22.3091
iter: 347 10:20:30 -2731.934706c -4.72  -2.92    +22.3136
iter: 348 10:21:33 -2731.844573c -4.50  -3.02    +22.3077
iter: 349 10:22:35 -2731.853516c -4.84  -3.34    +22.2974
iter: 350 10:23:38 -2731.854848c -4.88  -3.49    +22.3038
iter: 351 10:24:41 -2731.903010c -4.19  -3.59    +22.3018
iter: 352 10:25:43 -2731.989060c -3.54  -3.95    +22.3177
iter: 353 10:26:46 -2731.992296c -3.87  -3.24    +22.3157
iter: 354 10:27:48 -2732.036462c -3.66  -3.25    +22.2986
iter: 355 10:28:51 -2732.042901c -4.37  -3.06    +22.3000
iter: 356 10:29:53 -2732.079629c -4.22  -3.04    +22.2924
iter: 357 10:30:56 -2732.047619c -4.64  -2.94    +22.3016
iter: 358 10:31:59 -2732.145266c -3.52  -3.02    +22.2659
iter: 359 10:33:01 -2732.320310c -2.61  -2.80    +22.1555
iter: 360 10:34:04 -2732.332682c -3.86  -2.54    +22.1571
iter: 361 10:35:06 -2732.543529c -3.55  -2.59    +22.0866
iter: 362 10:36:09 -2732.591784c -4.53  -2.50    +22.1162
iter: 363 10:37:12 -2732.747603c -3.57  -2.50    +22.0701
iter: 364 10:38:14 -2731.608606  -3.34  -2.44    +22.2080
iter: 365 10:39:17 -2731.381535  -3.49  -2.80    +21.8376
iter: 366 10:40:19 -2731.487546c -3.62  -2.88    +21.5057
iter: 367 10:41:22 -2731.436459c -4.13  -3.25    +21.3740
iter: 368 10:42:25 -2731.425212c -3.79  -2.97    +20.9509
iter: 369 10:43:27 -2731.423404c -3.76  -2.83    +20.4333
iter: 370 10:44:30 -2731.453772c -3.54  -2.81    +19.9364
iter: 371 10:45:32 -2731.451444c -3.87  -2.87    +20.4597
iter: 372 10:46:35 -2731.452409c -3.67  -3.02    +20.0296
iter: 373 10:47:38 -2731.599035c -3.48  -3.01    +20.2553
iter: 374 10:48:40 -2731.499833c -3.58  -3.11    +19.9462
iter: 375 10:49:43 -2731.496958c -3.65  -2.88    +19.9580
iter: 376 10:50:45 -2731.628942c -3.68  -2.77    +20.2628
iter: 377 10:51:48 -2731.802845  -3.11  -2.90    +21.1176
iter: 378 10:52:51 -2731.732238c -4.00  -3.03    +20.8668
iter: 379 10:53:53 -2731.782448c -3.42  -2.97    +21.5339
iter: 380 10:54:56 -2731.785410c -4.00  -3.17    +21.2555
iter: 381 10:55:58 -2731.815751c -3.39  -3.12    +21.2612
iter: 382 10:57:01 -2731.847881c -3.79  -3.02    +21.4505
iter: 383 10:58:04 -2731.912574c -3.62  -3.23    +21.5226
iter: 384 10:59:06 -2731.950574c -3.70  -3.24    +21.7112
iter: 385 11:00:09 -2731.993515c -3.75  -3.26    +21.8422
iter: 386 11:01:11 -2731.977854c -3.50  -3.20    +22.0863
iter: 387 11:02:14 -2731.972835c -4.04  -3.16    +22.1459
iter: 388 11:03:17 -2732.068239c -4.02  -3.20    +22.2372
iter: 389 11:04:19 -2731.956822c -4.39  -2.94    +22.2230
iter: 390 11:05:22 -2731.942266c -4.05  -3.27    +22.2649
iter: 391 11:06:24 -2731.944977c -4.58  -3.44    +22.2735
iter: 392 11:07:27 -2731.952951c -4.79  -3.72    +22.2652
iter: 393 11:08:30 -2731.953556c -4.85  -3.69    +22.2748
iter: 394 11:09:32 -2731.955760c -4.92  -3.85    +22.2702
iter: 395 11:10:35 -2731.956431c -5.25  -3.91    +22.2736
iter: 396 11:11:37 -2731.956617c -5.10  -3.87    +22.2775
iter: 397 11:12:40 -2731.955090c -6.08  -3.83    +22.2773
iter: 398 11:13:43 -2731.955205c -6.24  -4.06c   +22.2777
iter: 399 11:14:45 -2731.955315c -6.04  -4.15c   +22.2788
iter: 400 11:15:48 -2731.955328c -6.63  -4.25c   +22.2779
iter: 401 11:16:50 -2731.955107c -6.67  -4.31c   +22.2778
iter: 402 11:17:53 -2731.955250c -7.41c -4.30c   +22.2771

Converged after 402 iterations.

Dipole moment: (-1.228622, -5.194881, -0.120630) |e|*Ang

Total magnetic moment: (0.000000, 0.000000, 22.277125)
Local magnetic moments:
   0 Ni ( 0.000000,  0.000000,  0.727998)
   1 Ni ( 0.000000,  0.000000,  0.725400)
   2 Ni ( 0.000000,  0.000000,  0.680077)
   3 Ni ( 0.000000,  0.000000,  0.656832)
   4 Ni ( 0.000000,  0.000000,  0.741011)
   5 Ni ( 0.000000,  0.000000,  0.730926)
   6 Ni ( 0.000000,  0.000000,  0.680308)
   7 Ni ( 0.000000,  0.000000,  0.703871)
   8 Ni ( 0.000000,  0.000000,  0.724565)
   9 Ni ( 0.000000,  0.000000,  0.721351)
  10 Ni ( 0.000000,  0.000000,  0.715296)
  11 Ni ( 0.000000,  0.000000,  0.662575)
  12 Ni ( 0.000000,  0.000000,  0.724566)
  13 Ni ( 0.000000,  0.000000,  0.717722)
  14 Ni ( 0.000000,  0.000000,  0.677829)
  15 Ni ( 0.000000,  0.000000,  0.662611)
  16 Ni ( 0.000000,  0.000000,  0.726936)
  17 Ni ( 0.000000,  0.000000,  0.732118)
  18 Ni ( 0.000000,  0.000000,  0.720689)
  19 Ni ( 0.000000,  0.000000,  0.189753)
  20 Ni ( 0.000000,  0.000000,  0.724696)
  21 Ni ( 0.000000,  0.000000,  0.730908)
  22 Ni ( 0.000000,  0.000000,  0.680329)
  23 Ni ( 0.000000,  0.000000,  0.187714)
  24 Ni ( 0.000000,  0.000000,  0.741001)
  25 Ni ( 0.000000,  0.000000,  0.718585)
  26 Ni ( 0.000000,  0.000000,  0.733848)
  27 Ni ( 0.000000,  0.000000,  0.703864)
  28 Ni ( 0.000000,  0.000000,  0.740140)
  29 Ni ( 0.000000,  0.000000,  0.717730)
  30 Ni ( 0.000000,  0.000000,  0.677803)
  31 Ni ( 0.000000,  0.000000,  0.705986)
  32 Ni ( 0.000000,  0.000000,  0.726927)
  33 Ni ( 0.000000,  0.000000,  0.725400)
  34 Ni ( 0.000000,  0.000000,  0.680071)
  35 Ni ( 0.000000,  0.000000,  0.189558)
  36 C  ( 0.000000,  0.000000, -0.016620)

Energy contributions relative to reference atoms: (reference = -1490275.572218)

Kinetic:       +933.737792
Potential:     -811.517535
External:        +0.000000
XC:            -2856.569272
Entropy (-ST):   -2.054249
Local:           +3.420891
--------------------------
Free energy:   -2732.982374
Extrapolated:  -2731.955250

Spin contamination: 2.036835 electrons
Showing only first 2 kpts
                      Up                     Down
 Kpt  Band  Eigenvalues  Occupancy  Eigenvalues  Occupancy
  0   288     -6.06014    0.99884     -5.22736    0.17253
  0   289     -6.05551    0.99879     -5.21325    0.15331
  0   290     -6.04613    0.99867     -5.20333    0.14087
  0   291     -6.01735    0.99822     -5.18166    0.11662

  1   288     -6.14200    0.99949     -5.31134    0.32563
  1   289     -6.12283    0.99938     -5.30115    0.30367
  1   290     -6.10910    0.99929     -5.28400    0.26867
  1   291     -6.10827    0.99928     -5.26494    0.23290


Fermi level: -5.38414

No gap

Forces in eV/Ang:
  0 Ni    0.00031   -0.00011    0.08959
  1 Ni   -0.00002    0.00906   -0.10291
  2 Ni    0.01501    0.01270   -0.00056
  3 Ni    0.00356   -0.00212    0.00576
  4 Ni    0.01046    0.00698    0.10126
  5 Ni   -0.02075   -0.01537   -0.11036
  6 Ni    0.01839    0.00643    0.00135
  7 Ni    0.01890    0.01097    0.02713
  8 Ni   -0.00545    0.00152    0.08698
  9 Ni    0.00697   -0.00403   -0.09826
 10 Ni    0.00112   -0.00066    0.04087
 11 Ni    0.00120    0.00165    0.00937
 12 Ni   -0.00400    0.00405    0.08696
 13 Ni    0.00283    0.00250   -0.13033
 14 Ni   -0.01291    0.01231    0.00041
 15 Ni   -0.00105   -0.00205    0.00941
 16 Ni    0.00055   -0.00189    0.08841
 17 Ni    0.02222   -0.01289   -0.11004
 18 Ni   -0.00019   -0.00008    0.01123
 19 Ni    0.00101    0.07361    0.02395
 20 Ni   -0.00208    0.00128    0.08477
 21 Ni    0.00286    0.02556   -0.11035
 22 Ni    0.00339   -0.01931    0.00114
 23 Ni    0.06904   -0.04018    0.02555
 24 Ni   -0.00072   -0.01240    0.10128
 25 Ni   -0.00297    0.00176   -0.13294
 26 Ni   -0.00005    0.00022   -0.01798
 27 Ni   -0.00004   -0.02179    0.02732
 28 Ni   -0.01570    0.00917    0.09998
 29 Ni   -0.00072   -0.00385   -0.13048
 30 Ni   -0.01706    0.00487    0.00049
 31 Ni   -0.01658    0.00958    0.03061
 32 Ni    0.00199    0.00058    0.08842
 33 Ni   -0.00786   -0.00452   -0.10292
 34 Ni   -0.00336   -0.01937   -0.00061
 35 Ni   -0.06227   -0.03742    0.02338
 36 C    -0.01077    0.00459   -0.10481

BFGS:   14 11:18:30    -2731.955250        0.1055
System changes: positions 

Initializing position-dependent things.

Density initialized from wave functions
                                          
                                          
                                          
                                          
                                          
                   C                      
          Ni    Ni     Ni                 
            Ni    Ni    Ni                
           Ni    Ni    Ni                 
             NNi   NNi   NNi              
              Ni     Ni    Ni             
             Ni     Ni    Ni              
               Ni     Ni    Ni            
                 Ni    Ni     Ni          
          Ni    Ni    Ni                  
            Ni    Ni    Ni                
              Ni    Ni    Ni              
                                          
                                          
                                          
                                          

Positions:
   0 Ni    -0.000000    0.000000   10.000000    ( 0.0000,  0.0000,  0.6703)
   1 Ni     1.261746    0.728469   12.060422    ( 0.0000,  0.0000,  0.6693)
   2 Ni     0.003290    1.460998   14.118282    ( 0.0000,  0.0000,  0.6697)
   3 Ni     0.003900   -0.002307   16.157115    ( 0.0000,  0.0000,  0.6722)
   4 Ni    -1.261746    2.185408   10.000000    ( 0.0000,  0.0000,  0.6703)
   5 Ni    -0.000000    2.913877   12.060422    ( 0.0000,  0.0000,  0.6693)
   6 Ni    -1.256249    3.642754   14.118061    ( 0.0000,  0.0000,  0.6697)
   7 Ni    -1.286682    2.169885   16.143346    ( 0.0000,  0.0000,  0.6722)
   8 Ni    -2.523491    4.370815   10.000000    ( 0.0000,  0.0000,  0.6703)
   9 Ni    -1.261746    5.099284   12.060422    ( 0.0000,  0.0000,  0.6693)
  10 Ni    -2.523001    5.827390   14.112864    ( 0.0000,  0.0000,  0.6697)
  11 Ni    -2.522412    4.371904   16.157215    ( 0.0000,  0.0000,  0.6722)
  12 Ni     2.523491    0.000000   10.000000    ( 0.0000,  0.0000,  0.6703)
  13 Ni     3.785237    0.728469   12.060422    ( 0.0000,  0.0000,  0.6693)
  14 Ni     2.520478    1.460913   14.118268    ( 0.0000,  0.0000,  0.6697)
  15 Ni     2.522989   -0.001593   16.157200    ( 0.0000,  0.0000,  0.6722)
  16 Ni     1.261746    2.185408   10.000000    ( 0.0000,  0.0000,  0.6703)
  17 Ni     2.523491    2.913877   12.060422    ( 0.0000,  0.0000,  0.6693)
  18 Ni     1.262181    3.642029   14.092445    ( 0.0000,  0.0000,  0.6697)
  19 Ni     1.261022    2.128891   16.227002    ( 0.0000,  0.0000,  0.6722)
  20 Ni    -0.000000    4.370815   10.000000    ( 0.0000,  0.0000,  0.6703)
  21 Ni     1.261746    5.099284   12.060422    ( 0.0000,  0.0000,  0.6693)
  22 Ni     0.002339    5.822696   14.118068    ( 0.0000,  0.0000,  0.6697)
  23 Ni    -0.046383    4.397535   16.226024    ( 0.0000,  0.0000,  0.6722)
  24 Ni     5.046982    0.000000   10.000000    ( 0.0000,  0.0000,  0.6703)
  25 Ni     6.308728    0.728469   12.060422    ( 0.0000,  0.0000,  0.6693)
  26 Ni     5.046915    1.456899   14.109731    ( 0.0000,  0.0000,  0.6697)
  27 Ni     5.047875    0.029225   16.143327    ( 0.0000,  0.0000,  0.6722)
  28 Ni     3.785237    2.185408   10.000000    ( 0.0000,  0.0000,  0.6703)
  29 Ni     5.046982    2.913877   12.060422    ( 0.0000,  0.0000,  0.6693)
  30 Ni     3.780236    3.642858   14.118248    ( 0.0000,  0.0000,  0.6697)
  31 Ni     3.810091    2.170960   16.143537    ( 0.0000,  0.0000,  0.6722)
  32 Ni     2.523491    4.370815   10.000000    ( 0.0000,  0.0000,  0.6703)
  33 Ni     3.785237    5.099284   12.060422    ( 0.0000,  0.0000,  0.6693)
  34 Ni     2.521556    5.822786   14.118263    ( 0.0000,  0.0000,  0.6697)
  35 Ni     2.572057    4.399630   16.226933    ( 0.0000,  0.0000,  0.6722)
  36 C      1.263497    3.641477   17.196319    ( 0.0000,  0.0000,  0.0000)

Unit cell:
           periodic     x           y           z      points  spacing
  1. axis:    yes    7.570474    0.000000    0.000000    36     0.1821
  2. axis:    yes   -3.785237    6.556223    0.000000    36     0.1821
  3. axis:    no     0.000000    0.000000   26.181266   144     0.1818

  Lengths:   7.570474   7.570474  26.181266
  Angles:   90.000000  90.000000 120.000000

Effective grid spacing dv^(1/3) = 0.1910

     iter     time        total  log10-change:  magmom
                         energy  eigst   dens
iter:   1 11:21:33 -2732.318615  -3.48           +22.2747
iter:   2 11:22:36 -2744.478863  -2.12  -2.65    +22.3884
iter:   3 11:23:39 -2732.266286  -2.59  -1.88    +21.8775
iter:   4 11:24:42 -2732.017747  -3.04  -2.74    +22.2718
iter:   5 11:25:45 -2731.940552  -3.47  -3.10    +22.2583
iter:   6 11:26:47 -2731.941936c -4.19  -3.48    +22.2463
iter:   7 11:27:50 -2731.953909c -4.80  -3.54    +22.2563
iter:   8 11:28:53 -2731.952478c -4.57  -3.56    +22.2665
iter:   9 11:29:56 -2731.953967c -5.27  -3.56    +22.2588
iter:  10 11:30:59 -2731.952688c -5.73  -3.63    +22.2653
iter:  11 11:32:01 -2731.952666c -5.37  -3.74    +22.2594
iter:  12 11:33:04 -2731.952543c -5.83  -4.11c   +22.2646
iter:  13 11:34:07 -2731.952942c -5.35  -4.05c   +22.2623
iter:  14 11:35:10 -2731.953868c -5.12  -4.15c   +22.2704
iter:  15 11:36:13 -2731.956543c -5.11  -4.18c   +22.2782
iter:  16 11:37:15 -2731.952093c -5.05  -3.84    +22.2669
iter:  17 11:38:18 -2731.951867c -5.92  -4.09c   +22.2715
iter:  18 11:39:21 -2731.952678c -6.42  -4.10c   +22.2700
iter:  19 11:40:24 -2731.953132c -4.95  -4.09c   +22.2867
iter:  20 11:41:27 -2731.953787c -5.91  -3.73    +22.2903
iter:  21 11:42:29 -2731.952508c -5.77  -3.83    +22.2935
iter:  22 11:43:32 -2731.952713c -6.58  -4.12c   +22.2932
iter:  23 11:44:35 -2731.953885c -5.74  -4.14c   +22.2883
iter:  24 11:45:38 -2731.955745c -5.25  -4.28c   +22.2843
iter:  25 11:46:41 -2731.952560c -4.79  -4.15c   +22.2956
iter:  26 11:47:43 -2731.952633c -5.61  -3.82    +22.2973
iter:  27 11:48:46 -2731.952099c -6.35  -3.79    +22.2928
iter:  28 11:49:49 -2731.952031c -7.06  -3.93    +22.2935
iter:  29 11:50:52 -2731.952100c -6.08  -3.94    +22.2946
iter:  30 11:51:55 -2731.950128c -5.35  -4.22c   +22.2903
iter:  31 11:52:58 -2731.956250c -4.62  -3.84    +22.2962
iter:  32 11:54:00 -2731.952325c -4.98  -4.01c   +22.2937
iter:  33 11:55:03 -2731.952573c -4.44  -3.89    +22.2929
iter:  34 11:56:06 -2731.952350c -5.10  -3.45    +22.2955
iter:  35 11:57:09 -2731.952775c -5.97  -3.43    +22.2966
iter:  36 11:58:12 -2731.952386c -6.55  -3.44    +22.2970
iter:  37 11:59:14 -2731.952109c -6.25  -3.46    +22.2967
iter:  38 12:00:17 -2731.954523c -4.91  -3.44    +22.2965
iter:  39 12:01:20 -2731.958330c -4.41  -3.50    +22.2958
iter:  40 12:02:23 -2731.944554c -4.52  -3.19    +22.3046
iter:  41 12:03:26 -2731.946661c -4.80  -3.98    +22.2949
iter:  42 12:04:29 -2731.955746c -4.64  -4.15c   +22.2853
iter:  43 12:05:31 -2731.962911c -4.39  -3.79    +22.2902
iter:  44 12:06:34 -2731.969760c -4.54  -3.60    +22.2812
iter:  45 12:07:37 -2731.968740c -4.96  -3.44    +22.2782
iter:  46 12:08:40 -2731.975789c -4.98  -3.45    +22.2710
iter:  47 12:09:42 -2731.976307c -5.42  -3.34    +22.2703
iter:  48 12:10:45 -2731.982500c -4.28  -3.33    +22.2504
iter:  49 12:11:48 -2731.986010c -4.72  -3.20    +22.2430
iter:  50 12:12:51 -2731.993513c -5.49  -3.16    +22.2435
iter:  51 12:13:54 -2731.978301c -4.88  -3.13    +22.2339
iter:  52 12:14:56 -2731.990956c -5.05  -3.15    +22.2275
iter:  53 12:15:59 -2731.946494c -4.13  -3.10    +22.2226
iter:  54 12:17:02 -2731.924658c -4.76  -3.02    +22.2174
iter:  55 12:18:05 -2731.949085c -4.70  -3.20    +22.1965
iter:  56 12:19:08 -2732.030304c -3.54  -3.14    +22.1388
iter:  57 12:20:10 -2732.000311c -4.56  -3.06    +22.1742
iter:  58 12:21:13 -2731.982671c -4.45  -3.15    +22.2525
iter:  59 12:22:16 -2731.968600c -4.47  -3.19    +22.2583
iter:  60 12:23:19 -2731.963863c -3.88  -3.21    +22.2487
iter:  61 12:24:22 -2731.921960c -4.83  -3.00    +22.2459
iter:  62 12:25:24 -2731.935316c -4.69  -3.61    +22.2474
iter:  63 12:26:27 -2731.937853c -4.72  -3.50    +22.2172
iter:  64 12:27:30 -2731.945641c -4.38  -3.56    +22.1812
iter:  65 12:28:33 -2731.933050c -4.82  -3.46    +22.2056
iter:  66 12:29:36 -2731.937906c -4.58  -3.69    +22.2181
iter:  67 12:30:38 -2731.926299c -4.76  -3.38    +22.2107
iter:  68 12:31:41 -2731.930096c -5.01  -3.46    +22.2151
iter:  69 12:32:44 -2731.916177c -4.07  -3.67    +22.1599
iter:  70 12:33:47 -2731.935388c -4.38  -3.36    +22.1714
iter:  71 12:34:50 -2731.953101c -3.96  -3.76    +22.1872
iter:  72 12:35:53 -2731.955144c -4.48  -4.07c   +22.2158
iter:  73 12:36:55 -2731.958183c -4.47  -4.11c   +22.2560
iter:  74 12:37:58 -2731.957055c -5.56  -3.82    +22.2408
iter:  75 12:39:01 -2731.957663c -5.34  -3.93    +22.2496
iter:  76 12:40:04 -2731.958624c -4.86  -3.83    +22.2675
iter:  77 12:41:06 -2731.956690c -5.59  -3.67    +22.2664
iter:  78 12:42:09 -2731.959719c -5.44  -3.72    +22.2711
iter:  79 12:43:12 -2731.959197c -5.79  -3.61    +22.2725
iter:  80 12:44:15 -2731.957104c -5.43  -3.61    +22.2831
iter:  81 12:45:18 -2731.991811c -4.55  -3.61    +22.2924
iter:  82 12:46:21 -2731.953364c -5.05  -3.07    +22.2931
iter:  83 12:47:23 -2731.952002c -5.16  -3.75    +22.2927
iter:  84 12:48:26 -2731.954005c -5.48  -3.76    +22.2891
iter:  85 12:49:29 -2731.953488c -5.97  -3.80    +22.2877
iter:  86 12:50:32 -2731.952708c -6.03  -4.01c   +22.2885
iter:  87 12:51:35 -2731.954504c -5.64  -4.13c   +22.2908
iter:  88 12:52:37 -2731.955921c -5.37  -4.26c   +22.2886
iter:  89 12:53:40 -2731.957730c -4.98  -4.30c   +22.2826
iter:  90 12:54:43 -2731.961453c -4.99  -3.92    +22.2765
iter:  91 12:55:46 -2731.955418c -4.96  -3.64    +22.2866
iter:  92 12:56:49 -2731.956183c -6.35  -4.75c   +22.2830
iter:  93 12:57:51 -2731.956446c -6.81  -4.33c   +22.2827
srun: Job step aborted: Waiting up to 32 seconds for job step to finish.
slurmstepd: error: *** STEP 6737425.0 ON a117 CANCELLED AT 2023-10-07T12:58:28 DUE TO TIME LIMIT ***
slurmstepd: error: *** JOB 6737425 ON a117 CANCELLED AT 2023-10-07T12:58:28 DUE TO TIME LIMIT ***
