
  ___ ___ ___ _ _ _  
 |   |   |_  | | | | 
 | | | | | . | | | | 
 |__ |  _|___|_____|  22.8.0
 |___|_|             

User:   s204775@c008.nifl.fysik.dtu.dk
Date:   Tue Oct  3 14:35:51 2023
Arch:   x86_64
Pid:    78866
CWD:    /home/cat/s204775/projects/Bachelor_project/C_missing_features
Python: 3.10.4
gpaw:   /home/modules/software/GPAW/22.8.0-intel-2022a/lib/python3.10/site-packages/gpaw
_gpaw:  /home/modules/software/GPAW/22.8.0-intel-2022a/lib/python3.10/site-packages/
        _gpaw.cpython-310-x86_64-linux-gnu.so
ase:    /home/modules/software/ASE/3.22.1-intel-2022a/lib/python3.10/site-packages/ase (version 3.22.1)
numpy:  /home/modules/software/SciPy-bundle/2022.05-intel-2022a/lib/python3.10/site-packages/numpy (version 1.22.3)
scipy:  /home/modules/software/SciPy-bundle/2022.05-intel-2022a/lib/python3.10/site-packages/scipy (version 1.8.1)
libxc:  5.2.3
units:  Angstrom and eV
cores: 40
OpenMP: False
OMP_NUM_THREADS: 1

Input parameters:
  basis: dzp
  h: 0.18
  kpts: {size: (4, 4, 1)}
  maxiter: 3000
  xc: BEEF-vdW

System changes: positions, numbers, cell, pbc, initial_charges, initial_magmoms 

Initialize ...

species:
  Ni:
    name: Nickel
    id: 0d9f38a9d6e76a2886f07bb4381f212b
    Z: 28.0
    valence: 16
    core: 12
    charge: 0.0
    file: /home/modules/software/GPAW-setups/0.9.20000/Ni.PBE.gz
    compensation charges: {type: gauss,
                           rc: 0.36,
                           lmax: 2}
    cutoffs: {filter: 2.14,
              core: 1.98}
    valence states:
      #              energy  rcut
      - 4s(2.00)    -5.642   1.164
      - 3p(6.00)   -71.394   1.207
      - 4p(0.00)    -1.226   1.207
      - 3d(8.00)    -8.875   1.138
      -  s          21.570   1.164
      -  d          18.337   1.138
  
    # LCAO basis set for Ni:
    #   Name: dzp
    #   File: /home/modules/software/GPAW-setups/0.9.20000/Ni.dzp.basis.gz
    #   Number of radial functions: 9
    #   Number of spherical harmonics: 27
    #     l=0, rc=8.5156 Bohr: 4s-sz confined orbital
    #     l=1, rc=2.9375 Bohr: 3p-sz confined orbital
    #     l=1, rc=12.4062 Bohr: 4p-sz confined orbital
    #     l=2, rc=4.6875 Bohr: 3d-sz confined orbital
    #     l=0, rc=4.9688 Bohr: 4s-dz split-valence wave
    #     l=1, rc=2.0781 Bohr: 3p-dz split-valence wave
    #     l=1, rc=7.5469 Bohr: 4p-dz split-valence wave
    #     l=2, rc=2.9375 Bohr: 3d-dz split-valence wave
    #     l=1, rc=8.5156 Bohr: p-type Gaussian polarization
    #   Number of RI-basis functions 0

  C:
    name: Carbon
    id: 4aa54d4b901d75f77cc0ea3eec22967b
    Z: 6.0
    valence: 4
    core: 2
    charge: 0.0
    file: /home/modules/software/GPAW-setups/0.9.20000/C.PBE.gz
    compensation charges: {type: gauss,
                           rc: 0.20,
                           lmax: 2}
    cutoffs: {filter: 1.14,
              core: 1.14}
    valence states:
      #              energy  rcut
      - 2s(2.00)   -13.751   0.635
      - 2p(2.00)    -5.284   0.635
      -  s          13.461   0.635
      -  p          21.927   0.635
      -  d           0.000   0.635
  
    # LCAO basis set for C:
    #   Name: dzp
    #   File: /home/modules/software/GPAW-setups/0.9.20000/C.dzp.basis.gz
    #   Number of radial functions: 5
    #   Number of spherical harmonics: 13
    #     l=0, rc=5.5469 Bohr: 2s-sz confined orbital
    #     l=1, rc=6.6719 Bohr: 2p-sz confined orbital
    #     l=0, rc=3.0312 Bohr: 2s-dz split-valence wave
    #     l=1, rc=3.7500 Bohr: 2p-dz split-valence wave
    #     l=2, rc=6.6719 Bohr: d-type Gaussian polarization
    #   Number of RI-basis functions 0

Reference energy: -1490275.572218  # eV

Spin-polarized calculation.
Magnetic moment: 24.133853

Convergence criteria:
 Maximum [total energy] change in last 3 cyles: 0.0005 eV / electron
 Maximum integral of absolute [dens]ity change: 0.0001 electrons / valence electron
 Maximum integral of absolute [eigenst]ate change: 4e-08 eV^2 / valence electron
 Maximum number of scf [iter]ations: 3000
 (Square brackets indicate name in SCF output, whereas a 'c' in
 the SCF output indicates the quantity has converged.)

Symmetries present (total): 1

  ( 1  0  0)
  ( 0  1  0)
  ( 0  0  1)

16 k-points: 4 x 4 x 1 Monkhorst-Pack grid
8 k-points in the irreducible part of the Brillouin zone
       k-points in crystal coordinates                weights
   0:     0.12500000   -0.37500000    0.00000000          2/16
   1:     0.12500000   -0.12500000    0.00000000          2/16
   2:     0.12500000    0.12500000    0.00000000          2/16
   3:     0.12500000    0.37500000    0.00000000          2/16
   4:     0.37500000   -0.37500000    0.00000000          2/16
   5:     0.37500000   -0.12500000    0.00000000          2/16
   6:     0.37500000    0.12500000    0.00000000          2/16
   7:     0.37500000    0.37500000    0.00000000          2/16

Wave functions: Uniform real-space grid
  Kinetic energy operator: 8*3+1=25 point O(h^6) finite-difference Laplacian
  ScaLapack parameters: grid=1x1, blocksize=None
  Wavefunction extrapolation:
    Improved wavefunction reuse through dual PAW basis 

Occupation numbers: Fermi-Dirac:
  width: 0.1000  # eV
 

Eigensolver
   Davidson(niter=2) 

Densities:
  Coarse grid: 36*36*144 grid
  Fine grid: 72*72*288 grid
  Total Charge: 0.000000 

Density mixing:
  Method: difference
  Backend: pulay
  Linear mixing parameter: 0.05
  old densities: 5
  Damping of long wavelength oscillations: 50 

Hamiltonian:
  XC and Coulomb potentials evaluated on a 72*72*288 grid
  Using the BEEF-vdW Exchange-Correlation functional
  Interpolation: tri-quintic (5. degree polynomial)
  Poisson solver: FastPoissonSolver using
    Stencil: 8*3+1=25 point O(h^6) finite-difference Laplacian
    FFT axes: [0, 1]
    FST axes: [2]
 

XC parameters: BEEF-vdW with 2 nearest neighbor stencil

Memory estimate:
  Process memory now: 205.80 MiB
  Calculator: 697.76 MiB
    Density: 47.55 MiB
      Arrays: 9.85 MiB
      Localized functions: 33.82 MiB
      Mixer: 3.88 MiB
    Hamiltonian: 9.92 MiB
      Arrays: 7.32 MiB
      XC: 0.00 MiB
      Poisson: 0.00 MiB
      vbar: 2.60 MiB
    Wavefunctions: 640.30 MiB
      Arrays psit_nG: 406.42 MiB
      Eigensolver: 226.54 MiB
      Projections: 1.48 MiB
      Projectors: 5.85 MiB

Total number of cores used: 40
Parallelization over k-points: 8
Domain decomposition: 1 x 1 x 5

Number of atoms: 37
Number of atomic orbitals: 985
Number of bands in calculation: 367
Number of valence electrons: 580
Bands to converge: occupied

... initialized

Initializing position-dependent things.

Density initialized from atomic densities
Creating initial wave functions:
  367 bands from LCAO basis set

                                          
                                          
                                          
                                          
                                          
          Ni    Ni C  Ni                  
                                          
           NNi   NNi   NNi                
             NNi   NNi   NNi              
                                          
             NNi    NNi   NNi             
               Ni     Ni    Ni            
                 Ni    Ni     Ni          
          Ni    Ni    Ni                  
            Ni    Ni    Ni                
              Ni    Ni    Ni              
                                          
                                          
                                          
                                          

Positions:
   0 Ni    -0.000000    0.000000   10.000000    ( 0.0000,  0.0000,  0.6703)
   1 Ni     1.261746    0.728469   12.060422    ( 0.0000,  0.0000,  0.6693)
   2 Ni    -0.000000    1.456879   14.115099    ( 0.0000,  0.0000,  0.6697)
   3 Ni    -0.000000    0.000000   16.159108    ( 0.0000,  0.0000,  0.6722)
   4 Ni    -1.261746    2.185408   10.000000    ( 0.0000,  0.0000,  0.6703)
   5 Ni    -0.000000    2.913877   12.060422    ( 0.0000,  0.0000,  0.6693)
   6 Ni    -1.261752    3.642342   14.115047    ( 0.0000,  0.0000,  0.6697)
   7 Ni    -1.261722    2.185367   16.159160    ( 0.0000,  0.0000,  0.6722)
   8 Ni    -2.523491    4.370815   10.000000    ( 0.0000,  0.0000,  0.6703)
   9 Ni    -1.261746    5.099284   12.060422    ( 0.0000,  0.0000,  0.6693)
  10 Ni    -2.523542    5.827783   14.115099    ( 0.0000,  0.0000,  0.6697)
  11 Ni    -2.523515    4.370856   16.159160    ( 0.0000,  0.0000,  0.6722)
  12 Ni     2.523491    0.000000   10.000000    ( 0.0000,  0.0000,  0.6703)
  13 Ni     3.785237    0.728469   12.060422    ( 0.0000,  0.0000,  0.6693)
  14 Ni     2.523448    1.456914   14.115068    ( 0.0000,  0.0000,  0.6697)
  15 Ni     2.523444    0.000000   16.159160    ( 0.0000,  0.0000,  0.6722)
  16 Ni     1.261746    2.185408   10.000000    ( 0.0000,  0.0000,  0.6703)
  17 Ni     2.523491    2.913877   12.060422    ( 0.0000,  0.0000,  0.6693)
  18 Ni     1.261752    3.642342   14.115047    ( 0.0000,  0.0000,  0.6697)
  19 Ni     1.261722    2.185367   16.159160    ( 0.0000,  0.0000,  0.6722)
  20 Ni    -0.000000    4.370815   10.000000    ( 0.0000,  0.0000,  0.6703)
  21 Ni     1.261746    5.099284   12.060422    ( 0.0000,  0.0000,  0.6693)
  22 Ni    -0.000000    5.827761   14.115047    ( 0.0000,  0.0000,  0.6697)
  23 Ni    -0.000000    4.370815   16.159174    ( 0.0000,  0.0000,  0.6722)
  24 Ni     5.046982    0.000000   10.000000    ( 0.0000,  0.0000,  0.6703)
  25 Ni     6.308728    0.728469   12.060422    ( 0.0000,  0.0000,  0.6693)
  26 Ni     5.047025    1.456914   14.115068    ( 0.0000,  0.0000,  0.6697)
  27 Ni     5.047030    0.000000   16.159160    ( 0.0000,  0.0000,  0.6722)
  28 Ni     3.785237    2.185408   10.000000    ( 0.0000,  0.0000,  0.6703)
  29 Ni     5.046982    2.913877   12.060422    ( 0.0000,  0.0000,  0.6693)
  30 Ni     3.785237    3.642395   14.115068    ( 0.0000,  0.0000,  0.6697)
  31 Ni     3.785237    2.185408   16.159114    ( 0.0000,  0.0000,  0.6722)
  32 Ni     2.523491    4.370815   10.000000    ( 0.0000,  0.0000,  0.6703)
  33 Ni     3.785237    5.099284   12.060422    ( 0.0000,  0.0000,  0.6693)
  34 Ni     2.523542    5.827783   14.115099    ( 0.0000,  0.0000,  0.6697)
  35 Ni     2.523515    4.370856   16.159160    ( 0.0000,  0.0000,  0.6722)
  36 C      1.261722    3.642319   16.887636    ( 0.0000,  0.0000,  0.0000)

Unit cell:
           periodic     x           y           z      points  spacing
  1. axis:    yes    7.570474    0.000000    0.000000    36     0.1821
  2. axis:    yes   -3.785237    6.556223    0.000000    36     0.1821
  3. axis:    no     0.000000    0.000000   26.181266   144     0.1818

  Lengths:   7.570474   7.570474  26.181266
  Angles:   90.000000  90.000000 120.000000

Effective grid spacing dv^(1/3) = 0.1910

     iter     time        total  log10-change:  magmom
                         energy  eigst   dens
iter:   1 14:38:46 -2748.000961                  +23.8879
iter:   2 14:40:00 -2834.340138  -0.10  -1.43    +18.9439
iter:   3 14:41:14 -2752.084409  -0.55  -1.39    +14.9349
iter:   4 14:42:28 -2753.183799  -0.91  -1.58    +12.8654
iter:   5 14:43:42 -2743.224479  -1.16  -1.61    +12.1339
iter:   6 14:44:56 -2738.472767  -1.28  -1.75    +10.9739
iter:   7 14:46:10 -2748.823473  -1.31  -1.83    +11.1839
iter:   8 14:47:24 -2738.906916  -1.70  -1.77    +9.9609
iter:   9 14:48:38 -2735.717816  -1.67  -1.81    +10.3585
iter:  10 14:49:51 -2737.667244  -2.36  -1.84    +12.7767
iter:  11 14:51:05 -2736.572916  -1.90  -1.87    +14.8370
iter:  12 14:52:19 -2733.435054  -1.93  -2.07    +17.1231
iter:  13 14:53:33 -2734.665349  -2.02  -2.11    +17.6450
iter:  14 14:54:47 -2731.851919  -2.23  -1.96    +17.3623
iter:  15 14:56:01 -2733.479146  -2.48  -2.27    +17.1077
iter:  16 14:57:15 -2730.697802  -2.77  -2.08    +17.5531
iter:  17 14:58:28 -2730.724024  -3.14  -2.42    +18.8874
iter:  18 14:59:42 -2731.703286  -2.67  -2.47    +19.6616
iter:  19 15:00:56 -2731.245709  -2.96  -2.41    +19.8881
iter:  20 15:02:10 -2731.004692  -2.84  -2.54    +20.4188
iter:  21 15:03:24 -2730.874246  -3.15  -2.71    +20.7741
iter:  22 15:04:38 -2730.963021c -3.49  -2.94    +21.0280
iter:  23 15:05:52 -2730.970792c -3.73  -2.88    +21.3262
iter:  24 15:07:06 -2731.039824c -3.61  -2.97    +21.5278
iter:  25 15:08:20 -2730.959712c -4.17  -2.91    +21.5213
iter:  26 15:09:34 -2730.964457c -4.23  -3.14    +21.6331
iter:  27 15:10:47 -2730.975578c -4.52  -3.25    +21.6506
iter:  28 15:12:01 -2730.981118c -4.61  -3.28    +21.7328
iter:  29 15:13:15 -2731.014431c -4.30  -3.26    +21.7590
iter:  30 15:14:29 -2731.004464c -3.69  -3.20    +21.8498
iter:  31 15:15:43 -2731.008809c -4.60  -3.21    +21.8256
iter:  32 15:16:57 -2730.987316c -4.07  -3.32    +21.8595
iter:  33 15:18:11 -2731.023067c -4.63  -3.53    +21.8594
iter:  34 15:19:25 -2730.988382c -4.70  -3.21    +21.8848
iter:  35 15:20:38 -2730.979631c -4.52  -3.81    +21.9086
iter:  36 15:21:52 -2731.000512c -4.51  -3.70    +21.9011
iter:  37 15:23:06 -2730.976365c -3.45  -3.59    +21.9389
iter:  38 15:24:20 -2730.983522c -3.88  -3.07    +21.9517
iter:  39 15:25:34 -2730.962088c -4.04  -2.97    +21.9525
iter:  40 15:26:48 -2730.971536c -5.22  -2.95    +21.9475
iter:  41 15:28:01 -2730.969635c -5.29  -2.98    +21.9454
iter:  42 15:29:15 -2730.990546c -5.00  -2.98    +21.9440
iter:  43 15:30:29 -2731.048457c -4.78  -2.95    +21.9431
iter:  44 15:31:43 -2731.024487c -5.17  -2.87    +21.9464
iter:  45 15:32:57 -2730.889070c -3.62  -2.91    +21.9414
iter:  46 15:34:11 -2730.867042c -4.49  -3.08    +21.9449
iter:  47 15:35:24 -2730.926287c -4.13  -3.42    +21.9099
iter:  48 15:36:38 -2731.032739c -3.30  -3.50    +21.8604
iter:  49 15:37:52 -2731.029789c -3.74  -3.17    +21.8882
iter:  50 15:39:05 -2731.031412c -3.61  -3.26    +21.9002
iter:  51 15:40:19 -2731.062142c -4.10  -3.28    +21.8820
iter:  52 15:41:33 -2731.039992c -4.62  -3.14    +21.8806
iter:  53 15:42:46 -2730.999620c -4.30  -3.19    +21.8693
iter:  54 15:44:00 -2731.005882c -4.95  -3.35    +21.8550
iter:  55 15:45:13 -2730.997638c -5.00  -3.31    +21.8434
iter:  56 15:46:27 -2730.985688c -4.50  -3.35    +21.8373
iter:  57 15:47:41 -2730.981504c -5.02  -3.59    +21.8417
iter:  58 15:48:54 -2730.987482c -5.09  -3.56    +21.8378
iter:  59 15:50:08 -2730.980660c -4.82  -3.42    +21.8483
iter:  60 15:51:22 -2730.997376c -4.72  -3.56    +21.8375
iter:  61 15:52:35 -2730.994892c -5.16  -3.43    +21.8324
iter:  62 15:53:49 -2730.997450c -4.49  -3.57    +21.8355
iter:  63 15:55:03 -2730.999839c -5.06  -3.72    +21.8500
iter:  64 15:56:16 -2730.997591c -5.39  -3.82    +21.8527
iter:  65 15:57:30 -2730.998147c -4.99  -3.91    +21.8574
iter:  66 15:58:43 -2730.999518c -4.91  -3.86    +21.8642
iter:  67 15:59:57 -2730.998902c -5.02  -3.80    +21.8767
iter:  68 16:01:11 -2731.000101c -5.38  -3.79    +21.8852
iter:  69 16:02:24 -2730.999840c -5.66  -3.65    +21.8864
iter:  70 16:03:39 -2730.998472c -5.58  -3.75    +21.8908
iter:  71 16:04:52 -2730.996717c -5.56  -3.81    +21.9000
iter:  72 16:06:06 -2730.996702c -5.83  -3.96    +21.9016
iter:  73 16:07:20 -2730.998074c -5.85  -4.05c   +21.9052
iter:  74 16:08:33 -2730.998046c -5.91  -4.09c   +21.9051
iter:  75 16:09:47 -2730.998898c -5.53  -4.19c   +21.9001
iter:  76 16:11:00 -2730.998845c -6.49  -4.10c   +21.9000
iter:  77 16:12:14 -2730.997779c -5.99  -4.19c   +21.9008
iter:  78 16:13:28 -2730.998706c -6.51  -4.33c   +21.8986
iter:  79 16:14:41 -2730.998206c -6.86  -4.28c   +21.8962
iter:  80 16:15:55 -2730.998350c -6.52  -4.56c   +21.8951
iter:  81 16:17:08 -2730.998596c -6.60  -4.60c   +21.8967
iter:  82 16:18:22 -2730.998889c -6.39  -4.64c   +21.8976
iter:  83 16:19:35 -2730.999115c -6.62  -4.60c   +21.8965
iter:  84 16:20:49 -2730.999479c -6.85  -4.53c   +21.8957
iter:  85 16:22:02 -2730.999313c -7.31  -4.39c   +21.8958
iter:  86 16:23:16 -2730.999546c -7.35  -4.49c   +21.8962
iter:  87 16:24:30 -2730.999270c -7.49c -4.35c   +21.8963

Converged after 87 iterations.

Dipole moment: (-2.560848, -4.440473, -0.051630) |e|*Ang

Total magnetic moment: (0.000000, 0.000000, 21.896261)
Local magnetic moments:
   0 Ni ( 0.000000,  0.000000,  0.723801)
   1 Ni ( 0.000000,  0.000000,  0.725772)
   2 Ni ( 0.000000,  0.000000,  0.668443)
   3 Ni ( 0.000000,  0.000000,  0.642485)
   4 Ni ( 0.000000,  0.000000,  0.740401)
   5 Ni ( 0.000000,  0.000000,  0.728493)
   6 Ni ( 0.000000,  0.000000,  0.669983)
   7 Ni ( 0.000000,  0.000000,  0.690108)
   8 Ni ( 0.000000,  0.000000,  0.723049)
   9 Ni ( 0.000000,  0.000000,  0.723429)
  10 Ni ( 0.000000,  0.000000,  0.702324)
  11 Ni ( 0.000000,  0.000000,  0.650774)
  12 Ni ( 0.000000,  0.000000,  0.723057)
  13 Ni ( 0.000000,  0.000000,  0.717185)
  14 Ni ( 0.000000,  0.000000,  0.665801)
  15 Ni ( 0.000000,  0.000000,  0.650774)
  16 Ni ( 0.000000,  0.000000,  0.725974)
  17 Ni ( 0.000000,  0.000000,  0.728876)
  18 Ni ( 0.000000,  0.000000,  0.701699)
  19 Ni ( 0.000000,  0.000000,  0.115634)
  20 Ni ( 0.000000,  0.000000,  0.725140)
  21 Ni ( 0.000000,  0.000000,  0.728464)
  22 Ni ( 0.000000,  0.000000,  0.670007)
  23 Ni ( 0.000000,  0.000000,  0.115832)
  24 Ni ( 0.000000,  0.000000,  0.740400)
  25 Ni ( 0.000000,  0.000000,  0.718058)
  26 Ni ( 0.000000,  0.000000,  0.725793)
  27 Ni ( 0.000000,  0.000000,  0.690127)
  28 Ni ( 0.000000,  0.000000,  0.739047)
  29 Ni ( 0.000000,  0.000000,  0.717189)
  30 Ni ( 0.000000,  0.000000,  0.665798)
  31 Ni ( 0.000000,  0.000000,  0.693073)
  32 Ni ( 0.000000,  0.000000,  0.725960)
  33 Ni ( 0.000000,  0.000000,  0.725765)
  34 Ni ( 0.000000,  0.000000,  0.668462)
  35 Ni ( 0.000000,  0.000000,  0.115640)
  36 C  ( 0.000000,  0.000000, -0.008243)

Energy contributions relative to reference atoms: (reference = -1490275.572218)

Kinetic:       +959.864508
Potential:     -831.642374
External:        +0.000000
XC:            -2861.535417
Entropy (-ST):   -2.038917
Local:           +3.333470
--------------------------
Free energy:   -2732.018729
Extrapolated:  -2730.999270

Spin contamination: 1.998777 electrons
Showing only first 2 kpts
                      Up                     Down
 Kpt  Band  Eigenvalues  Occupancy  Eigenvalues  Occupancy
  0   288     -5.96937    0.99877     -5.14351    0.17351
  0   289     -5.96888    0.99876     -5.12655    0.15051
  0   290     -5.95794    0.99862     -5.10618    0.12628
  0   291     -5.94010    0.99835     -5.09848    0.11802

  1   288     -6.05754    0.99949     -5.22723    0.32657
  1   289     -6.03600    0.99937     -5.22404    0.31959
  1   290     -6.02233    0.99927     -5.20150    0.27269
  1   291     -6.02151    0.99927     -5.18555    0.24221


Fermi level: -5.29961

No gap

Forces in eV/Ang:
  0 Ni   -0.00183    0.00115    0.09525
  1 Ni    0.00024    0.00171   -0.10219
  2 Ni   -0.03716   -0.01113   -0.06010
  3 Ni    0.03080   -0.01781   -0.02416
  4 Ni    0.01151    0.00903    0.10867
  5 Ni    0.00000   -0.00211   -0.08592
  6 Ni   -0.03042   -0.02592   -0.06095
  7 Ni   -0.35821   -0.20783   -0.08699
  8 Ni   -0.00258   -0.00058    0.09024
  9 Ni    0.00121   -0.00064   -0.09953
 10 Ni    0.00202   -0.00130    0.05305
 11 Ni   -0.00078    0.02993   -0.02646
 12 Ni   -0.00075    0.00264    0.09022
 13 Ni    0.02067    0.01211   -0.15587
 14 Ni    0.03875   -0.01319   -0.06251
 15 Ni   -0.02641   -0.01438   -0.02650
 16 Ni   -0.00148    0.00116    0.09476
 17 Ni    0.00008   -0.00000   -0.08561
 18 Ni    0.00025   -0.00031   -0.74422
 19 Ni   -0.01039   -4.14796   -1.31083
 20 Ni   -0.00115    0.00073    0.09459
 21 Ni    0.00186    0.00110   -0.08589
 22 Ni    0.00716    0.03918   -0.06093
 23 Ni   -3.57812    2.06576   -1.31694
 24 Ni   -0.00198   -0.01433    0.10866
 25 Ni   -0.02057    0.01193   -0.15772
 26 Ni    0.00065   -0.00043    0.13578
 27 Ni    0.00086    0.41417   -0.08710
 28 Ni   -0.01456    0.00850    0.10652
 29 Ni   -0.00011   -0.02396   -0.15596
 30 Ni    0.03078   -0.02708   -0.06251
 31 Ni    0.36230   -0.20921   -0.08752
 32 Ni   -0.00168    0.00081    0.09477
 33 Ni   -0.00129   -0.00095   -0.10214
 34 Ni   -0.00897    0.03768   -0.06009
 35 Ni    3.58602    2.08232   -1.31036
 36 C     0.00336   -0.00064    5.30316

      Step     Time          Energy         fmax
BFGS:    0 16:25:15    -2730.999270        5.3032
System changes: positions 

Initializing position-dependent things.

Density initialized from wave functions
                                          
                                          
                                          
                                          
                                          
          Ni    Ni C   Ni                 
                                          
           NNi   NNi   NNi                
             NNi   NNi   NNi              
                                          
             NNi    NNi   NNi             
               Ni     Ni    Ni            
                                          
          Ni    NNi   NNi     Ni          
            Ni    Ni    Ni                
              Ni    Ni    Ni              
                                          
                                          
                                          
                                          

Positions:
   0 Ni    -0.000000    0.000000   10.000000    ( 0.0000,  0.0000,  0.6703)
   1 Ni     1.261746    0.728469   12.060422    ( 0.0000,  0.0000,  0.6693)
   2 Ni    -0.000531    1.456720   14.114241    ( 0.0000,  0.0000,  0.6697)
   3 Ni     0.000440   -0.000254   16.158763    ( 0.0000,  0.0000,  0.6722)
   4 Ni    -1.261746    2.185408   10.000000    ( 0.0000,  0.0000,  0.6703)
   5 Ni    -0.000000    2.913877   12.060422    ( 0.0000,  0.0000,  0.6693)
   6 Ni    -1.262186    3.641972   14.114176    ( 0.0000,  0.0000,  0.6697)
   7 Ni    -1.266839    2.182397   16.157917    ( 0.0000,  0.0000,  0.6722)
   8 Ni    -2.523491    4.370815   10.000000    ( 0.0000,  0.0000,  0.6703)
   9 Ni    -1.261746    5.099284   12.060422    ( 0.0000,  0.0000,  0.6693)
  10 Ni    -2.523514    5.827764   14.115857    ( 0.0000,  0.0000,  0.6697)
  11 Ni    -2.523526    4.371283   16.158782    ( 0.0000,  0.0000,  0.6722)
  12 Ni     2.523491    0.000000   10.000000    ( 0.0000,  0.0000,  0.6703)
  13 Ni     3.785237    0.728469   12.060422    ( 0.0000,  0.0000,  0.6693)
  14 Ni     2.524002    1.456725   14.114174    ( 0.0000,  0.0000,  0.6697)
  15 Ni     2.523067   -0.000205   16.158781    ( 0.0000,  0.0000,  0.6722)
  16 Ni     1.261746    2.185408   10.000000    ( 0.0000,  0.0000,  0.6703)
  17 Ni     2.523491    2.913877   12.060422    ( 0.0000,  0.0000,  0.6693)
  18 Ni     1.261755    3.642338   14.104415    ( 0.0000,  0.0000,  0.6697)
  19 Ni     1.261574    2.126110   16.140434    ( 0.0000,  0.0000,  0.6722)
  20 Ni    -0.000000    4.370815   10.000000    ( 0.0000,  0.0000,  0.6703)
  21 Ni     1.261746    5.099284   12.060422    ( 0.0000,  0.0000,  0.6693)
  22 Ni     0.000102    5.828320   14.114176    ( 0.0000,  0.0000,  0.6697)
  23 Ni    -0.051116    4.400326   16.140360    ( 0.0000,  0.0000,  0.6722)
  24 Ni     5.046982    0.000000   10.000000    ( 0.0000,  0.0000,  0.6703)
  25 Ni     6.308728    0.728469   12.060422    ( 0.0000,  0.0000,  0.6693)
  26 Ni     5.047035    1.456908   14.117007    ( 0.0000,  0.0000,  0.6697)
  27 Ni     5.047042    0.005917   16.157916    ( 0.0000,  0.0000,  0.6722)
  28 Ni     3.785237    2.185408   10.000000    ( 0.0000,  0.0000,  0.6703)
  29 Ni     5.046982    2.913877   12.060422    ( 0.0000,  0.0000,  0.6693)
  30 Ni     3.785677    3.642008   14.114174    ( 0.0000,  0.0000,  0.6697)
  31 Ni     3.790413    2.182419   16.157863    ( 0.0000,  0.0000,  0.6722)
  32 Ni     2.523491    4.370815   10.000000    ( 0.0000,  0.0000,  0.6703)
  33 Ni     3.785237    5.099284   12.060422    ( 0.0000,  0.0000,  0.6693)
  34 Ni     2.523414    5.828321   14.114241    ( 0.0000,  0.0000,  0.6697)
  35 Ni     2.574744    4.400603   16.140441    ( 0.0000,  0.0000,  0.6722)
  36 C      1.261770    3.642309   16.963395    ( 0.0000,  0.0000,  0.0000)

Unit cell:
           periodic     x           y           z      points  spacing
  1. axis:    yes    7.570474    0.000000    0.000000    36     0.1821
  2. axis:    yes   -3.785237    6.556223    0.000000    36     0.1821
  3. axis:    no     0.000000    0.000000   26.181266   144     0.1818

  Lengths:   7.570474   7.570474  26.181266
  Angles:   90.000000  90.000000 120.000000

Effective grid spacing dv^(1/3) = 0.1910

     iter     time        total  log10-change:  magmom
                         energy  eigst   dens
iter:   1 16:28:47 -2736.979507  -1.03           +21.8938
iter:   2 16:30:02 -2755.325462  -1.52  -2.11    +24.0387
iter:   3 16:31:17 -2780.982622  -1.05  -1.74    +22.8395
iter:   4 16:32:32 -2762.597559  -1.64  -1.56    +19.8914
iter:   5 16:33:47 -2752.822330  -1.47  -1.70    +23.2550
iter:   6 16:35:02 -2737.406283  -1.85  -1.93    +24.1425
iter:   7 16:36:16 -2731.690735  -1.89  -2.28    +23.3310
iter:   8 16:37:31 -2731.398216  -1.91  -2.41    +23.6339
iter:   9 16:38:46 -2732.466833  -2.33  -2.23    +23.2137
iter:  10 16:40:01 -2732.597369  -2.28  -2.39    +24.0310
iter:  11 16:41:16 -2731.852804  -2.77  -2.43    +22.8619
iter:  12 16:42:31 -2735.840748  -2.31  -2.54    +22.4440
iter:  13 16:43:46 -2732.905793  -2.36  -2.14    +21.9155
iter:  14 16:45:01 -2731.671486  -3.01  -2.33    +21.1579
iter:  15 16:46:16 -2731.692890  -3.36  -2.68    +21.1854
iter:  16 16:47:31 -2731.653468c -3.15  -2.72    +21.3044
iter:  17 16:48:46 -2731.638235c -3.74  -3.00    +21.3736
iter:  18 16:50:00 -2731.709943c -3.54  -3.16    +21.5722
iter:  19 16:51:15 -2731.739906c -3.66  -3.14    +21.8933
iter:  20 16:52:30 -2731.793199c -3.68  -3.27    +21.9093
iter:  21 16:53:45 -2731.762382c -4.26  -3.06    +21.9550
iter:  22 16:55:00 -2731.747816c -4.43  -3.30    +22.0038
iter:  23 16:56:15 -2731.749760c -4.81  -3.57    +22.0097
iter:  24 16:57:30 -2731.751893c -4.78  -3.50    +22.0158
iter:  25 16:58:45 -2731.763068c -4.55  -3.54    +22.0280
iter:  26 17:00:00 -2731.755367c -5.10  -3.46    +22.0407
iter:  27 17:01:14 -2731.757881c -5.04  -3.68    +22.0508
iter:  28 17:02:29 -2731.757486c -5.61  -3.53    +22.0531
iter:  29 17:03:44 -2731.756739c -5.00  -3.64    +22.0739
iter:  30 17:04:59 -2731.758005c -5.40  -3.95    +22.0719
iter:  31 17:06:14 -2731.756846c -5.72  -3.98    +22.0778
iter:  32 17:07:29 -2731.761121c -5.33  -3.95    +22.0772
iter:  33 17:08:44 -2731.760452c -5.64  -3.79    +22.0801
iter:  34 17:09:59 -2731.760464c -6.22  -3.95    +22.0862
iter:  35 17:11:14 -2731.758135c -5.60  -3.97    +22.0891
iter:  36 17:12:28 -2731.757795c -6.43  -4.21c   +22.0881
iter:  37 17:13:43 -2731.758246c -6.50  -4.30c   +22.0831
iter:  38 17:14:58 -2731.759293c -5.93  -4.29c   +22.0846
iter:  39 17:16:13 -2731.758727c -6.55  -4.20c   +22.0850
iter:  40 17:17:28 -2731.758312c -6.56  -4.16c   +22.0861
iter:  41 17:18:43 -2731.757899c -6.47  -4.42c   +22.0842
iter:  42 17:19:58 -2731.758044c -6.79  -4.40c   +22.0816
iter:  43 17:21:13 -2731.757787c -6.97  -4.59c   +22.0821
iter:  44 17:22:27 -2731.758035c -7.04  -4.66c   +22.0823
iter:  45 17:23:42 -2731.757857c -7.22  -4.75c   +22.0839
iter:  46 17:24:57 -2731.758000c -7.58c -4.71c   +22.0842

Converged after 46 iterations.

Dipole moment: (-2.328315, -4.570038, -0.075927) |e|*Ang

Total magnetic moment: (0.000000, 0.000000, 22.084232)
Local magnetic moments:
   0 Ni ( 0.000000,  0.000000,  0.725577)
   1 Ni ( 0.000000,  0.000000,  0.727069)
   2 Ni ( 0.000000,  0.000000,  0.670837)
   3 Ni ( 0.000000,  0.000000,  0.643232)
   4 Ni ( 0.000000,  0.000000,  0.740630)
   5 Ni ( 0.000000,  0.000000,  0.731838)
   6 Ni ( 0.000000,  0.000000,  0.672064)
   7 Ni ( 0.000000,  0.000000,  0.692180)
   8 Ni ( 0.000000,  0.000000,  0.724059)
   9 Ni ( 0.000000,  0.000000,  0.724656)
  10 Ni ( 0.000000,  0.000000,  0.709676)
  11 Ni ( 0.000000,  0.000000,  0.650814)
  12 Ni ( 0.000000,  0.000000,  0.724064)
  13 Ni ( 0.000000,  0.000000,  0.716191)
  14 Ni ( 0.000000,  0.000000,  0.667669)
  15 Ni ( 0.000000,  0.000000,  0.650820)
  16 Ni ( 0.000000,  0.000000,  0.728833)
  17 Ni ( 0.000000,  0.000000,  0.732036)
  18 Ni ( 0.000000,  0.000000,  0.712920)
  19 Ni ( 0.000000,  0.000000,  0.160932)
  20 Ni ( 0.000000,  0.000000,  0.727682)
  21 Ni ( 0.000000,  0.000000,  0.731812)
  22 Ni ( 0.000000,  0.000000,  0.672083)
  23 Ni ( 0.000000,  0.000000,  0.160143)
  24 Ni ( 0.000000,  0.000000,  0.740629)
  25 Ni ( 0.000000,  0.000000,  0.717295)
  26 Ni ( 0.000000,  0.000000,  0.728813)
  27 Ni ( 0.000000,  0.000000,  0.692185)
  28 Ni ( 0.000000,  0.000000,  0.739437)
  29 Ni ( 0.000000,  0.000000,  0.716197)
  30 Ni ( 0.000000,  0.000000,  0.667662)
  31 Ni ( 0.000000,  0.000000,  0.694177)
  32 Ni ( 0.000000,  0.000000,  0.728822)
  33 Ni ( 0.000000,  0.000000,  0.727064)
  34 Ni ( 0.000000,  0.000000,  0.670848)
  35 Ni ( 0.000000,  0.000000,  0.160902)
  36 C  ( 0.000000,  0.000000, -0.011267)

Energy contributions relative to reference atoms: (reference = -1490275.572218)

Kinetic:       +946.712806
Potential:     -821.620548
External:        +0.000000
XC:            -2859.209624
Entropy (-ST):   -2.055561
Local:           +3.387147
--------------------------
Free energy:   -2732.785780
Extrapolated:  -2731.758000

Spin contamination: 2.007338 electrons
Showing only first 2 kpts
                      Up                     Down
 Kpt  Band  Eigenvalues  Occupancy  Eigenvalues  Occupancy
  0   288     -6.00158    0.99880     -5.17157    0.17195
  0   289     -5.99754    0.99876     -5.15862    0.15428
  0   290     -5.98893    0.99864     -5.14611    0.13866
  0   291     -5.96814    0.99833     -5.12872    0.11917

  1   288     -6.08293    0.99947     -5.25700    0.32792
  1   289     -6.06902    0.99939     -5.24873    0.30997
  1   290     -6.05417    0.99929     -5.23348    0.27833
  1   291     -6.04318    0.99921     -5.21367    0.24033


Fermi level: -5.32876

No gap

Forces in eV/Ang:
  0 Ni   -0.00407    0.00243    0.09690
  1 Ni   -0.00046   -0.00111   -0.10874
  2 Ni   -0.06661   -0.00555   -0.10997
  3 Ni    0.00750   -0.00438    0.00059
  4 Ni    0.00991    0.00729    0.10585
  5 Ni   -0.01324   -0.00993   -0.10683
  6 Ni   -0.03941   -0.05430   -0.11033
  7 Ni   -0.25297   -0.14815   -0.06225
  8 Ni   -0.00274   -0.00250    0.09155
  9 Ni   -0.00125    0.00078   -0.10605
 10 Ni    0.00134   -0.00089    0.02697
 11 Ni   -0.00018    0.00283   -0.00062
 12 Ni    0.00083    0.00373    0.09153
 13 Ni    0.02485    0.01438   -0.15286
 14 Ni    0.06693   -0.00665   -0.11131
 15 Ni   -0.00263   -0.00136   -0.00065
 16 Ni   -0.00193    0.00175    0.09496
 17 Ni    0.01332   -0.00764   -0.10619
 18 Ni    0.00089   -0.00067   -0.43450
 19 Ni   -0.01102   -1.11801   -0.16215
 20 Ni   -0.00046    0.00034    0.09456
 21 Ni    0.00203    0.01648   -0.10680
 22 Ni    0.02726    0.06116   -0.11033
 23 Ni   -0.95956    0.55388   -0.16862
 24 Ni   -0.00128   -0.01209    0.10583
 25 Ni   -0.02411    0.01398   -0.15427
 26 Ni    0.00115   -0.00073    0.08589
 27 Ni    0.00176    0.29300   -0.06229
 28 Ni   -0.01249    0.00730    0.10306
 29 Ni    0.00002   -0.02870   -0.15295
 30 Ni    0.03919   -0.05476   -0.11133
 31 Ni    0.25523   -0.14743   -0.06215
 32 Ni   -0.00242    0.00090    0.09497
 33 Ni    0.00080    0.00106   -0.10870
 34 Ni   -0.02856    0.06036   -0.10999
 35 Ni    0.96202    0.56803   -0.16192
 36 C     0.00599   -0.00222    1.91184

BFGS:    1 17:25:43    -2731.758000        1.9118
System changes: positions 

Initializing position-dependent things.

Density initialized from wave functions
                                          
                                          
                                          
                                          
                                          
                   C                      
          Ni    Ni     Ni                 
           NNi   NNi   NNi                
              Ni    Ni    Ni              
             Ni    Ni    Ni               
              Ni     Ni    Ni             
             Ni     Ni    Ni              
               Ni     Ni    Ni            
                 Ni    Ni     Ni          
          Ni    Ni    Ni                  
            Ni    Ni    Ni                
              Ni    Ni    Ni              
                                          
                                          
                                          
                                          

Positions:
   0 Ni    -0.000000    0.000000   10.000000    ( 0.0000,  0.0000,  0.6703)
   1 Ni     1.261746    0.728469   12.060422    ( 0.0000,  0.0000,  0.6693)
   2 Ni    -0.001889    1.456606   14.112000    ( 0.0000,  0.0000,  0.6697)
   3 Ni     0.000597   -0.000346   16.158771    ( 0.0000,  0.0000,  0.6722)
   4 Ni    -1.261746    2.185408   10.000000    ( 0.0000,  0.0000,  0.6703)
   5 Ni    -0.000000    2.913877   12.060422    ( 0.0000,  0.0000,  0.6693)
   6 Ni    -1.262991    3.640866   14.111928    ( 0.0000,  0.0000,  0.6697)
   7 Ni    -1.272033    2.179356   16.156640    ( 0.0000,  0.0000,  0.6722)
   8 Ni    -2.523491    4.370815   10.000000    ( 0.0000,  0.0000,  0.6703)
   9 Ni    -1.261746    5.099284   12.060422    ( 0.0000,  0.0000,  0.6693)
  10 Ni    -2.523486    5.827746   14.116413    ( 0.0000,  0.0000,  0.6697)
  11 Ni    -2.523530    4.371346   16.158765    ( 0.0000,  0.0000,  0.6722)
  12 Ni     2.523491    0.000000   10.000000    ( 0.0000,  0.0000,  0.6703)
  13 Ni     3.785237    0.728469   12.060422    ( 0.0000,  0.0000,  0.6693)
  14 Ni     2.525366    1.456588   14.111906    ( 0.0000,  0.0000,  0.6697)
  15 Ni     2.523009   -0.000235   16.158764    ( 0.0000,  0.0000,  0.6722)
  16 Ni     1.261746    2.185408   10.000000    ( 0.0000,  0.0000,  0.6703)
  17 Ni     2.523491    2.913877   12.060422    ( 0.0000,  0.0000,  0.6693)
  18 Ni     1.261774    3.642324   14.095473    ( 0.0000,  0.0000,  0.6697)
  19 Ni     1.261348    2.102715   16.136918    ( 0.0000,  0.0000,  0.6722)
  20 Ni    -0.000000    4.370815   10.000000    ( 0.0000,  0.0000,  0.6703)
  21 Ni     1.261746    5.099284   12.060422    ( 0.0000,  0.0000,  0.6693)
  22 Ni     0.000657    5.829568   14.111928    ( 0.0000,  0.0000,  0.6697)
  23 Ni    -0.071198    4.411918   16.136713    ( 0.0000,  0.0000,  0.6722)
  24 Ni     5.046982    0.000000   10.000000    ( 0.0000,  0.0000,  0.6703)
  25 Ni     6.308728    0.728469   12.060422    ( 0.0000,  0.0000,  0.6693)
  26 Ni     5.047058    1.456893   14.118773    ( 0.0000,  0.0000,  0.6697)
  27 Ni     5.047078    0.011932   16.156637    ( 0.0000,  0.0000,  0.6722)
  28 Ni     3.785237    2.185408   10.000000    ( 0.0000,  0.0000,  0.6703)
  29 Ni     5.046982    2.913877   12.060422    ( 0.0000,  0.0000,  0.6693)
  30 Ni     3.786477    3.640893   14.111905    ( 0.0000,  0.0000,  0.6697)
  31 Ni     3.795652    2.179392   16.156588    ( 0.0000,  0.0000,  0.6722)
  32 Ni     2.523491    4.370815   10.000000    ( 0.0000,  0.0000,  0.6703)
  33 Ni     3.785237    5.099284   12.060422    ( 0.0000,  0.0000,  0.6693)
  34 Ni     2.522833    5.829552   14.111999    ( 0.0000,  0.0000,  0.6697)
  35 Ni     2.594877    4.412485   16.136930    ( 0.0000,  0.0000,  0.6722)
  36 C      1.261892    3.642264   17.003092    ( 0.0000,  0.0000,  0.0000)

Unit cell:
           periodic     x           y           z      points  spacing
  1. axis:    yes    7.570474    0.000000    0.000000    36     0.1821
  2. axis:    yes   -3.785237    6.556223    0.000000    36     0.1821
  3. axis:    no     0.000000    0.000000   26.181266   144     0.1818

  Lengths:   7.570474   7.570474  26.181266
  Angles:   90.000000  90.000000 120.000000

Effective grid spacing dv^(1/3) = 0.1910

     iter     time        total  log10-change:  magmom
                         energy  eigst   dens
iter:   1 17:29:13 -2733.527149  -1.79           +22.0844
iter:   2 17:30:28 -2759.635015  -1.67  -2.29    +23.1656
iter:   3 17:31:42 -2733.557303  -1.82  -1.72    +21.8941
iter:   4 17:32:57 -2732.022195  -2.62  -2.32    +21.3029
iter:   5 17:34:12 -2731.877356  -3.31  -2.68    +21.5231
iter:   6 17:35:26 -2731.960871c -3.37  -2.85    +21.5536
iter:   7 17:36:41 -2731.843921c -3.81  -2.76    +21.6665
iter:   8 17:37:56 -2731.910203c -3.95  -3.03    +21.7146
iter:   9 17:39:10 -2731.835253c -3.98  -2.96    +21.8817
iter:  10 17:40:25 -2731.838676c -4.36  -3.42    +21.9277
iter:  11 17:41:40 -2731.858718c -4.36  -3.41    +22.0082
iter:  12 17:42:55 -2731.864281c -4.33  -3.34    +21.9527
iter:  13 17:44:09 -2731.847757c -4.78  -3.25    +22.0001
iter:  14 17:45:24 -2731.848984c -4.79  -3.79    +22.0102
iter:  15 17:46:39 -2731.851418c -5.36  -3.61    +22.0316
iter:  16 17:47:53 -2731.861629c -4.44  -3.64    +22.0626
iter:  17 17:49:08 -2731.874195c -4.27  -3.59    +22.1033
iter:  18 17:50:23 -2731.961923c -3.52  -3.37    +22.2076
iter:  19 17:51:38 -2731.851359c -3.38  -2.93    +22.0514
iter:  20 17:52:52 -2731.798551c -3.10  -3.81    +21.9043
iter:  21 17:54:07 -2731.947377c -2.94  -3.16    +22.1759
iter:  22 17:55:22 -2731.741749c -2.26  -2.98    +21.5682
iter:  23 17:56:37 -2732.232924  -2.00  -2.68    +22.4621
iter:  24 17:57:51 -2731.771131  -2.33  -2.59    +21.6038
iter:  25 17:59:06 -2731.772468  -2.85  -2.93    +21.4648
iter:  26 18:00:21 -2731.784720c -3.68  -2.76    +21.6368
iter:  27 18:01:35 -2731.806945c -3.76  -3.00    +21.7622
iter:  28 18:02:50 -2731.824316c -3.76  -3.16    +21.8930
iter:  29 18:04:05 -2731.825694c -4.60  -3.41    +21.8843
iter:  30 18:05:20 -2731.833052c -4.56  -3.38    +21.9229
iter:  31 18:06:35 -2731.837650c -4.53  -3.47    +21.9696
iter:  32 18:07:49 -2731.822070c -4.40  -3.80    +21.9053
iter:  33 18:09:04 -2731.828450c -4.85  -3.39    +21.9441
iter:  34 18:10:19 -2731.809419c -4.08  -3.78    +21.8793
iter:  35 18:11:34 -2731.787598c -2.94  -3.25    +21.6488
iter:  36 18:12:48 -2731.830146c -2.95  -2.77    +21.9588
iter:  37 18:14:03 -2731.820605c -4.38  -3.86    +21.9054
iter:  38 18:15:18 -2731.824944c -4.67  -3.51    +21.9124
iter:  39 18:16:32 -2731.822572c -5.69  -3.61    +21.9091
iter:  40 18:17:47 -2731.830772c -4.79  -3.52    +21.9382
iter:  41 18:19:02 -2731.817133c -4.52  -3.78    +21.8844
iter:  42 18:20:17 -2731.830844c -4.55  -3.42    +21.9369
iter:  43 18:21:31 -2731.819924c -4.51  -3.87    +21.8802
iter:  44 18:22:46 -2731.800916c -3.52  -3.36    +21.7708
iter:  45 18:24:01 -2731.819454c -3.89  -2.99    +21.8789
iter:  46 18:25:16 -2731.864459c -3.30  -3.33    +22.0548
iter:  47 18:26:30 -2731.812363c -2.90  -3.53    +21.7001
iter:  48 18:27:45 -2731.802953c -2.64  -2.88    +21.3601
iter:  49 18:29:00 -2731.816147c -2.76  -2.60    +21.8670
iter:  50 18:30:14 -2731.869112c -2.80  -3.11    +22.1917
iter:  51 18:31:29 -2731.828502c -3.88  -3.48    +21.9545
iter:  52 18:32:44 -2731.820542c -4.43  -3.41    +21.8949
iter:  53 18:33:59 -2731.828374c -4.83  -3.28    +21.9434
iter:  54 18:35:13 -2731.807424c -3.18  -3.48    +21.6781
iter:  55 18:36:28 -2731.819831c -3.66  -2.87    +21.8759
iter:  56 18:37:43 -2731.858568c -3.28  -3.25    +22.0729
iter:  57 18:38:57 -2731.811296c -3.12  -3.65    +21.7538
iter:  58 18:40:12 -2731.767947c -2.33  -2.95    +21.1965
iter:  59 18:41:27 -2731.815853c -2.50  -2.53    +21.8961
iter:  60 18:42:42 -2731.863615c -2.80  -3.17    +22.1862
iter:  61 18:43:56 -2731.838403c -4.25  -3.57    +22.0243
iter:  62 18:45:11 -2731.840126c -4.67  -3.95    +22.0013
iter:  63 18:46:26 -2731.845951c -4.89  -4.31c   +22.0362
iter:  64 18:47:40 -2731.838033c -5.38  -4.28c   +21.9640
iter:  65 18:48:55 -2731.845201c -5.02  -4.15c   +21.9792
iter:  66 18:50:11 -2731.817655c -3.79  -4.11c   +21.9180
iter:  67 18:51:26 -2731.802299c -3.29  -3.37    +21.7949
iter:  68 18:52:40 -2731.806305c -4.71  -2.95    +21.7998
iter:  69 18:53:55 -2731.810847c -4.42  -3.03    +21.8324
iter:  70 18:55:10 -2731.808057c -5.37  -3.17    +21.8389
iter:  71 18:56:25 -2731.813031c -4.83  -3.18    +21.8649
iter:  72 18:57:39 -2731.820589c -4.26  -3.26    +21.9140
iter:  73 18:58:54 -2731.800215c -3.95  -3.56    +21.8159
iter:  74 19:00:09 -2731.787490c -3.43  -3.11    +21.6554
iter:  75 19:01:24 -2731.812252c -3.42  -2.87    +21.8776
iter:  76 19:02:38 -2731.811307c -4.74  -3.33    +21.7887
iter:  77 19:03:53 -2731.810196c -5.36  -3.09    +21.7951
iter:  78 19:05:08 -2731.816169c -5.06  -3.07    +21.8270
iter:  79 19:06:22 -2731.833352c -3.65  -3.12    +22.0017
iter:  80 19:07:37 -2731.790633c -2.96  -3.62    +21.5833
iter:  81 19:08:52 -2731.960807c -2.44  -2.82    +22.3606
iter:  82 19:10:07 -2731.704482c -1.93  -2.92    +20.9960
iter:  83 19:11:21 -2732.525343  -1.52  -2.52    +23.2896
iter:  84 19:12:36 -2731.793384  -1.94  -2.38    +21.3004
iter:  85 19:13:51 -2731.813723  -3.55  -2.82    +21.7524
iter:  86 19:15:06 -2731.798682c -3.97  -3.70    +21.6944
iter:  87 19:16:20 -2731.788515c -3.22  -3.26    +21.6438
iter:  88 19:17:35 -2731.790756c -4.07  -2.90    +21.7315
iter:  89 19:18:50 -2731.792928c -5.12  -3.14    +21.7243
iter:  90 19:20:05 -2731.807178c -5.14  -3.06    +21.7402
iter:  91 19:21:20 -2731.814629c -5.02  -3.02    +21.8012
iter:  92 19:22:34 -2731.827364c -4.26  -3.04    +21.9038
iter:  93 19:23:49 -2731.779212c -4.70  -3.13    +21.8615
iter:  94 19:25:04 -2731.777723c -4.86  -3.46    +21.9342
iter:  95 19:26:19 -2731.753877c -4.36  -3.55    +21.7372
iter:  96 19:27:33 -2731.811277c -4.06  -3.53    +21.7555
iter:  97 19:28:48 -2731.828702c -4.02  -3.39    +21.8440
iter:  98 19:30:03 -2731.837163c -4.32  -3.69    +21.8678
iter:  99 19:31:18 -2731.854816c -4.10  -4.01c   +21.9639
iter: 100 19:32:33 -2731.876589c -3.93  -3.69    +22.0661
iter: 101 19:33:47 -2731.860772c -4.74  -3.34    +21.9928
iter: 102 19:35:02 -2731.884472c -4.46  -3.56    +22.0581
iter: 103 19:36:17 -2731.843287c -3.94  -3.28    +21.9474
iter: 104 19:37:32 -2731.824158c -3.95  -4.14c   +21.9085
iter: 105 19:38:46 -2731.853245c -4.18  -3.63    +21.9929
iter: 106 19:40:01 -2731.796756c -3.11  -3.68    +21.7526
iter: 107 19:41:16 -2731.780286c -3.02  -3.00    +21.5588
iter: 108 19:42:31 -2731.865873c -2.62  -2.76    +22.1105
iter: 109 19:43:46 -2731.708908c -2.14  -3.48    +21.0563
iter: 110 19:45:00 -2732.276543  -1.70  -2.54    +22.9276
iter: 111 19:46:15 -2731.766102  -1.82  -2.53    +20.8236
iter: 112 19:47:30 -2731.777688  -2.50  -2.54    +20.5178
iter: 113 19:48:45 -2731.812905c -3.46  -2.48    +20.8949
iter: 114 19:49:59 -2731.796666c -3.23  -2.58    +21.3370
iter: 115 19:51:14 -2731.822790c -3.43  -2.70    +21.5354
iter: 116 19:52:29 -2731.806774c -4.02  -2.77    +21.5758
iter: 117 19:53:43 -2731.801227c -4.81  -2.79    +21.5738
iter: 118 19:54:58 -2731.813014c -4.74  -2.79    +21.5942
iter: 119 19:56:13 -2731.751383c -4.57  -2.79    +21.6533
iter: 120 19:57:28 -2731.739795c -3.23  -2.89    +21.6432
iter: 121 19:58:43 -2731.582889c -3.95  -2.80    +21.6589
iter: 122 19:59:57 -2731.680637c -3.54  -3.34    +21.6991
iter: 123 20:01:12 -2731.718028c -3.58  -3.15    +21.4382
iter: 124 20:02:27 -2731.744123c -2.87  -3.27    +21.2668
iter: 125 20:03:42 -2731.775653c -3.79  -2.96    +21.4134
iter: 126 20:04:56 -2731.845750c -3.27  -3.12    +21.7184
iter: 127 20:06:11 -2731.856353c -3.74  -3.41    +21.7811
iter: 128 20:07:26 -2731.863683c -3.78  -3.36    +21.9488
iter: 129 20:08:41 -2731.917369c -3.99  -3.30    +21.9887
iter: 130 20:09:55 -2731.871810c -4.27  -2.94    +22.0299
iter: 131 20:11:10 -2731.878069c -4.50  -3.33    +22.0728
iter: 132 20:12:25 -2731.965844c -3.66  -3.31    +22.1938
iter: 133 20:13:40 -2731.848585c -3.50  -2.97    +22.0040
iter: 134 20:14:54 -2731.893580c -4.12  -3.41    +22.0597
iter: 135 20:16:09 -2731.941906c -3.68  -3.19    +22.1534
iter: 136 20:17:24 -2731.949647c -4.66  -2.99    +22.1368
iter: 137 20:18:39 -2732.044150c -4.06  -2.99    +22.1960
iter: 138 20:19:53 -2731.935016c -4.04  -2.83    +22.1411
iter: 139 20:21:08 -2731.918090c -4.01  -3.04    +22.1153
iter: 140 20:22:23 -2731.962343c -3.58  -3.09    +22.1939
iter: 141 20:23:38 -2731.982488c -4.13  -2.85    +22.1602
iter: 142 20:24:52 -2732.009499c -4.07  -2.87    +22.1874
iter: 143 20:26:07 -2731.893444c -3.61  -2.80    +22.2119
iter: 144 20:27:22 -2732.094832c -4.21  -2.88    +22.2183
iter: 145 20:28:37 -2732.104886c -4.11  -2.70    +22.2367
iter: 146 20:29:51 -2732.073793c -4.07  -2.67    +22.2396
iter: 147 20:31:06 -2731.723072  -3.51  -2.65    +22.2404
iter: 148 20:32:21 -2731.568097  -3.47  -2.84    +22.2404
iter: 149 20:33:36 -2731.540107c -3.74  -3.00    +22.2683
iter: 150 20:34:50 -2731.617815c -3.59  -3.16    +22.1697
iter: 151 20:36:05 -2731.780859c -3.36  -3.20    +22.0595
iter: 152 20:37:20 -2731.820811c -3.57  -3.35    +22.0782
iter: 153 20:38:35 -2731.860945c -3.41  -3.56    +22.1552
iter: 154 20:39:49 -2731.861519c -4.37  -3.31    +22.1395
iter: 155 20:41:04 -2731.861385c -4.80  -3.31    +22.1624
iter: 156 20:42:19 -2731.861852c -5.30  -3.25    +22.1731
iter: 157 20:43:34 -2731.839533c -4.62  -3.28    +22.1842
iter: 158 20:44:49 -2731.847310c -4.98  -3.53    +22.1901
iter: 159 20:46:03 -2731.854934c -4.94  -3.40    +22.1923
iter: 160 20:47:18 -2731.855982c -5.87  -3.44    +22.1923
iter: 161 20:48:33 -2731.853580c -5.24  -3.39    +22.1881
iter: 162 20:49:48 -2731.860048c -4.98  -3.45    +22.1963
iter: 163 20:51:02 -2731.843283c -5.00  -3.54    +22.1859
iter: 164 20:52:17 -2731.845529c -4.71  -3.80    +22.1961
iter: 165 20:53:32 -2731.852933c -4.97  -3.87    +22.2052
iter: 166 20:54:47 -2731.860766c -4.66  -4.13c   +22.2074
iter: 167 20:56:01 -2731.856762c -5.69  -3.95    +22.2091
iter: 168 20:57:16 -2731.855249c -5.13  -4.32c   +22.2152
iter: 169 20:58:31 -2731.862189c -5.11  -4.05c   +22.2161
iter: 170 20:59:45 -2731.854636c -5.10  -3.73    +22.2143
iter: 171 21:01:00 -2731.841540c -4.18  -4.00c   +22.2166
iter: 172 21:02:15 -2731.835928c -4.23  -3.60    +22.2223
iter: 173 21:03:30 -2731.830621c -3.54  -3.37    +22.2370
iter: 174 21:04:44 -2731.824987c -4.26  -3.04    +22.2290
iter: 175 21:05:59 -2731.820602c -4.18  -3.32    +22.2373
iter: 176 21:07:14 -2731.837045c -4.10  -3.08    +22.2351
iter: 177 21:08:29 -2731.844064c -4.72  -2.96    +22.2291
iter: 178 21:09:44 -2731.890930c -4.65  -2.95    +22.2334
iter: 179 21:10:58 -2731.837416c -5.50  -2.87    +22.2291
iter: 180 21:12:13 -2731.789913c -5.12  -2.95    +22.2248
iter: 181 21:13:28 -2731.742100c -4.00  -3.03    +22.2267
iter: 182 21:14:43 -2731.738398c -4.18  -3.04    +22.2224
iter: 183 21:15:57 -2731.752518c -4.24  -3.01    +22.1698
iter: 184 21:17:12 -2731.781207c -3.86  -3.24    +22.1463
iter: 185 21:18:27 -2731.814178c -4.06  -3.58    +22.1782
iter: 186 21:19:41 -2731.839593c -4.10  -3.72    +22.1832
iter: 187 21:20:56 -2731.900752c -3.57  -3.70    +22.2091
iter: 188 21:22:11 -2731.889928c -4.77  -3.30    +22.2004
iter: 189 21:23:26 -2731.957404c -3.90  -3.33    +22.2142
iter: 190 21:24:40 -2731.879295c -3.82  -3.07    +22.2047
iter: 191 21:25:55 -2732.163149c -3.02  -3.33    +22.2223
iter: 192 21:27:10 -2732.064270c -4.04  -2.77    +22.2268
iter: 193 21:28:25 -2732.275033c -3.12  -2.86    +22.2463
iter: 194 21:29:39 -2732.243793c -3.61  -2.66    +22.2439
iter: 195 21:30:54 -2732.339220c -3.34  -2.64    +22.1583
iter: 196 21:32:09 -2732.443596c -3.71  -2.56    +22.1335
iter: 197 21:33:24 -2732.255135c -4.24  -2.53    +22.1413
iter: 198 21:34:38 -2731.807369  -3.13  -2.57    +22.0511
iter: 199 21:35:53 -2732.014055  -3.97  -2.64    +22.0207
iter: 200 21:37:08 -2731.397036  -2.98  -2.62    +21.9493
iter: 201 21:38:23 -2731.327451  -3.58  -2.83    +21.7767
iter: 202 21:39:37 -2731.411612c -3.35  -2.86    +21.8253
iter: 203 21:40:52 -2731.475291c -3.30  -3.00    +21.5860
iter: 204 21:42:07 -2731.655971c -3.22  -3.22    +21.0904
iter: 205 21:43:22 -2731.805019  -3.11  -3.37    +21.1933
iter: 206 21:44:36 -2731.779952c -3.83  -3.09    +21.3430
iter: 207 21:45:51 -2731.823411c -3.71  -3.57    +21.4978
iter: 208 21:47:06 -2731.848915c -3.78  -3.61    +21.7454
iter: 209 21:48:21 -2731.844371c -4.36  -3.36    +21.8248
iter: 210 21:49:36 -2731.856211c -4.32  -3.61    +21.9177
iter: 211 21:50:51 -2731.854479c -4.57  -3.51    +22.0168
iter: 212 21:52:06 -2731.856682c -4.97  -3.73    +22.0202
iter: 213 21:53:20 -2731.861357c -4.73  -3.71    +22.0694
iter: 214 21:54:35 -2731.857897c -5.22  -3.94    +22.0706
iter: 215 21:55:50 -2731.861555c -5.16  -3.87    +22.0916
iter: 216 21:57:05 -2731.857713c -5.53  -3.69    +22.0815
iter: 217 21:58:19 -2731.860911c -5.46  -3.96    +22.0915
iter: 218 21:59:34 -2731.860793c -6.06  -3.73    +22.0871
iter: 219 22:00:49 -2731.871698c -5.07  -3.66    +22.1238
iter: 220 22:02:04 -2731.860485c -4.74  -3.50    +22.0632
iter: 221 22:03:19 -2731.873084c -4.56  -3.62    +22.1173
iter: 222 22:04:33 -2731.892987c -4.41  -3.44    +22.1473
iter: 223 22:05:48 -2731.854531c -3.90  -3.21    +22.0791
iter: 224 22:07:03 -2731.841587c -3.72  -4.07c   +22.0435
iter: 225 22:08:18 -2731.854571c -4.28  -3.38    +22.0882
iter: 226 22:09:32 -2731.844236c -3.38  -4.26c   +21.9825
iter: 227 22:10:47 -2731.841708c -4.35  -3.03    +22.0376
iter: 228 22:12:02 -2731.841950c -5.22  -3.32    +22.0232
iter: 229 22:13:16 -2731.838426c -4.28  -3.22    +21.9958
iter: 230 22:14:31 -2731.834131c -5.10  -3.09    +22.0067
iter: 231 22:15:46 -2731.833572c -4.54  -3.21    +21.9783
iter: 232 22:17:01 -2731.860731c -4.81  -3.06    +21.9748
iter: 233 22:18:15 -2731.825890c -5.00  -3.05    +21.9813
iter: 234 22:19:30 -2731.820938c -5.19  -3.13    +21.9839
iter: 235 22:20:45 -2731.798823c -5.12  -3.19    +21.9671
iter: 236 22:22:00 -2731.811832c -4.20  -3.21    +22.0281
iter: 237 22:23:15 -2731.817457c -3.89  -3.52    +21.9111
iter: 238 22:24:29 -2731.852458c -4.21  -3.02    +21.8850
iter: 239 22:25:44 -2731.812003c -4.57  -2.90    +21.9138
iter: 240 22:26:59 -2731.737070c -4.75  -2.94    +21.9144
iter: 241 22:28:14 -2731.746714c -4.75  -3.18    +21.9284
iter: 242 22:29:28 -2731.680853c -3.58  -3.05    +21.9820
iter: 243 22:30:43 -2731.772579c -2.92  -2.93    +21.9230
iter: 244 22:31:58 -2731.560511c -2.37  -3.45    +21.9172
iter: 245 22:33:13 -2731.666510c -3.70  -2.63    +21.8349
iter: 246 22:34:27 -2731.746897c -3.79  -2.72    +21.8337
iter: 247 22:35:42 -2731.921977c -3.09  -2.74    +21.9877
iter: 248 22:36:57 -2731.732551c -3.33  -2.74    +21.7998
iter: 249 22:38:12 -2731.631855  -3.36  -2.73    +21.7699
iter: 250 22:39:26 -2732.808220  -2.63  -2.72    +21.8727
iter: 251 22:40:41 -2731.767430  -3.38  -2.43    +21.8085
iter: 252 22:41:56 -2731.711748  -3.32  -2.78    +21.6542
iter: 253 22:43:11 -2732.013879  -3.04  -3.01    +21.6945
iter: 254 22:44:25 -2731.709208  -3.92  -2.65    +21.7026
iter: 255 22:45:40 -2731.738122  -3.62  -3.43    +21.8613
iter: 256 22:46:55 -2731.809871c -3.79  -3.51    +21.8218
iter: 257 22:48:09 -2731.871975c -3.37  -3.62    +21.9036
iter: 258 22:49:25 -2731.894762c -3.62  -3.44    +22.0372
iter: 259 22:50:39 -2731.952259c -3.50  -3.26    +22.1751
iter: 260 22:51:54 -2731.892348c -4.30  -3.01    +22.0733
iter: 261 22:53:09 -2731.918166c -4.74  -3.25    +22.1265
iter: 262 22:54:23 -2731.887669c -4.83  -3.11    +22.1290
iter: 263 22:55:38 -2731.889597c -4.78  -3.20    +22.1534
iter: 264 22:56:53 -2731.899157c -4.62  -3.17    +22.1894
iter: 265 22:58:08 -2731.856324c -4.77  -3.08    +22.1794
iter: 266 22:59:22 -2731.839973c -4.39  -3.30    +22.2024
iter: 267 23:00:37 -2731.844794c -4.58  -3.36    +22.1971
iter: 268 23:01:52 -2731.838864c -4.61  -3.41    +22.2024
iter: 269 23:03:07 -2731.845967c -5.24  -3.73    +22.2127
iter: 270 23:04:21 -2731.843887c -5.31  -3.50    +22.2198
iter: 271 23:05:36 -2731.848825c -5.17  -3.62    +22.2092
iter: 272 23:06:51 -2731.858316c -4.74  -3.57    +22.2019
iter: 273 23:08:06 -2731.857664c -5.21  -3.44    +22.1972
iter: 274 23:09:20 -2731.868608c -4.76  -3.47    +22.1890
iter: 275 23:10:35 -2731.853941c -4.73  -3.37    +22.1948
iter: 276 23:11:50 -2731.857787c -4.60  -3.79    +22.1936
iter: 277 23:13:05 -2731.858589c -4.94  -3.62    +22.1989
iter: 278 23:14:19 -2731.860889c -4.93  -3.86    +22.1936
iter: 279 23:15:34 -2731.860149c -5.80  -3.68    +22.1918
iter: 280 23:16:49 -2731.861175c -5.62  -3.84    +22.1933
iter: 281 23:18:04 -2731.861755c -5.38  -3.95    +22.1915
iter: 282 23:19:18 -2731.861711c -5.63  -4.08c   +22.1888
iter: 283 23:20:33 -2731.860601c -5.63  -3.92    +22.1855
iter: 284 23:21:48 -2731.862109c -6.02  -4.13c   +22.1830
iter: 285 23:23:02 -2731.861785c -6.22  -4.09c   +22.1871
iter: 286 23:24:17 -2731.861268c -5.69  -3.99    +22.1840
iter: 287 23:25:32 -2731.861592c -6.34  -4.31c   +22.1846
iter: 288 23:26:47 -2731.861537c -6.28  -4.34c   +22.1865
iter: 289 23:28:02 -2731.861644c -6.20  -4.57c   +22.1887
iter: 290 23:29:17 -2731.861581c -6.75  -4.45c   +22.1887
iter: 291 23:30:32 -2731.861578c -6.81  -4.37c   +22.1871
iter: 292 23:31:47 -2731.861417c -7.21  -4.55c   +22.1871
iter: 293 23:33:02 -2731.861755c -6.90  -4.72c   +22.1864
iter: 294 23:34:16 -2731.861408c -7.25  -4.75c   +22.1858
iter: 295 23:35:31 -2731.861209c -7.02  -4.82c   +22.1852
iter: 296 23:36:46 -2731.861965c -6.65  -4.90c   +22.1859
iter: 297 23:38:01 -2731.860092c -5.57  -4.55c   +22.1866
iter: 298 23:39:16 -2731.859550c -5.82  -4.32c   +22.1924
iter: 299 23:40:30 -2731.858424c -5.34  -4.16c   +22.2057
iter: 300 23:41:45 -2731.858623c -6.27  -3.88    +22.2044
iter: 301 23:43:00 -2731.858259c -7.04  -3.90    +22.2038
iter: 302 23:44:15 -2731.858189c -7.02  -3.98    +22.2035
iter: 303 23:45:30 -2731.858178c -7.10  -4.04c   +22.2033
iter: 304 23:46:44 -2731.858825c -5.42  -4.03c   +22.2017
iter: 305 23:47:59 -2731.858633c -5.48  -4.01c   +22.2030
iter: 306 23:49:14 -2731.859676c -5.06  -4.10c   +22.2019
iter: 307 23:50:30 -2731.859529c -5.13  -3.92    +22.2034
iter: 308 23:51:44 -2731.860798c -3.91  -4.20c   +22.2071
iter: 309 23:52:59 -2731.860931c -5.32  -3.40    +22.2071
iter: 310 23:54:14 -2731.861715c -4.98  -3.56    +22.2039
iter: 311 23:55:29 -2731.860546c -5.71  -3.76    +22.2013
iter: 312 23:56:44 -2731.859929c -5.98  -3.79    +22.1993
iter: 313 23:57:59 -2731.860799c -5.80  -3.93    +22.1942
iter: 314 23:59:13 -2731.859219c -5.82  -3.63    +22.1940
iter: 315 00:00:28 -2731.856696c -5.91  -3.81    +22.1913
iter: 316 00:01:43 -2731.858083c -6.04  -4.19c   +22.1923
iter: 317 00:02:58 -2731.857861c -6.08  -4.61c   +22.1923
iter: 318 00:04:13 -2731.860237c -5.19  -4.54c   +22.1977
iter: 319 00:05:28 -2731.864240c -4.80  -4.10c   +22.2003
iter: 320 00:06:43 -2731.876938c -4.26  -3.73    +22.1938
iter: 321 00:07:57 -2731.853001c -3.60  -3.36    +22.2162
iter: 322 00:09:12 -2731.850947c -4.41  -3.54    +22.2197
iter: 323 00:10:27 -2731.851709c -5.65  -3.51    +22.2170
iter: 324 00:11:42 -2731.851926c -4.82  -3.67    +22.2218
iter: 325 00:12:57 -2731.851308c -4.40  -3.39    +22.2287
iter: 326 00:14:12 -2731.850049c -5.15  -3.22    +22.2296
iter: 327 00:15:26 -2731.851579c -5.14  -3.23    +22.2288
iter: 328 00:16:41 -2731.853517c -6.10  -3.25    +22.2295
iter: 329 00:17:56 -2731.851057c -6.02  -3.24    +22.2308
iter: 330 00:19:11 -2731.831072c -4.30  -3.26    +22.2312
iter: 331 00:20:26 -2731.826124c -5.26  -3.62    +22.2318
iter: 332 00:21:41 -2731.823654c -5.38  -3.69    +22.2222
iter: 333 00:22:56 -2731.823787c -5.08  -4.14c   +22.2300
iter: 334 00:24:11 -2731.836425c -3.81  -3.90    +22.2228
iter: 335 00:25:26 -2731.855411c -4.39  -3.30    +22.2179
iter: 336 00:26:41 -2731.922929c -3.48  -3.41    +22.2082
iter: 337 00:27:56 -2731.992676c -3.56  -3.13    +22.1957
iter: 338 00:29:11 -2731.842440c -3.13  -2.93    +22.2383
iter: 339 00:30:26 -2731.819724c -3.69  -3.44    +22.2423
iter: 340 00:31:40 -2731.841535c -4.78  -3.40    +22.2397
iter: 341 00:32:55 -2731.850337c -4.14  -3.43    +22.2394
iter: 342 00:34:10 -2731.848305c -4.96  -3.49    +22.2392
iter: 343 00:35:25 -2731.839228c -5.15  -3.44    +22.2415
iter: 344 00:36:40 -2731.841392c -5.08  -3.70    +22.2377
iter: 345 00:37:55 -2731.840517c -5.19  -3.70    +22.2610
iter: 346 00:39:10 -2731.858704c -3.99  -3.67    +22.2077
iter: 347 00:40:25 -2731.865978c -3.60  -3.41    +22.1955
iter: 348 00:41:40 -2731.862296c -4.43  -3.22    +22.2100
iter: 349 00:42:55 -2731.883105c -4.29  -3.35    +22.1949
iter: 350 00:44:10 -2731.893170c -4.84  -3.25    +22.1983
iter: 351 00:45:25 -2731.886451c -5.28  -3.18    +22.1987
iter: 352 00:46:40 -2731.867464c -4.69  -3.22    +22.1960
iter: 353 00:47:55 -2731.863935c -4.80  -3.37    +22.1764
iter: 354 00:49:10 -2731.853395c -4.94  -3.44    +22.1763
iter: 355 00:50:25 -2731.856745c -5.28  -3.66    +22.1623
iter: 356 00:51:40 -2731.859542c -5.00  -3.57    +22.1440
iter: 357 00:52:55 -2731.864968c -4.76  -3.60    +22.1350
iter: 358 00:54:09 -2731.870719c -4.87  -3.68    +22.1423
iter: 359 00:55:24 -2731.875003c -5.40  -3.41    +22.1548
iter: 360 00:56:39 -2731.859769c -4.86  -3.36    +22.1489
iter: 361 00:57:54 -2731.860612c -5.47  -3.67    +22.1550
iter: 362 00:59:09 -2731.861331c -5.91  -3.76    +22.1609
iter: 363 01:00:24 -2731.863890c -5.22  -3.75    +22.1724
iter: 364 01:01:39 -2731.861439c -5.81  -3.84    +22.1629
iter: 365 01:02:54 -2731.862245c -5.71  -3.92    +22.1631
iter: 366 01:04:09 -2731.861882c -5.87  -3.87    +22.1647
iter: 367 01:05:24 -2731.862607c -5.62  -4.17c   +22.1650
iter: 368 01:06:39 -2731.862261c -5.96  -3.88    +22.1628
iter: 369 01:07:54 -2731.861623c -6.18  -4.20c   +22.1675
iter: 370 01:09:09 -2731.862346c -6.35  -4.14c   +22.1671
iter: 371 01:10:24 -2731.861943c -6.30  -4.00c   +22.1628
iter: 372 01:11:39 -2731.862755c -6.02  -3.89    +22.1652
iter: 373 01:12:54 -2731.865069c -5.54  -3.91    +22.1605
iter: 374 01:14:09 -2731.865127c -6.26  -3.69    +22.1616
iter: 375 01:15:24 -2731.869407c -5.22  -3.74    +22.1648
iter: 376 01:16:39 -2731.864232c -5.22  -3.54    +22.1638
iter: 377 01:17:54 -2731.865487c -5.91  -3.94    +22.1687
iter: 378 01:19:09 -2731.869968c -4.71  -3.84    +22.1839
iter: 379 01:20:24 -2731.869868c -5.58  -3.57    +22.1809
iter: 380 01:21:39 -2731.871115c -5.84  -3.57    +22.1811
iter: 381 01:22:54 -2731.875107c -6.07  -3.54    +22.1806
iter: 382 01:24:09 -2731.871039c -6.31  -3.47    +22.1806
iter: 383 01:25:24 -2731.856500c -4.57  -3.53    +22.1836
iter: 384 01:26:39 -2731.858570c -5.79  -3.86    +22.1839
iter: 385 01:27:54 -2731.857667c -5.68  -3.99    +22.1796
iter: 386 01:29:09 -2731.860139c -5.26  -3.93    +22.1873
iter: 387 01:30:24 -2731.859228c -4.94  -3.84    +22.1807
iter: 388 01:31:39 -2731.860417c -4.82  -3.85    +22.1797
iter: 389 01:32:54 -2731.858236c -5.02  -3.74    +22.1881
iter: 390 01:34:09 -2731.859258c -5.93  -3.97    +22.1892
iter: 391 01:35:24 -2731.858587c -5.84  -3.83    +22.1916
iter: 392 01:36:39 -2731.857906c -6.48  -3.92    +22.1894
iter: 393 01:37:54 -2731.862985c -4.98  -3.97    +22.1948
iter: 394 01:39:09 -2731.857677c -5.46  -3.64    +22.1951
iter: 395 01:40:24 -2731.857318c -5.17  -4.44c   +22.1983
iter: 396 01:41:39 -2731.857525c -5.10  -3.96    +22.2053
iter: 397 01:42:54 -2731.859128c -5.76  -3.83    +22.2051
iter: 398 01:44:09 -2731.860922c -5.02  -3.95    +22.2034
iter: 399 01:45:24 -2731.861872c -5.18  -4.38c   +22.1977
iter: 400 01:46:39 -2731.858733c -4.82  -4.30c   +22.2092
iter: 401 01:47:54 -2731.860244c -5.27  -3.87    +22.2007
iter: 402 01:49:09 -2731.859319c -6.22  -4.28c   +22.2033
iter: 403 01:50:24 -2731.859564c -6.27  -4.12c   +22.2017
iter: 404 01:51:39 -2731.860157c -5.92  -4.31c   +22.2002
iter: 405 01:52:54 -2731.860073c -6.71  -4.68c   +22.2005
iter: 406 01:54:09 -2731.861128c -5.76  -4.86c   +22.1984
iter: 407 01:55:24 -2731.858451c -4.98  -4.42c   +22.2041
iter: 408 01:56:39 -2731.857417c -4.72  -3.98    +22.2109
iter: 409 01:57:54 -2731.856700c -4.96  -3.61    +22.2159
iter: 410 01:59:09 -2731.856325c -6.14  -3.50    +22.2139
iter: 411 02:00:24 -2731.855824c -4.68  -3.57    +22.2200
iter: 412 02:01:39 -2731.857683c -4.30  -3.35    +22.2094
iter: 413 02:02:54 -2731.858226c -5.14  -3.91    +22.2087
iter: 414 02:04:09 -2731.859546c -5.45  -3.92    +22.2068
iter: 415 02:05:24 -2731.858584c -6.53  -4.05c   +22.2068
iter: 416 02:06:39 -2731.858139c -6.51  -3.98    +22.2054
iter: 417 02:07:54 -2731.862370c -5.48  -3.95    +22.2061
iter: 418 02:09:09 -2731.858871c -6.13  -3.84    +22.2046
iter: 419 02:10:24 -2731.858393c -6.00  -4.16c   +22.2029
iter: 420 02:11:39 -2731.864299c -5.12  -4.12c   +22.2075
iter: 421 02:12:54 -2731.845993c -4.02  -3.84    +22.2067
iter: 422 02:14:09 -2731.860157c -4.34  -3.55    +22.2107
iter: 423 02:15:24 -2731.866765c -4.27  -4.47c   +22.2009
iter: 424 02:16:39 -2731.870194c -4.65  -3.72    +22.1907
iter: 425 02:17:54 -2731.871645c -5.80  -3.55    +22.1963
iter: 426 02:19:09 -2731.871974c -4.66  -3.56    +22.1638
iter: 427 02:20:24 -2731.876947c -4.50  -3.45    +22.1469
iter: 428 02:21:39 -2731.870709c -5.40  -3.30    +22.1651
iter: 429 02:22:54 -2731.873593c -5.60  -3.43    +22.1596
iter: 430 02:24:09 -2731.871382c -6.06  -3.35    +22.1596
iter: 431 02:25:24 -2731.874211c -5.60  -3.37    +22.1473
iter: 432 02:26:39 -2731.871763c -6.33  -3.32    +22.1521
iter: 433 02:27:54 -2731.866141c -5.53  -3.34    +22.1493
iter: 434 02:29:09 -2731.867281c -5.70  -3.37    +22.1442
iter: 435 02:30:24 -2731.856484c -5.13  -3.36    +22.1400
iter: 436 02:31:39 -2731.860144c -4.48  -3.50    +22.1374
iter: 437 02:32:54 -2731.846052c -5.02  -3.20    +22.1500
iter: 438 02:34:09 -2731.850202c -4.98  -3.81    +22.1583
iter: 439 02:35:24 -2731.853789c -4.84  -3.79    +22.1215
iter: 440 02:36:39 -2731.859347c -4.43  -3.98    +22.1129
iter: 441 02:37:54 -2731.862101c -4.35  -3.82    +22.1398
iter: 442 02:39:09 -2731.875151c -4.11  -3.64    +22.1931
iter: 443 02:40:24 -2731.859259c -4.42  -3.30    +22.1413
iter: 444 02:41:39 -2731.859926c -5.07  -4.05c   +22.1745
iter: 445 02:42:54 -2731.859194c -5.10  -3.78    +22.1919
iter: 446 02:44:09 -2731.859051c -5.62  -3.80    +22.1985
iter: 447 02:45:24 -2731.859870c -6.15  -3.84    +22.2011
iter: 448 02:46:39 -2731.861381c -6.12  -3.85    +22.2002
iter: 449 02:47:54 -2731.859237c -5.74  -3.74    +22.1999
iter: 450 02:49:09 -2731.858610c -6.13  -4.24c   +22.2006
iter: 451 02:50:24 -2731.859194c -6.11  -4.07c   +22.1917
iter: 452 02:51:39 -2731.860672c -5.96  -4.27c   +22.2015
iter: 453 02:52:54 -2731.860629c -6.56  -3.90    +22.2001
iter: 454 02:54:09 -2731.860923c -6.70  -3.95    +22.1986
iter: 455 02:55:24 -2731.860043c -6.45  -3.99    +22.2014
iter: 456 02:56:39 -2731.860548c -6.17  -3.93    +22.2016
iter: 457 02:57:54 -2731.858722c -5.73  -4.20c   +22.1974
iter: 458 02:59:09 -2731.861063c -5.72  -4.26c   +22.2041
iter: 459 03:00:24 -2731.863398c -5.16  -4.37c   +22.2008
iter: 460 03:01:39 -2731.865382c -5.14  -4.12c   +22.1891
iter: 461 03:02:54 -2731.863461c -5.79  -3.83    +22.1956
iter: 462 03:04:09 -2731.862223c -5.78  -4.06c   +22.1952
iter: 463 03:05:24 -2731.860082c -5.27  -4.35c   +22.1954
iter: 464 03:06:39 -2731.862475c -5.43  -4.35c   +22.1920
iter: 465 03:07:54 -2731.861606c -6.74  -4.22c   +22.1942
iter: 466 03:09:09 -2731.861346c -6.43  -4.44c   +22.1965
iter: 467 03:10:24 -2731.862175c -6.00  -4.40c   +22.1952
iter: 468 03:11:39 -2731.858710c -4.60  -4.09c   +22.2043
iter: 469 03:12:54 -2731.857299c -4.65  -3.84    +22.2113
iter: 470 03:14:09 -2731.859047c -5.02  -3.58    +22.2030
iter: 471 03:15:24 -2731.857221c -4.75  -4.02c   +22.2142
iter: 472 03:16:39 -2731.857877c -4.63  -3.52    +22.2230
iter: 473 03:17:54 -2731.857961c -5.10  -3.34    +22.2248
iter: 474 03:19:09 -2731.857422c -5.65  -3.31    +22.2247
iter: 475 03:20:24 -2731.856440c -5.31  -3.30    +22.2234
iter: 476 03:21:39 -2731.855246c -6.35  -3.29    +22.2256
iter: 477 03:22:54 -2731.854457c -6.22  -3.31    +22.2269
iter: 478 03:24:09 -2731.836549c -4.52  -3.30    +22.2273
iter: 479 03:25:24 -2731.832008c -5.22  -3.42    +22.2269
iter: 480 03:26:39 -2731.837642c -4.86  -3.70    +22.2422
iter: 481 03:27:54 -2731.847695c -4.73  -3.78    +22.2307
iter: 482 03:29:09 -2731.858866c -4.41  -3.95    +22.2179
iter: 483 03:30:24 -2731.865952c -4.29  -3.86    +22.2037
iter: 484 03:31:39 -2731.868945c -4.47  -3.75    +22.1969
iter: 485 03:32:54 -2731.871927c -4.86  -3.60    +22.1840
iter: 486 03:34:09 -2731.867834c -5.12  -3.51    +22.2007
iter: 487 03:35:24 -2731.892026c -4.09  -3.63    +22.1508
iter: 488 03:36:39 -2731.866724c -4.41  -3.23    +22.1942
iter: 489 03:37:54 -2731.865638c -5.12  -3.65    +22.1950
iter: 490 03:39:09 -2731.863457c -5.76  -3.79    +22.1954
iter: 491 03:40:24 -2731.862204c -5.76  -3.83    +22.1832
iter: 492 03:41:39 -2731.862538c -6.21  -3.92    +22.1763
iter: 493 03:42:54 -2731.861306c -5.26  -3.88    +22.1742
iter: 494 03:44:09 -2731.860364c -6.05  -3.90    +22.1736
iter: 495 03:45:24 -2731.860754c -6.49  -4.21c   +22.1703
iter: 496 03:46:39 -2731.860752c -6.23  -4.29c   +22.1666
iter: 497 03:47:54 -2731.862057c -5.20  -4.37c   +22.1634
iter: 498 03:49:09 -2731.861421c -5.24  -4.11c   +22.1721
iter: 499 03:50:24 -2731.862115c -5.92  -4.48c   +22.1757
iter: 500 03:51:39 -2731.861031c -5.81  -4.18c   +22.1800
iter: 501 03:52:54 -2731.860409c -5.47  -4.46c   +22.1845
iter: 502 03:54:09 -2731.860144c -5.23  -4.11c   +22.1946
iter: 503 03:55:24 -2731.859989c -5.73  -3.85    +22.1989
iter: 504 03:56:39 -2731.860013c -6.40  -3.82    +22.1945
iter: 505 03:57:54 -2731.860010c -6.30  -3.92    +22.1996
iter: 506 03:59:09 -2731.859924c -6.38  -3.83    +22.2016
iter: 507 04:00:24 -2731.860111c -6.08  -3.80    +22.1992
iter: 508 04:01:39 -2731.860285c -6.23  -3.85    +22.2015
iter: 509 04:02:54 -2731.860158c -6.13  -3.79    +22.2035
iter: 510 04:04:09 -2731.858182c -5.64  -3.78    +22.1998
iter: 511 04:05:24 -2731.858500c -5.67  -4.10c   +22.2012
iter: 512 04:06:39 -2731.858697c -5.23  -3.99    +22.2018
iter: 513 04:07:54 -2731.860813c -5.23  -3.79    +22.2018
iter: 514 04:09:09 -2731.858368c -5.06  -3.68    +22.2017
iter: 515 04:10:24 -2731.863617c -4.41  -3.94    +22.2016
iter: 516 04:11:39 -2731.864562c -5.13  -3.53    +22.1970
iter: 517 04:12:54 -2731.866002c -5.58  -3.53    +22.1922
iter: 518 04:14:09 -2731.871938c -5.43  -3.50    +22.1933
iter: 519 04:15:25 -2731.870000c -5.72  -3.41    +22.1893
iter: 520 04:16:39 -2731.872745c -4.05  -3.44    +22.1977
iter: 521 04:17:54 -2731.852874c -4.77  -3.35    +22.1916
iter: 522 04:19:09 -2731.855585c -5.19  -3.87    +22.1746
iter: 523 04:20:24 -2731.860897c -4.73  -4.18c   +22.1769
iter: 524 04:21:39 -2731.861440c -4.96  -4.08c   +22.1882
iter: 525 04:22:54 -2731.862481c -5.00  -4.15c   +22.1874
iter: 526 04:24:10 -2731.864308c -5.30  -4.01c   +22.1905
iter: 527 04:25:25 -2731.864543c -6.05  -3.84    +22.1901
iter: 528 04:26:39 -2731.865523c -5.38  -3.83    +22.1896
iter: 529 04:27:54 -2731.865776c -5.91  -3.77    +22.1901
iter: 530 04:29:09 -2731.865558c -5.90  -3.74    +22.1903
iter: 531 04:30:24 -2731.862467c -5.05  -3.73    +22.1801
iter: 532 04:31:39 -2731.859973c -5.62  -3.75    +22.1784
iter: 533 04:32:54 -2731.864525c -5.58  -3.78    +22.1637
iter: 534 04:34:09 -2731.867725c -5.73  -3.78    +22.1660
iter: 535 04:35:25 -2731.863600c -5.15  -3.69    +22.1673
iter: 536 04:36:40 -2731.862252c -5.83  -3.62    +22.1664
iter: 537 04:37:55 -2731.861291c -5.29  -3.88    +22.1623
iter: 538 04:39:10 -2731.861799c -5.51  -4.24c   +22.1562
iter: 539 04:40:25 -2731.861816c -5.60  -4.45c   +22.1627
iter: 540 04:41:40 -2731.861847c -5.90  -4.45c   +22.1682
iter: 541 04:42:55 -2731.862050c -5.89  -4.61c   +22.1717
iter: 542 04:44:10 -2731.861733c -6.56  -4.44c   +22.1741
iter: 543 04:45:25 -2731.861809c -6.72  -4.61c   +22.1747
iter: 544 04:46:40 -2731.861895c -6.75  -4.67c   +22.1754
iter: 545 04:47:55 -2731.861864c -6.95  -4.69c   +22.1769
iter: 546 04:49:09 -2731.861848c -7.50c -4.73c   +22.1775

Converged after 546 iterations.

Dipole moment: (-2.094799, -4.699700, -0.087328) |e|*Ang

Total magnetic moment: (0.000000, 0.000000, 22.177544)
Local magnetic moments:
   0 Ni ( 0.000000,  0.000000,  0.722380)
   1 Ni ( 0.000000,  0.000000,  0.725107)
   2 Ni ( 0.000000,  0.000000,  0.673043)
   3 Ni ( 0.000000,  0.000000,  0.648085)
   4 Ni ( 0.000000,  0.000000,  0.737713)
   5 Ni ( 0.000000,  0.000000,  0.729776)
   6 Ni ( 0.000000,  0.000000,  0.674682)
   7 Ni ( 0.000000,  0.000000,  0.701000)
   8 Ni ( 0.000000,  0.000000,  0.722215)
   9 Ni ( 0.000000,  0.000000,  0.723198)
  10 Ni ( 0.000000,  0.000000,  0.713443)
  11 Ni ( 0.000000,  0.000000,  0.656754)
  12 Ni ( 0.000000,  0.000000,  0.722387)
  13 Ni ( 0.000000,  0.000000,  0.715270)
  14 Ni ( 0.000000,  0.000000,  0.671108)
  15 Ni ( 0.000000,  0.000000,  0.656936)
  16 Ni ( 0.000000,  0.000000,  0.724695)
  17 Ni ( 0.000000,  0.000000,  0.730358)
  18 Ni ( 0.000000,  0.000000,  0.715141)
  19 Ni ( 0.000000,  0.000000,  0.183670)
  20 Ni ( 0.000000,  0.000000,  0.723912)
  21 Ni ( 0.000000,  0.000000,  0.729806)
  22 Ni ( 0.000000,  0.000000,  0.674845)
  23 Ni ( 0.000000,  0.000000,  0.182633)
  24 Ni ( 0.000000,  0.000000,  0.737798)
  25 Ni ( 0.000000,  0.000000,  0.715163)
  26 Ni ( 0.000000,  0.000000,  0.734073)
  27 Ni ( 0.000000,  0.000000,  0.701338)
  28 Ni ( 0.000000,  0.000000,  0.737439)
  29 Ni ( 0.000000,  0.000000,  0.715141)
  30 Ni ( 0.000000,  0.000000,  0.671035)
  31 Ni ( 0.000000,  0.000000,  0.705544)
  32 Ni ( 0.000000,  0.000000,  0.724635)
  33 Ni ( 0.000000,  0.000000,  0.725038)
  34 Ni ( 0.000000,  0.000000,  0.673130)
  35 Ni ( 0.000000,  0.000000,  0.183594)
  36 C  ( 0.000000,  0.000000, -0.013156)

Energy contributions relative to reference atoms: (reference = -1490275.572218)

Kinetic:       +942.547790
Potential:     -818.379999
External:        +0.000000
XC:            -2858.403346
Entropy (-ST):   -2.060770
Local:           +3.404092
--------------------------
Free energy:   -2732.892233
Extrapolated:  -2731.861848

Spin contamination: 2.013767 electrons
Showing only first 2 kpts
                      Up                     Down
 Kpt  Band  Eigenvalues  Occupancy  Eigenvalues  Occupancy
  0   288     -6.01744    0.99883     -5.18461    0.17083
  0   289     -6.01160    0.99876     -5.17365    0.15586
  0   290     -6.00393    0.99866     -5.16427    0.14392
  0   291     -5.98277    0.99834     -5.14275    0.11937

  1   288     -6.09583    0.99946     -5.27048    0.32717
  1   289     -6.08348    0.99939     -5.25946    0.30337
  1   290     -6.06759    0.99929     -5.24726    0.27824
  1   291     -6.05565    0.99920     -5.22596    0.23754


Fermi level: -5.34259

No gap

Forces in eV/Ang:
  0 Ni   -0.00167    0.00103    0.09561
  1 Ni   -0.00051   -0.00146   -0.11659
  2 Ni   -0.05547   -0.00087   -0.10443
  3 Ni    0.00103   -0.00068    0.00773
  4 Ni    0.01403    0.00988    0.10305
  5 Ni   -0.01618   -0.01184   -0.12800
  6 Ni   -0.02952   -0.04719   -0.10453
  7 Ni   -0.17620   -0.10375   -0.04862
  8 Ni   -0.00380   -0.00054    0.09052
  9 Ni   -0.00186    0.00104   -0.11320
 10 Ni    0.00131   -0.00092    0.01937
 11 Ni   -0.00019   -0.00465    0.00671
 12 Ni   -0.00138    0.00365    0.09049
 13 Ni    0.02632    0.01597   -0.15691
 14 Ni    0.05575   -0.00132   -0.10508
 15 Ni    0.00375    0.00229    0.00667
 16 Ni   -0.00082    0.00561    0.09354
 17 Ni    0.01691   -0.00968   -0.12780
 18 Ni    0.00128   -0.00093   -0.27038
 19 Ni   -0.00773   -0.19091    0.17405
 20 Ni    0.00326   -0.00185    0.09290
 21 Ni    0.00223    0.01991   -0.12804
 22 Ni    0.02597    0.04891   -0.10465
 23 Ni   -0.15989    0.09207    0.16910
 24 Ni   -0.00140   -0.01692    0.10302
 25 Ni   -0.02539    0.01476   -0.15823
 26 Ni    0.00066   -0.00032    0.03903
 27 Ni    0.00174    0.20440   -0.04857
 28 Ni   -0.01786    0.01048    0.10055
 29 Ni   -0.00057   -0.03066   -0.15696
 30 Ni    0.02903   -0.04774   -0.10506
 31 Ni    0.17601   -0.10162   -0.04814
 32 Ni   -0.00516   -0.00199    0.09354
 33 Ni    0.00114    0.00122   -0.11662
 34 Ni   -0.02694    0.04831   -0.10449
 35 Ni    0.16127    0.10182    0.17409
 36 C     0.00618   -0.00275    0.75782

BFGS:    2 04:49:55    -2731.861848        0.7578
System changes: positions 

Initializing position-dependent things.

Density initialized from wave functions
                                          
                                          
                                          
                                          
                                          
                   C                      
          Ni    Ni     Ni                 
           NNi   NNi   NNi                
              Ni    Ni    Ni              
             Ni    Ni    Ni               
              Ni     Ni    Ni             
             Ni     Ni    Ni              
               Ni     Ni    Ni            
                 Ni    Ni     Ni          
          Ni    Ni    Ni                  
            Ni    Ni    Ni                
              Ni    Ni    Ni              
                                          
                                          
                                          
                                          

Positions:
   0 Ni    -0.000000    0.000000   10.000000    ( 0.0000,  0.0000,  0.6703)
   1 Ni     1.261746    0.728469   12.060422    ( 0.0000,  0.0000,  0.6693)
   2 Ni    -0.003242    1.456567   14.109505    ( 0.0000,  0.0000,  0.6697)
   3 Ni     0.000649   -0.000378   16.158925    ( 0.0000,  0.0000,  0.6722)
   4 Ni    -1.261746    2.185408   10.000000    ( 0.0000,  0.0000,  0.6703)
   5 Ni    -0.000000    2.913877   12.060422    ( 0.0000,  0.0000,  0.6693)
   6 Ni    -1.263727    3.639724   14.109430    ( 0.0000,  0.0000,  0.6697)
   7 Ni    -1.276518    2.176719   16.155429    ( 0.0000,  0.0000,  0.6722)
   8 Ni    -2.523491    4.370815   10.000000    ( 0.0000,  0.0000,  0.6703)
   9 Ni    -1.261746    5.099284   12.060422    ( 0.0000,  0.0000,  0.6693)
  10 Ni    -2.523455    5.827724   14.116907    ( 0.0000,  0.0000,  0.6697)
  11 Ni    -2.523535    4.371267   16.158894    ( 0.0000,  0.0000,  0.6722)
  12 Ni     2.523491    0.000000   10.000000    ( 0.0000,  0.0000,  0.6703)
  13 Ni     3.785237    0.728469   12.060422    ( 0.0000,  0.0000,  0.6693)
  14 Ni     2.526726    1.456536   14.109393    ( 0.0000,  0.0000,  0.6697)
  15 Ni     2.523071   -0.000196   16.158892    ( 0.0000,  0.0000,  0.6722)
  16 Ni     1.261746    2.185408   10.000000    ( 0.0000,  0.0000,  0.6703)
  17 Ni     2.523491    2.913877   12.060422    ( 0.0000,  0.0000,  0.6693)
  18 Ni     1.261803    3.642303   14.088397    ( 0.0000,  0.0000,  0.6697)
  19 Ni     1.261153    2.094284   16.139642    ( 0.0000,  0.0000,  0.6722)
  20 Ni    -0.000000    4.370815   10.000000    ( 0.0000,  0.0000,  0.6703)
  21 Ni     1.261746    5.099284   12.060422    ( 0.0000,  0.0000,  0.6693)
  22 Ni     0.001275    5.830770   14.109427    ( 0.0000,  0.0000,  0.6697)
  23 Ni    -0.078357    4.416046   16.139314    ( 0.0000,  0.0000,  0.6722)
  24 Ni     5.046982    0.000000   10.000000    ( 0.0000,  0.0000,  0.6703)
  25 Ni     6.308728    0.728469   12.060422    ( 0.0000,  0.0000,  0.6693)
  26 Ni     5.047075    1.456884   14.119876    ( 0.0000,  0.0000,  0.6697)
  27 Ni     5.047119    0.017133   16.155428    ( 0.0000,  0.0000,  0.6722)
  28 Ni     3.785237    2.185408   10.000000    ( 0.0000,  0.0000,  0.6703)
  29 Ni     5.046982    2.913877   12.060422    ( 0.0000,  0.0000,  0.6693)
  30 Ni     3.787202    3.639738   14.109393    ( 0.0000,  0.0000,  0.6697)
  31 Ni     3.800142    2.176800   16.155387    ( 0.0000,  0.0000,  0.6722)
  32 Ni     2.523491    4.370815   10.000000    ( 0.0000,  0.0000,  0.6703)
  33 Ni     3.785237    5.099284   12.060422    ( 0.0000,  0.0000,  0.6693)
  34 Ni     2.522191    5.830739   14.109503    ( 0.0000,  0.0000,  0.6697)
  35 Ni     2.602074    4.416861   16.139656    ( 0.0000,  0.0000,  0.6722)
  36 C      1.262038    3.642201   17.025889    ( 0.0000,  0.0000,  0.0000)

Unit cell:
           periodic     x           y           z      points  spacing
  1. axis:    yes    7.570474    0.000000    0.000000    36     0.1821
  2. axis:    yes   -3.785237    6.556223    0.000000    36     0.1821
  3. axis:    no     0.000000    0.000000   26.181266   144     0.1818

  Lengths:   7.570474   7.570474  26.181266
  Angles:   90.000000  90.000000 120.000000

Effective grid spacing dv^(1/3) = 0.1910

     iter     time        total  log10-change:  magmom
                         energy  eigst   dens
iter:   1 04:53:25 -2733.261798  -2.39           +22.1784
iter:   2 04:54:40 -2767.409662  -1.58  -2.32    +22.8068
iter:   3 04:55:55 -2733.753692  -2.09  -1.66    +21.0625
iter:   4 04:57:11 -2731.798265  -2.12  -2.35    +21.6770
iter:   5 04:58:26 -2732.129127  -2.92  -2.80    +21.5588
iter:   6 04:59:41 -2731.872179  -3.46  -2.61    +21.8466
iter:   7 05:00:56 -2731.883830c -4.08  -3.21    +21.8968
iter:   8 05:02:11 -2731.883436c -4.29  -3.23    +21.8944
iter:   9 05:03:26 -2731.875898c -4.44  -3.41    +22.0163
iter:  10 05:04:40 -2731.879021c -4.82  -3.66    +22.0274
iter:  11 05:05:55 -2731.879879c -5.00  -3.68    +22.0857
iter:  12 05:07:09 -2731.883328c -5.02  -3.78    +22.1146
iter:  13 05:08:24 -2731.882078c -5.37  -3.81    +22.1474
iter:  14 05:09:38 -2731.882920c -5.40  -3.98    +22.1658
iter:  15 05:10:53 -2731.881682c -5.62  -4.11c   +22.1789
iter:  16 05:12:07 -2731.882008c -6.36  -4.07c   +22.1796
iter:  17 05:13:22 -2731.881826c -6.04  -4.27c   +22.1867
iter:  18 05:14:36 -2731.881816c -6.03  -4.20c   +22.1940
iter:  19 05:15:51 -2731.881561c -5.40  -4.15c   +22.2150
iter:  20 05:17:05 -2731.882074c -5.76  -3.84    +22.1946
iter:  21 05:18:20 -2731.880982c -5.74  -4.13c   +22.2105
iter:  22 05:19:34 -2731.881395c -6.36  -3.89    +22.2027
iter:  23 05:20:49 -2731.881247c -6.60  -4.09c   +22.2044
iter:  24 05:22:03 -2731.881311c -6.58  -4.08c   +22.2047
iter:  25 05:23:18 -2731.881702c -6.34  -4.17c   +22.2058
iter:  26 05:24:33 -2731.882334c -6.26  -4.37c   +22.2094
iter:  27 05:25:47 -2731.882029c -6.93  -4.38c   +22.2117
iter:  28 05:27:02 -2731.882373c -7.41c -4.56c   +22.2149

Converged after 28 iterations.

Dipole moment: (-1.893700, -4.810817, -0.094130) |e|*Ang

Total magnetic moment: (0.000000, 0.000000, 22.214865)
Local magnetic moments:
   0 Ni ( 0.000000,  0.000000,  0.728648)
   1 Ni ( 0.000000,  0.000000,  0.723732)
   2 Ni ( 0.000000,  0.000000,  0.670135)
   3 Ni ( 0.000000,  0.000000,  0.652368)
   4 Ni ( 0.000000,  0.000000,  0.742011)
   5 Ni ( 0.000000,  0.000000,  0.728156)
   6 Ni ( 0.000000,  0.000000,  0.671417)
   7 Ni ( 0.000000,  0.000000,  0.704405)
   8 Ni ( 0.000000,  0.000000,  0.727393)
   9 Ni ( 0.000000,  0.000000,  0.721490)
  10 Ni ( 0.000000,  0.000000,  0.711223)
  11 Ni ( 0.000000,  0.000000,  0.659772)
  12 Ni ( 0.000000,  0.000000,  0.727397)
  13 Ni ( 0.000000,  0.000000,  0.713000)
  14 Ni ( 0.000000,  0.000000,  0.667334)
  15 Ni ( 0.000000,  0.000000,  0.659794)
  16 Ni ( 0.000000,  0.000000,  0.730061)
  17 Ni ( 0.000000,  0.000000,  0.728428)
  18 Ni ( 0.000000,  0.000000,  0.710418)
  19 Ni ( 0.000000,  0.000000,  0.191757)
  20 Ni ( 0.000000,  0.000000,  0.729020)
  21 Ni ( 0.000000,  0.000000,  0.728131)
  22 Ni ( 0.000000,  0.000000,  0.671441)
  23 Ni ( 0.000000,  0.000000,  0.190575)
  24 Ni ( 0.000000,  0.000000,  0.742003)
  25 Ni ( 0.000000,  0.000000,  0.713629)
  26 Ni ( 0.000000,  0.000000,  0.730282)
  27 Ni ( 0.000000,  0.000000,  0.704413)
  28 Ni ( 0.000000,  0.000000,  0.741340)
  29 Ni ( 0.000000,  0.000000,  0.713003)
  30 Ni ( 0.000000,  0.000000,  0.667314)
  31 Ni ( 0.000000,  0.000000,  0.706786)
  32 Ni ( 0.000000,  0.000000,  0.730046)
  33 Ni ( 0.000000,  0.000000,  0.723723)
  34 Ni ( 0.000000,  0.000000,  0.670137)
  35 Ni ( 0.000000,  0.000000,  0.191655)
  36 C  ( 0.000000,  0.000000, -0.014070)

Energy contributions relative to reference atoms: (reference = -1490275.572218)

Kinetic:       +940.798818
Potential:     -817.016534
External:        +0.000000
XC:            -2858.040822
Entropy (-ST):   -2.062053
Local:           +3.407192
--------------------------
Free energy:   -2732.913399
Extrapolated:  -2731.882373

Spin contamination: 2.016920 electrons
Showing only first 2 kpts
[...]
iter:   6 10:32:34 -2731.953263c -3.89  -3.14    +22.1807
iter:   7 10:33:49 -2731.941836c -4.28  -3.30    +22.2079
iter:   8 10:35:05 -2731.921742c -4.58  -3.45    +22.2186
iter:   9 10:36:20 -2731.935645c -4.56  -3.47    +22.2289
iter:  10 10:37:36 -2731.929587c -4.64  -3.34    +22.2433
iter:  11 10:38:51 -2731.938052c -4.80  -3.72    +22.2555
iter:  12 10:40:07 -2731.948148c -4.66  -3.82    +22.2764
iter:  13 10:41:23 -2731.959637c -4.14  -4.06c   +22.2954
iter:  14 10:42:38 -2731.971629c -4.27  -3.71    +22.2898
iter:  15 10:43:54 -2731.954618c -4.57  -3.41    +22.2928
iter:  16 10:45:09 -2731.956386c -5.15  -3.97    +22.2911
iter:  17 10:46:25 -2731.970912c -5.15  -3.75    +22.2882
iter:  18 10:47:40 -2731.933542c -3.97  -3.44    +22.2945
iter:  19 10:48:56 -2732.020985c -3.46  -3.97    +22.2891
iter:  20 10:50:11 -2731.902691c -2.79  -3.09    +22.3198
iter:  21 10:51:27 -2731.906361c -3.15  -2.95    +22.3152
iter:  22 10:52:42 -2731.912074c -3.40  -2.79    +22.3236
iter:  23 10:53:58 -2731.911893c -3.32  -3.24    +22.2860
iter:  24 10:55:13 -2731.931591c -3.41  -2.78    +22.2478
iter:  25 10:56:29 -2731.932903c -3.94  -2.67    +22.2174
iter:  26 10:57:44 -2731.948820c -3.76  -2.66    +22.1488
iter:  27 10:59:00 -2731.916746c -4.97  -2.62    +22.1791
iter:  28 11:00:16 -2731.867074c -4.87  -2.65    +22.1712
iter:  29 11:01:31 -2731.438543  -3.45  -2.66    +22.1784
iter:  30 11:02:47 -2731.427947  -4.33  -2.82    +22.1931
iter:  31 11:04:02 -2731.462460c -4.25  -2.97    +22.2137
iter:  32 11:05:18 -2731.958439  -2.88  -3.00    +22.1346
iter:  33 11:06:33 -2731.503682  -3.46  -2.80    +22.0439
iter:  34 11:07:49 -2731.503377  -3.62  -3.22    +21.8303
iter:  35 11:09:04 -2731.724358c -3.49  -3.24    +21.8768
iter:  36 11:10:20 -2732.113901  -2.41  -3.43    +22.1921
iter:  37 11:11:35 -2732.054339  -3.31  -2.92    +22.1596
iter:  38 11:12:51 -2732.106040c -3.61  -3.02    +22.1582
iter:  39 11:14:06 -2732.138693c -3.99  -2.95    +22.1860
iter:  40 11:15:22 -2732.278363c -3.91  -2.91    +22.2259
iter:  41 11:16:38 -2731.948403  -3.56  -2.78    +22.1952
iter:  42 11:17:53 -2732.032120  -3.82  -3.14    +22.2055
iter:  43 11:19:09 -2732.004546c -4.47  -2.87    +22.1869
iter:  44 11:20:24 -2731.991932c -4.61  -2.92    +22.1950
iter:  45 11:21:40 -2731.889339c -4.10  -2.92    +22.1907
iter:  46 11:22:55 -2731.901500c -4.98  -3.27    +22.1793
iter:  47 11:24:11 -2731.908215c -4.51  -3.23    +22.1402
iter:  48 11:25:26 -2731.909436c -4.96  -3.31    +22.1218
iter:  49 11:26:42 -2731.922504c -4.12  -3.31    +22.0943
iter:  50 11:27:57 -2731.942547c -4.15  -3.32    +22.1178
iter:  51 11:29:13 -2731.939839c -4.46  -3.19    +22.1576
iter:  52 11:30:29 -2731.925589c -4.71  -3.27    +22.1322
iter:  53 11:31:44 -2731.928451c -4.58  -3.53    +22.1535
iter:  54 11:33:00 -2731.924449c -3.87  -3.38    +22.1163
iter:  55 11:34:15 -2731.923772c -3.89  -3.64    +22.1413
iter:  56 11:35:31 -2731.923157c -3.89  -3.54    +22.1204
iter:  57 11:36:46 -2731.913301c -2.91  -3.61    +22.0134
iter:  58 11:38:02 -2731.944096c -3.23  -2.95    +22.1027
iter:  59 11:39:17 -2731.958844c -4.15  -3.51    +22.0970
iter:  60 11:40:33 -2731.986478c -3.90  -3.42    +22.1477
iter:  61 11:41:49 -2731.947927c -3.96  -3.24    +22.0800
iter:  62 11:43:04 -2731.949643c -4.95  -3.52    +22.1024
iter:  63 11:44:20 -2731.976780c -4.76  -3.54    +22.1169
iter:  64 11:45:35 -2731.944992c -4.73  -3.25    +22.1431
iter:  65 11:46:51 -2732.053045c -3.49  -3.41    +22.1313
iter:  66 11:48:06 -2732.019795c -4.13  -2.96    +22.1331
iter:  67 11:49:22 -2732.042933c -3.82  -3.04    +22.2078
iter:  68 11:50:38 -2732.062977c -4.38  -2.96    +22.2008
iter:  69 11:51:53 -2732.104518c -3.97  -2.91    +22.2405
iter:  70 11:53:09 -2732.155525c -4.31  -2.82    +22.2555
iter:  71 11:54:24 -2732.132747c -4.70  -2.76    +22.2241
iter:  72 11:55:40 -2732.233071c -3.44  -2.80    +22.3335
iter:  73 11:56:55 -2732.339825c -3.49  -2.65    +22.3807
iter:  74 11:58:11 -2732.233451c -3.19  -2.57    +22.2989
iter:  75 11:59:26 -2732.713629  -2.85  -2.73    +22.4170
iter:  76 12:00:42 -2731.803463  -1.97  -2.45    +22.1576
iter:  77 12:01:58 -2731.666356  -2.40  -2.99    +21.8967
iter:  78 12:03:13 -2731.865544c -2.96  -2.78    +22.1780
iter:  79 12:04:29 -2732.048693  -2.83  -3.57    +22.3195
iter:  80 12:05:44 -2732.194620  -3.09  -2.98    +22.3033
iter:  81 12:07:00 -2731.992902c -3.46  -2.76    +22.2224
iter:  82 12:08:15 -2731.588701  -2.16  -3.14    +21.7761
iter:  83 12:09:31 -2732.315152  -2.05  -2.69    +22.4782
iter:  84 12:10:47 -2733.440346  -1.74  -2.65    +23.3423
iter:  85 12:12:02 -2732.575145  -2.44  -2.23    +22.4884
iter:  86 12:13:18 -2732.847621  -3.78  -2.51    +22.4987
iter:  87 12:14:33 -2732.864133c -4.70  -2.41    +22.4534
iter:  88 12:15:49 -2732.030497  -3.25  -2.41    +22.5214
iter:  89 12:17:04 -2731.770840  -3.82  -2.48    +22.3669
iter:  90 12:18:20 -2731.922678c -3.98  -2.53    +22.2382
iter:  91 12:19:35 -2730.992947  -2.77  -2.51    +22.1683
iter:  92 12:20:51 -2730.973875  -3.07  -2.70    +22.1710
iter:  93 12:22:07 -2732.223588  -2.73  -2.67    +21.9950
iter:  94 12:23:22 -2731.721333  -2.91  -2.59    +21.9015
iter:  95 12:24:38 -2731.760533  -3.20  -2.97    +21.8788
iter:  96 12:25:53 -2731.846667c -3.41  -3.13    +21.9255
iter:  97 12:27:09 -2731.950429c -3.03  -3.30    +22.1401
iter:  98 12:28:25 -2731.958890c -3.69  -3.28    +22.1486
iter:  99 12:29:40 -2731.965405c -4.23  -3.19    +22.1622
iter: 100 12:30:56 -2731.997226c -4.36  -3.33    +22.1783
iter: 101 12:32:11 -2731.989442c -4.54  -3.20    +22.1717
iter: 102 12:33:27 -2731.987497c -3.78  -3.27    +22.2066
iter: 103 12:34:42 -2731.959096c -4.34  -3.14    +22.2200
iter: 104 12:35:58 -2731.952706c -4.66  -3.28    +22.2110
iter: 105 12:37:13 -2731.958286c -4.60  -3.66    +22.2566
iter: 106 12:38:29 -2731.953743c -5.14  -3.56    +22.2689
iter: 107 12:39:45 -2731.955544c -5.27  -3.81    +22.2764
iter: 108 12:41:00 -2731.958753c -5.26  -3.85    +22.2815
iter: 109 12:42:16 -2731.958393c -5.48  -3.67    +22.2886
iter: 110 12:43:31 -2731.957546c -5.26  -3.66    +22.2947
iter: 111 12:44:47 -2731.955423c -5.42  -3.89    +22.2900
iter: 112 12:46:02 -2731.955388c -6.03  -4.11c   +22.2836
iter: 113 12:47:18 -2731.957126c -6.26  -4.29c   +22.2773
iter: 114 12:48:33 -2731.956116c -6.42  -3.90    +22.2780
iter: 115 12:49:49 -2731.955685c -6.53  -4.23c   +22.2771
iter: 116 12:51:04 -2731.955652c -6.92  -4.48c   +22.2763
iter: 117 12:52:20 -2731.955948c -6.15  -4.57c   +22.2686
iter: 118 12:53:36 -2731.955932c -6.50  -4.27c   +22.2691
iter: 119 12:54:51 -2731.955879c -6.32  -4.55c   +22.2710
iter: 120 12:56:07 -2731.956079c -6.38  -4.60c   +22.2716
iter: 121 12:57:22 -2731.956125c -6.60  -4.47c   +22.2711
iter: 122 12:58:38 -2731.955970c -6.58  -4.45c   +22.2730
iter: 123 12:59:53 -2731.955839c -6.90  -4.70c   +22.2740
iter: 124 13:01:09 -2731.955974c -7.43c -4.77c   +22.2741

Converged after 124 iterations.

Dipole moment: (-1.184311, -5.222652, -0.120671) |e|*Ang

Total magnetic moment: (0.000000, 0.000000, 22.274053)
Local magnetic moments:
   0 Ni ( 0.000000,  0.000000,  0.722058)
   1 Ni ( 0.000000,  0.000000,  0.724568)
   2 Ni ( 0.000000,  0.000000,  0.681047)
   3 Ni ( 0.000000,  0.000000,  0.657284)
   4 Ni ( 0.000000,  0.000000,  0.736750)
   5 Ni ( 0.000000,  0.000000,  0.730860)
   6 Ni ( 0.000000,  0.000000,  0.682623)
   7 Ni ( 0.000000,  0.000000,  0.704873)
   8 Ni ( 0.000000,  0.000000,  0.723488)
   9 Ni ( 0.000000,  0.000000,  0.722725)
  10 Ni ( 0.000000,  0.000000,  0.717180)
  11 Ni ( 0.000000,  0.000000,  0.665185)
  12 Ni ( 0.000000,  0.000000,  0.722403)
  13 Ni ( 0.000000,  0.000000,  0.717142)
  14 Ni ( 0.000000,  0.000000,  0.679551)
  15 Ni ( 0.000000,  0.000000,  0.664512)
  16 Ni ( 0.000000,  0.000000,  0.724338)
  17 Ni ( 0.000000,  0.000000,  0.731659)
  18 Ni ( 0.000000,  0.000000,  0.722520)
  19 Ni ( 0.000000,  0.000000,  0.189672)
  20 Ni ( 0.000000,  0.000000,  0.724365)
  21 Ni ( 0.000000,  0.000000,  0.730761)
  22 Ni ( 0.000000,  0.000000,  0.682177)
  23 Ni ( 0.000000,  0.000000,  0.187831)
  24 Ni ( 0.000000,  0.000000,  0.736227)
  25 Ni ( 0.000000,  0.000000,  0.716473)
  26 Ni ( 0.000000,  0.000000,  0.735732)
  27 Ni ( 0.000000,  0.000000,  0.704569)
  28 Ni ( 0.000000,  0.000000,  0.737405)
  29 Ni ( 0.000000,  0.000000,  0.717945)
  30 Ni ( 0.000000,  0.000000,  0.680071)
  31 Ni ( 0.000000,  0.000000,  0.708257)
  32 Ni ( 0.000000,  0.000000,  0.724888)
  33 Ni ( 0.000000,  0.000000,  0.725175)
  34 Ni ( 0.000000,  0.000000,  0.681117)
  35 Ni ( 0.000000,  0.000000,  0.189582)
  36 C  ( 0.000000,  0.000000, -0.016695)

Energy contributions relative to reference atoms: (reference = -1490275.572218)

Kinetic:       +934.196180
Potential:     -811.900442
External:        +0.000000
XC:            -2856.645263
Entropy (-ST):   -2.053302
Local:           +3.420202
--------------------------
Free energy:   -2732.982625
Extrapolated:  -2731.955974

Spin contamination: 2.036090 electrons
Showing only first 2 kpts
                      Up                     Down
 Kpt  Band  Eigenvalues  Occupancy  Eigenvalues  Occupancy
  0   288     -6.05956    0.99885     -5.22558    0.17231
  0   289     -6.05417    0.99879     -5.21155    0.15322
  0   290     -6.04515    0.99868     -5.20183    0.14103
  0   291     -6.01662    0.99824     -5.18010    0.11669

  1   288     -6.14116    0.99949     -5.30949    0.32515
  1   289     -6.12074    0.99938     -5.29979    0.30423
  1   290     -6.10753    0.99929     -5.28210    0.26814
  1   291     -6.10657    0.99928     -5.26293    0.23221


Fermi level: -5.38251

No gap

Forces in eV/Ang:
  0 Ni   -0.00041    0.00034    0.09458
  1 Ni    0.00007    0.00750   -0.10212
  2 Ni    0.00527    0.00310   -0.00138
  3 Ni    0.00507   -0.00297    0.01078
  4 Ni    0.01318    0.01027    0.10763
  5 Ni   -0.02120   -0.01427   -0.12071
  6 Ni    0.00551    0.00215   -0.00091
  7 Ni    0.01064    0.00515    0.02514
  8 Ni   -0.00229    0.00133    0.08926
  9 Ni    0.00660   -0.00393   -0.10037
 10 Ni    0.00032   -0.00033    0.01798
 11 Ni    0.00115    0.00453    0.01200
 12 Ni   -0.00230    0.00143    0.08932
 13 Ni    0.00074    0.00124   -0.13365
 14 Ni   -0.00380    0.00313   -0.00117
 15 Ni   -0.00363   -0.00346    0.01172
 16 Ni   -0.00157    0.00121    0.09299
 17 Ni    0.02248   -0.01300   -0.11886
 18 Ni    0.00069   -0.00045    0.01471
 19 Ni    0.00116    0.03286    0.02006
 20 Ni   -0.00199    0.00116    0.09205
 21 Ni    0.00173    0.02531   -0.12072
 22 Ni    0.00068   -0.00606   -0.00081
 23 Ni    0.03249   -0.01899    0.02182
 24 Ni   -0.00217   -0.01635    0.10765
 25 Ni   -0.00079    0.00058   -0.13501
 26 Ni    0.00045   -0.00007   -0.00066
 27 Ni    0.00095   -0.01162    0.02467
 28 Ni   -0.01631    0.00956    0.10494
 29 Ni   -0.00060   -0.00131   -0.13376
 30 Ni   -0.00456    0.00170   -0.00125
 31 Ni   -0.00789    0.00469    0.02541
 32 Ni   -0.00171    0.00080    0.09291
 33 Ni   -0.00638   -0.00389   -0.10200
 34 Ni    0.00013   -0.00627   -0.00141
 35 Ni   -0.02732   -0.01735    0.01979
 36 C    -0.00879    0.00389   -0.07175

BFGS:   15 13:01:54    -2731.955974        0.0724
System changes: positions 

Initializing position-dependent things.

Density initialized from wave functions
                                          
                                          
                                          
                                          
                                          
                   C                      
          Ni    Ni     Ni                 
            Ni    Ni    Ni                
           Ni    Ni    Ni                 
             NNi   NNi   NNi              
              Ni     Ni    Ni             
             Ni     Ni    Ni              
               Ni     Ni    Ni            
                 Ni    Ni     Ni          
          Ni    Ni    Ni                  
            Ni    Ni    Ni                
              Ni    Ni    Ni              
                                          
                                          
                                          
                                          

Positions:
   0 Ni    -0.000000    0.000000   10.000000    ( 0.0000,  0.0000,  0.6703)
   1 Ni     1.261746    0.728469   12.060422    ( 0.0000,  0.0000,  0.6693)
   2 Ni     0.003820    1.461378   14.118509    ( 0.0000,  0.0000,  0.6697)
   3 Ni     0.003908   -0.002311   16.156889    ( 0.0000,  0.0000,  0.6722)
   4 Ni    -1.261746    2.185408   10.000000    ( 0.0000,  0.0000,  0.6703)
   5 Ni    -0.000000    2.913877   12.060422    ( 0.0000,  0.0000,  0.6693)
   6 Ni    -1.255602    3.642997   14.118265    ( 0.0000,  0.0000,  0.6697)
   7 Ni    -1.286565    2.169867   16.142945    ( 0.0000,  0.0000,  0.6722)
   8 Ni    -2.523491    4.370815   10.000000    ( 0.0000,  0.0000,  0.6703)
   9 Ni    -1.261746    5.099284   12.060422    ( 0.0000,  0.0000,  0.6693)
  10 Ni    -2.522988    5.827378   14.113498    ( 0.0000,  0.0000,  0.6697)
  11 Ni    -2.522362    4.371917   16.157012    ( 0.0000,  0.0000,  0.6722)
  12 Ni     2.523491    0.000000   10.000000    ( 0.0000,  0.0000,  0.6703)
  13 Ni     3.785237    0.728469   12.060422    ( 0.0000,  0.0000,  0.6693)
  14 Ni     2.519912    1.461268   14.118455    ( 0.0000,  0.0000,  0.6697)
  15 Ni     2.522982   -0.001654   16.156998    ( 0.0000,  0.0000,  0.6722)
  16 Ni     1.261746    2.185408   10.000000    ( 0.0000,  0.0000,  0.6703)
  17 Ni     2.523491    2.913877   12.060422    ( 0.0000,  0.0000,  0.6693)
  18 Ni     1.262162    3.642028   14.092913    ( 0.0000,  0.0000,  0.6697)
  19 Ni     1.260873    2.130544   16.228858    ( 0.0000,  0.0000,  0.6722)
  20 Ni    -0.000000    4.370815   10.000000    ( 0.0000,  0.0000,  0.6703)
  21 Ni     1.261746    5.099284   12.060422    ( 0.0000,  0.0000,  0.6693)
  22 Ni     0.002437    5.822000   14.118265    ( 0.0000,  0.0000,  0.6697)
  23 Ni    -0.044786    4.396591   16.227871    ( 0.0000,  0.0000,  0.6722)
  24 Ni     5.046982    0.000000   10.000000    ( 0.0000,  0.0000,  0.6703)
  25 Ni     6.308728    0.728469   12.060422    ( 0.0000,  0.0000,  0.6693)
  26 Ni     5.046995    1.456866   14.108716    ( 0.0000,  0.0000,  0.6697)
  27 Ni     5.047955    0.029140   16.142930    ( 0.0000,  0.0000,  0.6722)
  28 Ni     3.785237    2.185408   10.000000    ( 0.0000,  0.0000,  0.6703)
  29 Ni     5.046982    2.913877   12.060422    ( 0.0000,  0.0000,  0.6693)
  30 Ni     3.779651    3.643164   14.118436    ( 0.0000,  0.0000,  0.6697)
  31 Ni     3.810094    2.170968   16.143205    ( 0.0000,  0.0000,  0.6722)
  32 Ni     2.523491    4.370815   10.000000    ( 0.0000,  0.0000,  0.6703)
  33 Ni     3.785237    5.099284   12.060422    ( 0.0000,  0.0000,  0.6693)
  34 Ni     2.521503    5.822137   14.118489    ( 0.0000,  0.0000,  0.6697)
  35 Ni     2.570576    4.398927   16.228779    ( 0.0000,  0.0000,  0.6722)
  36 C      1.263466    3.641480   17.197916    ( 0.0000,  0.0000,  0.0000)

Unit cell:
           periodic     x           y           z      points  spacing
  1. axis:    yes    7.570474    0.000000    0.000000    36     0.1821
  2. axis:    yes   -3.785237    6.556223    0.000000    36     0.1821
  3. axis:    no     0.000000    0.000000   26.181266   144     0.1818

  Lengths:   7.570474   7.570474  26.181266
  Angles:   90.000000  90.000000 120.000000

Effective grid spacing dv^(1/3) = 0.1910

     iter     time        total  log10-change:  magmom
                         energy  eigst   dens
iter:   1 13:05:24 -2732.442810  -3.54           +22.2758
iter:   2 13:06:40 -2749.060526  -1.94  -2.55    +22.0289
iter:   3 13:07:55 -2733.017138  -2.52  -1.81    +21.9029
iter:   4 13:09:11 -2732.072956  -2.63  -2.47    +22.5050
iter:   5 13:10:26 -2731.980876  -3.23  -2.96    +22.3651
iter:   6 13:11:42 -2731.972118c -3.86  -3.13    +22.2668
iter:   7 13:12:58 -2731.910743c -3.86  -3.18    +22.1271
iter:   8 13:14:13 -2731.902801c -4.54  -3.63    +22.2072
iter:   9 13:15:29 -2731.934695c -4.27  -3.58    +22.0749
iter:  10 13:16:44 -2731.959914c -3.81  -3.80    +22.0808
iter:  11 13:18:00 -2731.964039c -3.85  -3.51    +22.1492
iter:  12 13:19:16 -2731.988169c -3.90  -3.42    +22.2428
iter:  13 13:20:31 -2731.972084c -5.08  -3.17    +22.2070
iter:  14 13:21:47 -2731.971680c -5.09  -3.29    +22.2382
iter:  15 13:23:02 -2731.988365c -4.42  -3.27    +22.2963
iter:  16 13:24:18 -2731.973521c -4.75  -3.12    +22.2439
iter:  17 13:25:33 -2731.972752c -5.63  -3.23    +22.2370
iter:  18 13:26:49 -2731.961621c -4.87  -3.23    +22.2631
iter:  19 13:28:05 -2731.945750c -4.84  -3.28    +22.2937
iter:  20 13:29:20 -2731.930671c -4.50  -3.37    +22.2989
iter:  21 13:30:36 -2731.933912c -4.89  -3.65    +22.3054
iter:  22 13:31:52 -2731.939075c -4.93  -3.66    +22.3064
iter:  23 13:33:07 -2731.949254c -4.68  -3.83    +22.3086
iter:  24 13:34:23 -2731.960814c -4.26  -3.98    +22.2971
iter:  25 13:35:38 -2731.991409c -4.23  -3.78    +22.2843
iter:  26 13:36:54 -2731.954729c -4.39  -3.28    +22.2956
iter:  27 13:38:09 -2731.958440c -5.02  -3.80    +22.2840
iter:  28 13:39:25 -2731.959218c -5.37  -3.89    +22.2800
iter:  29 13:40:41 -2731.958055c -5.30  -3.88    +22.2774
iter:  30 13:41:56 -2731.956102c -5.41  -3.95    +22.2709
iter:  31 13:43:12 -2731.957364c -6.41  -4.29c   +22.2704
iter:  32 13:44:28 -2731.958912c -6.13  -4.03c   +22.2684
iter:  33 13:45:43 -2731.955488c -5.93  -3.80    +22.2677
iter:  34 13:46:59 -2731.955938c -6.44  -4.44c   +22.2654
iter:  35 13:48:14 -2731.955800c -6.66  -4.30c   +22.2605
iter:  36 13:49:30 -2731.955583c -6.60  -4.52c   +22.2606
iter:  37 13:50:46 -2731.955739c -6.15  -4.52c   +22.2603
iter:  38 13:52:01 -2731.955805c -5.98  -4.52c   +22.2625
iter:  39 13:53:17 -2731.955874c -5.73  -4.46c   +22.2662
iter:  40 13:54:32 -2731.956507c -5.13  -4.26c   +22.2771
iter:  41 13:55:48 -2731.956017c -5.33  -3.82    +22.2654
iter:  42 13:57:03 -2731.955834c -6.17  -4.69c   +22.2706
iter:  43 13:58:19 -2731.956351c -6.20  -4.70c   +22.2681
iter:  44 13:59:35 -2731.956704c -5.83  -4.58c   +22.2677
iter:  45 14:00:50 -2731.957135c -6.07  -4.29c   +22.2654
iter:  46 14:02:06 -2731.956622c -6.08  -4.14c   +22.2687
iter:  47 14:03:21 -2731.960538c -4.82  -4.39c   +22.2548
iter:  48 14:04:37 -2731.955488c -4.36  -3.68    +22.2809
iter:  49 14:05:53 -2731.955981c -5.65  -3.85    +22.2717
iter:  50 14:07:08 -2731.955538c -6.03  -4.76c   +22.2750
iter:  51 14:08:24 -2731.955429c -6.05  -4.28c   +22.2781
iter:  52 14:09:40 -2731.955314c -6.43  -4.11c   +22.2787
iter:  53 14:10:55 -2731.955245c -7.30  -4.08c   +22.2779
iter:  54 14:12:11 -2731.955103c -6.96  -4.25c   +22.2781
iter:  55 14:13:26 -2731.955932c -5.76  -4.22c   +22.2762
iter:  56 14:14:42 -2731.954032c -5.13  -4.75c   +22.2817
iter:  57 14:15:58 -2731.952533c -4.45  -3.99    +22.2952
iter:  58 14:17:13 -2731.952761c -4.89  -3.52    +22.3000
iter:  59 14:18:29 -2731.953854c -5.20  -3.44    +22.3029
iter:  60 14:19:44 -2731.954267c -5.97  -3.38    +22.3021
iter:  61 14:21:00 -2731.954747c -6.48  -3.38    +22.3024
iter:  62 14:22:16 -2731.952390c -6.87  -3.37    +22.3019
iter:  63 14:23:31 -2731.943209c -5.71  -3.41    +22.3025
iter:  64 14:24:47 -2731.939950c -5.81  -3.56    +22.3029
iter:  65 14:26:02 -2731.936602c -5.77  -3.73    +22.3005
iter:  66 14:27:18 -2731.945771c -5.08  -3.84    +22.3022
iter:  67 14:28:34 -2731.916400c -4.21  -3.88    +22.2989
iter:  68 14:29:49 -2731.885692c -4.03  -3.59    +22.3106
iter:  69 14:31:05 -2731.996658c -3.40  -3.47    +22.3025
iter:  70 14:32:20 -2731.765641c -2.55  -3.25    +22.3170
iter:  71 14:33:36 -2731.759618c -2.95  -2.78    +22.2384
iter:  72 14:34:52 -2731.718838c -4.00  -2.65    +22.2214
slurmstepd: error: *** STEP 6729011.0 ON c008 CANCELLED AT 2023-10-05T14:36:02 DUE TO TIME LIMIT ***
slurmstepd: error: *** JOB 6729011 ON c008 CANCELLED AT 2023-10-05T14:36:02 DUE TO TIME LIMIT ***
srun: Job step aborted: Waiting up to 32 seconds for job step to finish.
