
  ___ ___ ___ _ _ _  
 |   |   |_  | | | | 
 | | | | | . | | | | 
 |__ |  _|___|_____|  22.8.0
 |___|_|             

User:   s204775@a060.nifl.fysik.dtu.dk
Date:   Thu Sep 28 02:30:42 2023
Arch:   x86_64
Pid:    27887
CWD:    /home/cat/s204775/projects/Bachelor_project/C_missing_features
Python: 3.10.4
gpaw:   /home/modules/software/GPAW/22.8.0-intel-2022a/lib/python3.10/site-packages/gpaw
_gpaw:  /home/modules/software/GPAW/22.8.0-intel-2022a/lib/python3.10/site-packages/
        _gpaw.cpython-310-x86_64-linux-gnu.so
ase:    /home/modules/software/ASE/3.22.1-intel-2022a/lib/python3.10/site-packages/ase (version 3.22.1)
numpy:  /home/modules/software/SciPy-bundle/2022.05-intel-2022a/lib/python3.10/site-packages/numpy (version 1.22.3)
scipy:  /home/modules/software/SciPy-bundle/2022.05-intel-2022a/lib/python3.10/site-packages/scipy (version 1.8.1)
libxc:  5.2.3
units:  Angstrom and eV
cores: 40
OpenMP: False
OMP_NUM_THREADS: 1

Input parameters:
  basis: dzp
  h: 0.18
  kpts: {size: (4, 4, 1)}
  xc: BEEF-vdW

System changes: positions, numbers, cell, pbc, initial_charges, initial_magmoms 

Initialize ...

species:
  Pb:
    name: Lead
    id: 66e73b13d76dc837202bcdb13fee58e6
    Z: 82.0
    valence: 14
    core: 68
    charge: 0.0
    file: /home/modules/software/GPAW-setups/0.9.20000/Pb.PBE.gz
    compensation charges: {type: gauss,
                           rc: 0.38,
                           lmax: 2}
    cutoffs: {filter: 2.36,
              core: 2.43}
    valence states:
      #              energy  rcut
      - 6s(2.00)   -11.969   1.259
      - 6p(2.00)    -3.506   1.275
      - 5d(10.00)   -21.211   1.217
      -  s          15.243   1.259
      -  p          23.705   1.275
      -  d           6.001   1.217
  
    # LCAO basis set for Pb:
    #   Name: dzp
    #   File: /home/modules/software/GPAW-setups/0.9.20000/Pb.dzp.basis.gz
    #   Number of radial functions: 7
    #   Number of spherical harmonics: 23
    #     l=0, rc=6.8438 Bohr: 6s-sz confined orbital
    #     l=1, rc=9.8125 Bohr: 6p-sz confined orbital
    #     l=2, rc=4.5156 Bohr: 5d-sz confined orbital
    #     l=0, rc=3.9062 Bohr: 6s-dz split-valence wave
    #     l=1, rc=5.8750 Bohr: 6p-dz split-valence wave
    #     l=2, rc=2.7969 Bohr: 5d-dz split-valence wave
    #     l=2, rc=9.8125 Bohr: d-type Gaussian polarization
    #   Number of RI-basis functions 0

  C:
    name: Carbon
    id: 4aa54d4b901d75f77cc0ea3eec22967b
    Z: 6.0
    valence: 4
    core: 2
    charge: 0.0
    file: /home/modules/software/GPAW-setups/0.9.20000/C.PBE.gz
    compensation charges: {type: gauss,
                           rc: 0.20,
                           lmax: 2}
    cutoffs: {filter: 1.14,
              core: 1.14}
    valence states:
      #              energy  rcut
      - 2s(2.00)   -13.751   0.635
      - 2p(2.00)    -5.284   0.635
      -  s          13.461   0.635
      -  p          21.927   0.635
      -  d           0.000   0.635
  
    # LCAO basis set for C:
    #   Name: dzp
    #   File: /home/modules/software/GPAW-setups/0.9.20000/C.dzp.basis.gz
    #   Number of radial functions: 5
    #   Number of spherical harmonics: 13
    #     l=0, rc=5.5469 Bohr: 2s-sz confined orbital
    #     l=1, rc=6.6719 Bohr: 2p-sz confined orbital
    #     l=0, rc=3.0312 Bohr: 2s-dz split-valence wave
    #     l=1, rc=3.7500 Bohr: 2p-dz split-valence wave
    #     l=2, rc=6.6719 Bohr: d-type Gaussian polarization
    #   Number of RI-basis functions 0

Reference energy: -20422908.309226  # eV

Spin-paired calculation

Convergence criteria:
 Maximum [total energy] change in last 3 cyles: 0.0005 eV / electron
 Maximum integral of absolute [dens]ity change: 0.0001 electrons / valence electron
 Maximum integral of absolute [eigenst]ate change: 4e-08 eV^2 / valence electron
 Maximum number of scf [iter]ations: 333
 (Square brackets indicate name in SCF output, whereas a 'c' in
 the SCF output indicates the quantity has converged.)

Symmetries present (total): 1

  ( 1  0  0)
  ( 0  1  0)
  ( 0  0  1)

16 k-points: 4 x 4 x 1 Monkhorst-Pack grid
8 k-points in the irreducible part of the Brillouin zone
       k-points in crystal coordinates                weights
   0:     0.12500000   -0.37500000    0.00000000          2/16
   1:     0.12500000   -0.12500000    0.00000000          2/16
   2:     0.12500000    0.12500000    0.00000000          2/16
   3:     0.12500000    0.37500000    0.00000000          2/16
   4:     0.37500000   -0.37500000    0.00000000          2/16
   5:     0.37500000   -0.12500000    0.00000000          2/16
   6:     0.37500000    0.12500000    0.00000000          2/16
   7:     0.37500000    0.37500000    0.00000000          2/16

Wave functions: Uniform real-space grid
  Kinetic energy operator: 8*3+1=25 point O(h^6) finite-difference Laplacian
  ScaLapack parameters: grid=1x1, blocksize=None
  Wavefunction extrapolation:
    Improved wavefunction reuse through dual PAW basis 

Occupation numbers: Fermi-Dirac:
  width: 0.1000  # eV
 

Eigensolver
   Davidson(niter=2) 

Densities:
  Coarse grid: 52*52*160 grid
  Fine grid: 104*104*320 grid
  Total Charge: 0.000000 

Density mixing:
  Method: separate
  Backend: pulay
  Linear mixing parameter: 0.05
  old densities: 5
  Damping of long wavelength oscillations: 50 

Hamiltonian:
  XC and Coulomb potentials evaluated on a 104*104*320 grid
  Using the BEEF-vdW Exchange-Correlation functional
  Interpolation: tri-quintic (5. degree polynomial)
  Poisson solver: FastPoissonSolver using
    Stencil: 8*3+1=25 point O(h^6) finite-difference Laplacian
    FFT axes: [0, 1]
    FST axes: [2]
 

XC parameters: BEEF-vdW with 2 nearest neighbor stencil

Memory estimate:
  Process memory now: 230.29 MiB
  Calculator: 901.08 MiB
    Density: 65.91 MiB
      Arrays: 16.88 MiB
      Localized functions: 42.64 MiB
      Mixer: 6.40 MiB
    Hamiltonian: 14.76 MiB
      Arrays: 11.04 MiB
      XC: 0.00 MiB
      Poisson: 0.00 MiB
      vbar: 3.72 MiB
    Wavefunctions: 820.41 MiB
      Arrays psit_nG: 395.23 MiB
      Eigensolver: 416.20 MiB
      Projections: 0.62 MiB
      Projectors: 8.36 MiB

Total number of cores used: 40
Parallelization over k-points: 8
Domain decomposition: 1 x 1 x 5

Number of atoms: 37
Number of atomic orbitals: 841
Number of bands in calculation: 309
Number of valence electrons: 508
Bands to converge: occupied

... initialized

Initializing position-dependent things.

Density initialized from atomic densities
Creating initial wave functions:
  309 bands from LCAO basis set

                                                    
                                                    
                                                    
                                                    
                                                    
                                                    
           Pb       Pb  C    Pb                     
                                                    
              Pb      Pb       Pb                   
             Pb      Pb       Pb                    
                Pb      Pb       Pb                 
               Pb       Pb      Pb                  
                                                    
                PPb      PPb      Pb                
                                                    
                   Pb      Pb       Pb              
                                                    
           Pb       PPb      Pb       Pb            
                                                    
              Pb      Pb       Pb                   
                                                    
                Pb      Pb       Pb                 
                                                    
                                                    
                                                    
                                                    

Positions:
   0 Pb     0.000000    0.000000   10.000000    ( 0.0000,  0.0000,  0.0000)
   1 Pb     1.778836    1.027012   12.904828    ( 0.0000,  0.0000,  0.0000)
   2 Pb    -0.000000    2.058039   15.925154    ( 0.0000,  0.0000,  0.0000)
   3 Pb    -0.000000    0.000000   18.734333    ( 0.0000,  0.0000,  0.0000)
   4 Pb    -1.778836    3.081035   10.000000    ( 0.0000,  0.0000,  0.0000)
   5 Pb    -0.000000    4.108047   12.904828    ( 0.0000,  0.0000,  0.0000)
   6 Pb    -1.780038    5.134365   15.935257    ( 0.0000,  0.0000,  0.0000)
   7 Pb    -1.780612    3.082298   18.759869    ( 0.0000,  0.0000,  0.0000)
   8 Pb    -3.557673    6.162070   10.000000    ( 0.0000,  0.0000,  0.0000)
   9 Pb    -1.778836    7.189082   12.904828    ( 0.0000,  0.0000,  0.0000)
  10 Pb    -3.554195    8.214086   15.925154    ( 0.0000,  0.0000,  0.0000)
  11 Pb    -3.557467    6.159901   18.759869    ( 0.0000,  0.0000,  0.0000)
  12 Pb     3.557673    0.000000   10.000000    ( 0.0000,  0.0000,  0.0000)
  13 Pb     5.336509    1.027012   12.904828    ( 0.0000,  0.0000,  0.0000)
  14 Pb     3.550963    2.050149   15.930366    ( 0.0000,  0.0000,  0.0000)
  15 Pb     3.559654    0.000906   18.759869    ( 0.0000,  0.0000,  0.0000)
  16 Pb     1.778836    3.081035   10.000000    ( 0.0000,  0.0000,  0.0000)
  17 Pb     3.557673    4.108047   12.904828    ( 0.0000,  0.0000,  0.0000)
  18 Pb     1.780038    5.134365   15.935257    ( 0.0000,  0.0000,  0.0000)
  19 Pb     1.780612    3.082298   18.759869    ( 0.0000,  0.0000,  0.0000)
  20 Pb    -0.000000    6.162070   10.000000    ( 0.0000,  0.0000,  0.0000)
  21 Pb     1.778836    7.189082   12.904828    ( 0.0000,  0.0000,  0.0000)
  22 Pb    -0.000000    8.217481   15.935257    ( 0.0000,  0.0000,  0.0000)
  23 Pb    -0.000000    6.162070   18.757272    ( 0.0000,  0.0000,  0.0000)
  24 Pb     7.115346    0.000000   10.000000    ( 0.0000,  0.0000,  0.0000)
  25 Pb     8.894182    1.027012   12.904828    ( 0.0000,  0.0000,  0.0000)
  26 Pb     7.122056    2.050149   15.930366    ( 0.0000,  0.0000,  0.0000)
  27 Pb     7.113364    0.000906   18.759869    ( 0.0000,  0.0000,  0.0000)
  28 Pb     5.336509    3.081035   10.000000    ( 0.0000,  0.0000,  0.0000)
  29 Pb     7.115346    4.108047   12.904828    ( 0.0000,  0.0000,  0.0000)
  30 Pb     5.336509    5.142806   15.930366    ( 0.0000,  0.0000,  0.0000)
  31 Pb     5.336509    3.081035   18.756500    ( 0.0000,  0.0000,  0.0000)
  32 Pb     3.557673    6.162070   10.000000    ( 0.0000,  0.0000,  0.0000)
  33 Pb     5.336509    7.189082   12.904828    ( 0.0000,  0.0000,  0.0000)
  34 Pb     3.554195    8.214086   15.925154    ( 0.0000,  0.0000,  0.0000)
  35 Pb     3.557467    6.159901   18.759869    ( 0.0000,  0.0000,  0.0000)
  36 C      1.780612    5.136203   19.786822    ( 0.0000,  0.0000,  0.0000)

Unit cell:
           periodic     x           y           z      points  spacing
  1. axis:    yes   10.673019    0.000000    0.000000    52     0.1778
  2. axis:    yes   -5.336509    9.243105    0.000000    52     0.1778
  3. axis:    no     0.000000    0.000000   28.714483   160     0.1795

  Lengths:  10.673019  10.673019  28.714483
  Angles:   90.000000  90.000000 120.000000

Effective grid spacing dv^(1/3) = 0.1871

     iter     time        total  log10-change:
                         energy  eigst   dens
iter:   1 02:31:53 -12835.007837
iter:   2 02:32:34 -12834.915404  -0.33  -1.55
iter:   3 02:33:14 -12834.438517  -0.87  -1.56
iter:   4 02:33:54 -12834.571748  -1.50  -1.64
iter:   5 02:34:34 -12834.965209  -1.56  -1.65
iter:   6 02:35:14 -12834.661725  -1.64  -1.77
iter:   7 02:35:54 -12834.657524  -1.68  -2.04
iter:   8 02:36:34 -12834.623001c -2.03  -2.31
iter:   9 02:37:14 -12834.600070c -2.49  -2.42
iter:  10 02:37:54 -12834.586104c -2.83  -2.52
iter:  11 02:38:34 -12834.582482c -3.14  -2.61
iter:  12 02:39:14 -12834.568718c -3.32  -2.63
iter:  13 02:39:55 -12834.562260c -3.07  -2.73
iter:  14 02:40:35 -12834.560057c -3.46  -2.88
iter:  15 02:41:15 -12834.559736c -3.59  -3.01
iter:  16 02:41:55 -12834.559393c -4.11  -3.14
iter:  17 02:42:35 -12834.557741c -4.49  -3.24
iter:  18 02:43:15 -12834.556178c -4.48  -3.35
iter:  19 02:43:55 -12834.556208c -4.92  -3.45
iter:  20 02:44:35 -12834.555992c -5.40  -3.50
iter:  21 02:45:15 -12834.555999c -5.76  -3.56
iter:  22 02:45:55 -12834.555704c -5.40  -3.64
iter:  23 02:46:36 -12834.555639c -5.48  -3.80
iter:  24 02:47:16 -12834.555626c -5.87  -3.97
iter:  25 02:47:56 -12834.555630c -6.25  -4.28c
iter:  26 02:48:36 -12834.555619c -6.87  -4.44c
iter:  27 02:49:16 -12834.555621c -7.12  -4.62c
iter:  28 02:49:56 -12834.555619c -7.34  -4.70c
iter:  29 02:50:36 -12834.555625c -7.29  -4.79c
iter:  30 02:51:16 -12834.555624c -7.59c -5.11c

Converged after 30 iterations.

Dipole moment: (-8.497038, -15.540199, -0.236532) |e|*Ang

Energy contributions relative to reference atoms: (reference = -20422908.309226)

Kinetic:       +1462.224861
Potential:     -1405.627007
External:        +0.000000
XC:            -12886.559128
Entropy (-ST):   -0.655842
Local:           -4.266430
--------------------------
Free energy:   -12834.883545
Extrapolated:  -12834.555624

Showing only first 2 kpts
 Kpt  Band  Eigenvalues  Occupancy
  0   252     -4.18478    1.25213
  0   253     -4.12761    0.97185
  0   254     -4.06332    0.66398
  0   255     -3.96251    0.30702

  1   252     -4.65298    1.98900
  1   253     -4.63380    1.98669
  1   254     -4.52119    1.95952
  1   255     -4.47740    1.93796


Fermi level: -4.13324

No gap

Forces in eV/Ang:
  0 Pb   -0.00831    0.00488    0.12801
  1 Pb    0.01271    0.02252   -0.15826
  2 Pb   -0.06378    0.04628   -0.07677
  3 Pb   -0.02981    0.01697    0.04862
  4 Pb   -0.01314   -0.00042    0.06961
  5 Pb   -0.03258   -0.04413   -0.08438
  6 Pb    0.01059   -0.08952   -0.07592
  7 Pb   -0.11948   -0.06082    0.00175
  8 Pb   -0.00582   -0.02008    0.09735
  9 Pb   -0.00757    0.00429   -0.16407
 10 Pb    0.00299   -0.00166    0.12315
 11 Pb    0.01138   -0.03082    0.03122
 12 Pb    0.01444    0.01516    0.09733
 13 Pb   -0.01559    0.02334   -0.09582
 14 Pb    0.08267    0.03722   -0.08766
 15 Pb    0.03258    0.00545    0.03119
 16 Pb    0.01853    0.00161    0.11461
 17 Pb    0.03083   -0.01783   -0.06528
 18 Pb    0.00965   -0.00601   -0.29375
 19 Pb   -0.01554   -0.39881    0.20525
 20 Pb   -0.01793    0.01035    0.14485
 21 Pb    0.02191    0.05031   -0.08460
 22 Pb    0.08293    0.03536   -0.07542
 23 Pb   -0.34972    0.20177    0.21825
 24 Pb   -0.00637    0.01153    0.06970
 25 Pb   -0.00754    0.00456   -0.11463
 26 Pb   -0.00239    0.00127    0.01924
 27 Pb   -0.00756    0.13460    0.00175
 28 Pb    0.00189   -0.00120    0.08414
 29 Pb   -0.02785    0.00191   -0.09555
 30 Pb    0.00942   -0.09024   -0.08824
 31 Pb    0.12108   -0.07041    0.01118
 32 Pb    0.00787   -0.01691    0.11457
 33 Pb   -0.01308   -0.02232   -0.15815
 34 Pb   -0.07192    0.03213   -0.07682
 35 Pb    0.34982    0.21967    0.19940
 36 C     0.00077   -0.02004    0.04125

      Step     Time          Energy         fmax
BFGS:    0 02:51:32   -12834.555624        0.4590
System changes: positions 

Initializing position-dependent things.

Density initialized from wave functions
                                                    
                                                    
                                                    
                                                    
                                                    
                                                    
           Pb       Pb  C    Pb                     
                                                    
              Pb      Pb       Pb                   
             Pb      Pb       Pb                    
                Pb      Pb       Pb                 
               Pb       Pb      Pb                  
                                                    
                PPb      PPb      Pb                
                                                    
                   Pb      Pb       Pb              
                                                    
           Pb       PPb      Pb       Pb            
                                                    
              Pb      Pb       Pb                   
                                                    
                Pb      Pb       Pb                 
                                                    
                                                    
                                                    
                                                    

Positions:
   0 Pb     0.000000    0.000000   10.000000    ( 0.0000,  0.0000,  0.0000)
   1 Pb     1.778836    1.027012   12.904828    ( 0.0000,  0.0000,  0.0000)
   2 Pb    -0.000911    2.058700   15.924057    ( 0.0000,  0.0000,  0.0000)
   3 Pb    -0.000426    0.000242   18.735028    ( 0.0000,  0.0000,  0.0000)
   4 Pb    -1.778836    3.081035   10.000000    ( 0.0000,  0.0000,  0.0000)
   5 Pb    -0.000000    4.108047   12.904828    ( 0.0000,  0.0000,  0.0000)
   6 Pb    -1.779886    5.133086   15.934173    ( 0.0000,  0.0000,  0.0000)
   7 Pb    -1.782319    3.081429   18.759894    ( 0.0000,  0.0000,  0.0000)
   8 Pb    -3.557673    6.162070   10.000000    ( 0.0000,  0.0000,  0.0000)
   9 Pb    -1.778836    7.189082   12.904828    ( 0.0000,  0.0000,  0.0000)
  10 Pb    -3.554153    8.214062   15.926913    ( 0.0000,  0.0000,  0.0000)
  11 Pb    -3.557304    6.159461   18.760315    ( 0.0000,  0.0000,  0.0000)
  12 Pb     3.557673    0.000000   10.000000    ( 0.0000,  0.0000,  0.0000)
  13 Pb     5.336509    1.027012   12.904828    ( 0.0000,  0.0000,  0.0000)
  14 Pb     3.552144    2.050681   15.929113    ( 0.0000,  0.0000,  0.0000)
  15 Pb     3.560120    0.000984   18.760315    ( 0.0000,  0.0000,  0.0000)
  16 Pb     1.778836    3.081035   10.000000    ( 0.0000,  0.0000,  0.0000)
  17 Pb     3.557673    4.108047   12.904828    ( 0.0000,  0.0000,  0.0000)
  18 Pb     1.780176    5.134279   15.931061    ( 0.0000,  0.0000,  0.0000)
  19 Pb     1.780390    3.076601   18.762802    ( 0.0000,  0.0000,  0.0000)
  20 Pb    -0.000000    6.162070   10.000000    ( 0.0000,  0.0000,  0.0000)
  21 Pb     1.778836    7.189082   12.904828    ( 0.0000,  0.0000,  0.0000)
  22 Pb     0.001185    8.217986   15.934180    ( 0.0000,  0.0000,  0.0000)
  23 Pb    -0.004996    6.164953   18.760390    ( 0.0000,  0.0000,  0.0000)
  24 Pb     7.115346    0.000000   10.000000    ( 0.0000,  0.0000,  0.0000)
  25 Pb     8.894182    1.027012   12.904828    ( 0.0000,  0.0000,  0.0000)
  26 Pb     7.122022    2.050168   15.930640    ( 0.0000,  0.0000,  0.0000)
  27 Pb     7.113256    0.002829   18.759894    ( 0.0000,  0.0000,  0.0000)
  28 Pb     5.336509    3.081035   10.000000    ( 0.0000,  0.0000,  0.0000)
  29 Pb     7.115346    4.108047   12.904828    ( 0.0000,  0.0000,  0.0000)
  30 Pb     5.336644    5.141517   15.929105    ( 0.0000,  0.0000,  0.0000)
  31 Pb     5.338239    3.080029   18.756660    ( 0.0000,  0.0000,  0.0000)
  32 Pb     3.557673    6.162070   10.000000    ( 0.0000,  0.0000,  0.0000)
  33 Pb     5.336509    7.189082   12.904828    ( 0.0000,  0.0000,  0.0000)
  34 Pb     3.553168    8.214545   15.924056    ( 0.0000,  0.0000,  0.0000)
  35 Pb     3.562464    6.163039   18.762718    ( 0.0000,  0.0000,  0.0000)
  36 C      1.780623    5.135917   19.787411    ( 0.0000,  0.0000,  0.0000)

Unit cell:
           periodic     x           y           z      points  spacing
  1. axis:    yes   10.673019    0.000000    0.000000    52     0.1778
  2. axis:    yes   -5.336509    9.243105    0.000000    52     0.1778
  3. axis:    no     0.000000    0.000000   28.714483   160     0.1795

  Lengths:  10.673019  10.673019  28.714483
  Angles:   90.000000  90.000000 120.000000

Effective grid spacing dv^(1/3) = 0.1871

     iter     time        total  log10-change:
                         energy  eigst   dens
iter:   1 02:52:40 -12834.571104  -3.42
iter:   2 02:53:21 -12834.569475  -4.28  -3.21
iter:   3 02:54:01 -12834.568058c -4.95  -3.28
iter:   4 02:54:41 -12834.567718c -5.18  -3.72
iter:   5 02:55:22 -12834.567685c -5.42  -3.95
iter:   6 02:56:02 -12834.567687c -5.53  -4.17c
iter:   7 02:56:43 -12834.567696c -6.32  -4.33c
iter:   8 02:57:23 -12834.567708c -6.74  -4.42c
iter:   9 02:58:04 -12834.567702c -6.92  -4.51c
iter:  10 02:58:44 -12834.567710c -7.16  -4.53c
iter:  11 02:59:24 -12834.567711c -7.45c -4.71c

Converged after 11 iterations.

Dipole moment: (-8.242197, -15.685555, -0.236420) |e|*Ang

Energy contributions relative to reference atoms: (reference = -20422908.309226)

Kinetic:       +1461.741111
Potential:     -1405.247449
External:        +0.000000
XC:            -12886.465091
Entropy (-ST):   -0.655649
Local:           -4.268457
--------------------------
Free energy:   -12834.895535
Extrapolated:  -12834.567711

Showing only first 2 kpts
 Kpt  Band  Eigenvalues  Occupancy
  0   252     -4.18493    1.25614
  0   253     -4.12634    0.96903
  0   254     -4.06253    0.66362
  0   255     -3.96199    0.30753

  1   252     -4.65356    1.98914
  1   253     -4.63345    1.98674
  1   254     -4.52133    1.95985
  1   255     -4.47878    1.93920


Fermi level: -4.13253

No gap

Forces in eV/Ang:
  0 Pb   -0.00904    0.00529    0.12721
  1 Pb    0.01251    0.02116   -0.15606
  2 Pb   -0.05831    0.04232   -0.07189
  3 Pb   -0.03196    0.01882    0.04766
  4 Pb   -0.01284   -0.00043    0.06995
  5 Pb   -0.03319   -0.04428   -0.09100
  6 Pb    0.01189   -0.08296   -0.07161
  7 Pb   -0.10987   -0.05576    0.00384
  8 Pb   -0.00595   -0.02084    0.09691
  9 Pb   -0.00865    0.00494   -0.16187
 10 Pb    0.00261   -0.00144    0.11849
 11 Pb    0.01077   -0.03147    0.03009
 12 Pb    0.01504    0.01564    0.09688
 13 Pb   -0.01492    0.02334   -0.09602
 14 Pb    0.07314    0.03410   -0.08139
 15 Pb    0.03241    0.00669    0.03007
 16 Pb    0.01846    0.00259    0.11630
 17 Pb    0.03110   -0.01795   -0.07191
 18 Pb    0.01321   -0.00793   -0.26193
 19 Pb   -0.01375   -0.33582    0.19941
 20 Pb   -0.01639    0.00947    0.14647
 21 Pb    0.02176    0.05092   -0.09115
 22 Pb    0.07780    0.03101   -0.07139
 23 Pb   -0.31190    0.18040    0.21833
 24 Pb   -0.00618    0.01129    0.07002
 25 Pb   -0.00839    0.00498   -0.11421
 26 Pb   -0.00202    0.00112    0.01257
 27 Pb   -0.00702    0.12349    0.00396
 28 Pb    0.00151   -0.00096    0.08478
 29 Pb   -0.02759    0.00131   -0.09585
 30 Pb    0.00737   -0.08054   -0.08208
 31 Pb    0.11820   -0.06867    0.01283
 32 Pb    0.00698   -0.01733    0.11630
 33 Pb   -0.01205   -0.02147   -0.15594
 34 Pb   -0.06576    0.02949   -0.07232
 35 Pb    0.29179    0.18466    0.19600
 36 C     0.00250   -0.01614   -0.00966

BFGS:    1 02:59:40   -12834.567711        0.4213
System changes: positions 

Initializing position-dependent things.

Density initialized from wave functions
                                                    
                                                    
                                                    
                                                    
                                                    
                                                    
           Pb       Pb  C    Pb                     
                                                    
             Pb       Pb       Pb                   
             Pb      Pb       Pb                    
                Pb      Pb       Pb                 
               Pb       Pb      Pb                  
                                                    
                PPb      PPb      Pb                
                                                    
                   Pb      Pb       Pb              
                                                    
           Pb       PPb      Pb       Pb            
                                                    
              Pb      Pb       Pb                   
                                                    
                Pb      Pb       Pb                 
                                                    
                                                    
                                                    
                                                    

Positions:
   0 Pb     0.000000    0.000000   10.000000    ( 0.0000,  0.0000,  0.0000)
   1 Pb     1.778836    1.027012   12.904828    ( 0.0000,  0.0000,  0.0000)
   2 Pb    -0.009034    2.064595   15.914055    ( 0.0000,  0.0000,  0.0000)
   3 Pb    -0.004844    0.002840   18.741643    ( 0.0000,  0.0000,  0.0000)
   4 Pb    -1.778836    3.081035   10.000000    ( 0.0000,  0.0000,  0.0000)
   5 Pb    -0.000000    4.108047   12.904828    ( 0.0000,  0.0000,  0.0000)
   6 Pb    -1.778247    5.121537   15.924213    ( 0.0000,  0.0000,  0.0000)
   7 Pb    -1.797620    3.073663   18.760413    ( 0.0000,  0.0000,  0.0000)
   8 Pb    -3.557673    6.162070   10.000000    ( 0.0000,  0.0000,  0.0000)
   9 Pb    -1.778836    7.189082   12.904828    ( 0.0000,  0.0000,  0.0000)
  10 Pb    -3.553788    8.213862   15.943376    ( 0.0000,  0.0000,  0.0000)
  11 Pb    -3.555806    6.155101   18.764496    ( 0.0000,  0.0000,  0.0000)
  12 Pb     3.557673    0.000000   10.000000    ( 0.0000,  0.0000,  0.0000)
  13 Pb     5.336509    1.027012   12.904828    ( 0.0000,  0.0000,  0.0000)
  14 Pb     3.562350    2.055431   15.917784    ( 0.0000,  0.0000,  0.0000)
  15 Pb     3.564616    0.001904   18.764493    ( 0.0000,  0.0000,  0.0000)
  16 Pb     1.778836    3.081035   10.000000    ( 0.0000,  0.0000,  0.0000)
  17 Pb     3.557673    4.108047   12.904828    ( 0.0000,  0.0000,  0.0000)
  18 Pb     1.781984    5.133191   15.894525    ( 0.0000,  0.0000,  0.0000)
  19 Pb     1.778471    3.029610   18.790494    ( 0.0000,  0.0000,  0.0000)
  20 Pb    -0.000000    6.162070   10.000000    ( 0.0000,  0.0000,  0.0000)
  21 Pb     1.778836    7.189082   12.904828    ( 0.0000,  0.0000,  0.0000)
  22 Pb     0.012008    8.222315   15.924253    ( 0.0000,  0.0000,  0.0000)
  23 Pb    -0.048501    6.190112   18.790667    ( 0.0000,  0.0000,  0.0000)
  24 Pb     7.115346    0.000000   10.000000    ( 0.0000,  0.0000,  0.0000)
  25 Pb     8.894182    1.027012   12.904828    ( 0.0000,  0.0000,  0.0000)
  26 Pb     7.121739    2.050324   15.932428    ( 0.0000,  0.0000,  0.0000)
  27 Pb     7.112279    0.020028   18.760429    ( 0.0000,  0.0000,  0.0000)
  28 Pb     5.336509    3.081035   10.000000    ( 0.0000,  0.0000,  0.0000)
  29 Pb     7.115346    4.108047   12.904828    ( 0.0000,  0.0000,  0.0000)
  30 Pb     5.337679    5.130284   15.917681    ( 0.0000,  0.0000,  0.0000)
  31 Pb     5.354649    3.070494   18.758428    ( 0.0000,  0.0000,  0.0000)
  32 Pb     3.557673    6.162070   10.000000    ( 0.0000,  0.0000,  0.0000)
  33 Pb     5.336509    7.189082   12.904828    ( 0.0000,  0.0000,  0.0000)
  34 Pb     3.544007    8.218652   15.913997    ( 0.0000,  0.0000,  0.0000)
  35 Pb     3.603316    6.188881   18.789922    ( 0.0000,  0.0000,  0.0000)
  36 C      1.780958    5.133652   19.786411    ( 0.0000,  0.0000,  0.0000)

Unit cell:
           periodic     x           y           z      points  spacing
  1. axis:    yes   10.673019    0.000000    0.000000    52     0.1778
  2. axis:    yes   -5.336509    9.243105    0.000000    52     0.1778
  3. axis:    no     0.000000    0.000000   28.714483   160     0.1795

  Lengths:  10.673019  10.673019  28.714483
  Angles:   90.000000  90.000000 120.000000

Effective grid spacing dv^(1/3) = 0.1871

     iter     time        total  log10-change:
                         energy  eigst   dens
iter:   1 03:00:48 -12834.844711  -1.57
iter:   2 03:01:28 -12834.757647  -2.44  -2.28
iter:   3 03:02:08 -12834.655520c -3.11  -2.36
iter:   4 03:02:49 -12834.639018c -3.36  -2.80
iter:   5 03:03:29 -12834.635313c -3.64  -3.02
iter:   6 03:04:09 -12834.634574c -3.78  -3.22
iter:   7 03:04:49 -12834.634666c -4.43  -3.41
iter:   8 03:05:30 -12834.634913c -4.85  -3.50
iter:   9 03:06:10 -12834.635139c -5.02  -3.58
iter:  10 03:06:50 -12834.635189c -5.37  -3.62
iter:  11 03:07:30 -12834.635238c -5.58  -3.78
iter:  12 03:08:11 -12834.635278c -5.66  -3.91
iter:  13 03:08:51 -12834.635244c -5.63  -4.06c
iter:  14 03:09:31 -12834.635242c -6.10  -4.36c
iter:  15 03:10:11 -12834.635242c -6.66  -4.41c
iter:  16 03:10:52 -12834.635240c -7.04  -4.46c
iter:  17 03:11:32 -12834.635239c -6.94  -4.55c
iter:  18 03:12:12 -12834.635237c -7.19  -4.65c
iter:  19 03:12:53 -12834.635237c -7.41c -4.66c

Converged after 19 iterations.

Dipole moment: (-5.884115, -17.023121, -0.232941) |e|*Ang

Energy contributions relative to reference atoms: (reference = -20422908.309226)

Kinetic:       +1458.572021
Potential:     -1402.752348
External:        +0.000000
XC:            -12885.849494
Entropy (-ST):   -0.654639
Local:           -4.278097
--------------------------
Free energy:   -12834.962557
Extrapolated:  -12834.635237

Showing only first 2 kpts
 Kpt  Band  Eigenvalues  Occupancy
  0   252     -4.18582    1.29156
  0   253     -4.11454    0.94391
  0   254     -4.05493    0.65992
  0   255     -3.95738    0.31316

  1   252     -4.65828    1.99031
  1   253     -4.62946    1.98710
  1   254     -4.52372    1.96330
  1   255     -4.48872    1.94831


Fermi level: -4.12577

No gap

Forces in eV/Ang:
  0 Pb   -0.01168    0.00675    0.12740
  1 Pb    0.01203    0.01213   -0.14675
  2 Pb   -0.02672    0.02309   -0.04303
  3 Pb   -0.05080    0.02970    0.04511
  4 Pb   -0.01519   -0.00091    0.06984
  5 Pb   -0.03515   -0.04401   -0.10565
  6 Pb    0.02242   -0.04908   -0.04998
  7 Pb   -0.04800   -0.02961    0.00728
  8 Pb   -0.00587   -0.02490    0.09846
  9 Pb   -0.01668    0.00963   -0.15321
 10 Pb   -0.00230    0.00146    0.09154
 11 Pb    0.00515   -0.03232    0.02982
 12 Pb    0.01863    0.01754    0.09843
 13 Pb   -0.01774    0.02116   -0.10565
 14 Pb    0.01908    0.02063   -0.04853
 15 Pb    0.03049    0.01179    0.02963
 16 Pb    0.01929    0.00416    0.11567
 17 Pb    0.03278   -0.01893   -0.08710
 18 Pb    0.01923   -0.01080   -0.11443
 19 Pb    0.00806   -0.04243    0.19282
 20 Pb   -0.01369    0.00793    0.14557
 21 Pb    0.02053    0.05240   -0.10565
 22 Pb    0.05354    0.00520   -0.04997
 23 Pb   -0.01683    0.00964    0.19440
 24 Pb   -0.00681    0.01362    0.06976
 25 Pb   -0.00682    0.00396   -0.12073
 26 Pb   -0.00135    0.00088   -0.00372
 27 Pb    0.00200    0.05624    0.00713
 28 Pb    0.00332   -0.00193    0.08571
 29 Pb   -0.02716    0.00476   -0.10586
 30 Pb   -0.00851   -0.02691   -0.04825
 31 Pb    0.10110   -0.05823    0.01372
 32 Pb    0.00605   -0.01875    0.11574
 33 Pb   -0.00451   -0.01651   -0.14690
 34 Pb   -0.03342    0.01152   -0.04278
 35 Pb    0.03506    0.00999    0.19451
 36 C     0.00438    0.00396   -0.22073

BFGS:    2 03:13:08   -12834.635237        0.2208
System changes: positions 

Initializing position-dependent things.

Density initialized from wave functions
                                                    
                                                    
                                                    
                                                    
                                                    
                                                    
           Pb       Pb  C    Pb                     
                                                    
             Pb       Pb       Pb                   
             Pb      Pb       Pb                    
                Pb      Pb       Pb                 
               Pb       Pb      Pb                  
                                                    
                PPb      PPb      Pb                
                                                    
                   Pb      Pb       Pb              
                                                    
           Pb       PPb      Pb       Pb            
                                                    
              Pb      Pb       Pb                   
                                                    
                Pb      Pb       Pb                 
                                                    
                                                    
                                                    
                                                    

Positions:
   0 Pb     0.000000    0.000000   10.000000    ( 0.0000,  0.0000,  0.0000)
   1 Pb     1.778836    1.027012   12.904828    ( 0.0000,  0.0000,  0.0000)
   2 Pb    -0.014679    2.068778   15.906879    ( 0.0000,  0.0000,  0.0000)
   3 Pb    -0.008731    0.005117   18.746764    ( 0.0000,  0.0000,  0.0000)
   4 Pb    -1.778836    3.081035   10.000000    ( 0.0000,  0.0000,  0.0000)
   5 Pb    -0.000000    4.108047   12.904828    ( 0.0000,  0.0000,  0.0000)
   6 Pb    -1.776724    5.113260   15.916904    ( 0.0000,  0.0000,  0.0000)
   7 Pb    -1.808194    3.068171   18.760890    ( 0.0000,  0.0000,  0.0000)
   8 Pb    -3.557673    6.162070   10.000000    ( 0.0000,  0.0000,  0.0000)
   9 Pb    -1.778836    7.189082   12.904828    ( 0.0000,  0.0000,  0.0000)
  10 Pb    -3.553616    8.213771   15.955651    ( 0.0000,  0.0000,  0.0000)
  11 Pb    -3.554762    6.151672   18.767767    ( 0.0000,  0.0000,  0.0000)
  12 Pb     3.557673    0.000000   10.000000    ( 0.0000,  0.0000,  0.0000)
  13 Pb     5.336509    1.027012   12.904828    ( 0.0000,  0.0000,  0.0000)
  14 Pb     3.569121    2.058848   15.909656    ( 0.0000,  0.0000,  0.0000)
  15 Pb     3.568090    0.002736   18.767757    ( 0.0000,  0.0000,  0.0000)
  16 Pb     1.778836    3.081035   10.000000    ( 0.0000,  0.0000,  0.0000)
  17 Pb     3.557673    4.108047   12.904828    ( 0.0000,  0.0000,  0.0000)
  18 Pb     1.783522    5.132283   15.869226    ( 0.0000,  0.0000,  0.0000)
  19 Pb     1.777470    2.999387   18.812037    ( 0.0000,  0.0000,  0.0000)
  20 Pb    -0.000000    6.162070   10.000000    ( 0.0000,  0.0000,  0.0000)
  21 Pb     1.778836    7.189082   12.904828    ( 0.0000,  0.0000,  0.0000)
  22 Pb     0.019936    8.225122   15.916966    ( 0.0000,  0.0000,  0.0000)
  23 Pb    -0.075837    6.205915   18.813799    ( 0.0000,  0.0000,  0.0000)
  24 Pb     7.115346    0.000000   10.000000    ( 0.0000,  0.0000,  0.0000)
  25 Pb     8.894182    1.027012   12.904828    ( 0.0000,  0.0000,  0.0000)
  26 Pb     7.121532    2.050441   15.933479    ( 0.0000,  0.0000,  0.0000)
  27 Pb     7.111723    0.031971   18.760911    ( 0.0000,  0.0000,  0.0000)
  28 Pb     5.336509    3.081035   10.000000    ( 0.0000,  0.0000,  0.0000)
  29 Pb     7.115346    4.108047   12.904828    ( 0.0000,  0.0000,  0.0000)
  30 Pb     5.338128    5.122699   15.909502    ( 0.0000,  0.0000,  0.0000)
  31 Pb     5.367105    3.063268   18.759825    ( 0.0000,  0.0000,  0.0000)
  32 Pb     3.557673    6.162070   10.000000    ( 0.0000,  0.0000,  0.0000)
  33 Pb     5.336509    7.189082   12.904828    ( 0.0000,  0.0000,  0.0000)
  34 Pb     3.537564    8.221460   15.906794    ( 0.0000,  0.0000,  0.0000)
  35 Pb     3.629568    6.205193   18.811191    ( 0.0000,  0.0000,  0.0000)
  36 C      1.781255    5.132331   19.780944    ( 0.0000,  0.0000,  0.0000)

Unit cell:
           periodic     x           y           z      points  spacing
  1. axis:    yes   10.673019    0.000000    0.000000    52     0.1778
  2. axis:    yes   -5.336509    9.243105    0.000000    52     0.1778
  3. axis:    no     0.000000    0.000000   28.714483   160     0.1795

  Lengths:  10.673019  10.673019  28.714483
  Angles:   90.000000  90.000000 120.000000

Effective grid spacing dv^(1/3) = 0.1871

     iter     time        total  log10-change:
                         energy  eigst   dens
iter:   1 03:14:16 -12834.721602  -1.92
iter:   2 03:14:57 -12834.693553  -2.79  -2.49
iter:   3 03:15:37 -12834.655654c -3.47  -2.58
iter:   4 03:16:18 -12834.650478c -3.77  -3.02
iter:   5 03:16:58 -12834.649085c -3.99  -3.21
iter:   6 03:17:39 -12834.649037c -4.25  -3.44
iter:   7 03:18:19 -12834.649122c -4.90  -3.60
iter:   8 03:19:00 -12834.649316c -5.17  -3.69
iter:   9 03:19:41 -12834.649383c -5.49  -3.78
iter:  10 03:20:21 -12834.649407c -5.76  -3.80
iter:  11 03:21:02 -12834.649420c -5.95  -3.98
iter:  12 03:21:42 -12834.649432c -6.11  -4.14c
iter:  13 03:22:23 -12834.649422c -6.12  -4.26c
iter:  14 03:23:04 -12834.649415c -6.53  -4.53c
iter:  15 03:23:44 -12834.649411c -7.08  -4.64c
iter:  16 03:24:25 -12834.649408c -7.29  -4.70c
iter:  17 03:25:05 -12834.649409c -7.38  -4.81c
iter:  18 03:25:46 -12834.649409c -8.00c -4.84c

Converged after 18 iterations.

Dipole moment: (-4.163149, -17.983980, -0.227506) |e|*Ang

Energy contributions relative to reference atoms: (reference = -20422908.309226)

Kinetic:       +1456.758680
Potential:     -1401.288584
External:        +0.000000
XC:            -12885.507954
Entropy (-ST):   -0.654511
Local:           -4.284295
--------------------------
Free energy:   -12834.976664
Extrapolated:  -12834.649409

Showing only first 2 kpts
 Kpt  Band  Eigenvalues  Occupancy
  0   252     -4.18497    1.31741
  0   253     -4.10457    0.92691
  0   254     -4.04769    0.65687
  0   255     -3.95386    0.32125

  1   252     -4.65998    1.99108
  1   253     -4.62423    1.98727
  1   254     -4.52464    1.96590
  1   255     -4.49235    1.95320


Fermi level: -4.11921

No gap

Forces in eV/Ang:
  0 Pb   -0.01429    0.00820    0.12768
  1 Pb    0.01144    0.00617   -0.14094
  2 Pb   -0.00006    0.00111   -0.01774
  3 Pb   -0.06149    0.03681    0.03479
  4 Pb   -0.01636   -0.00106    0.07138
  5 Pb   -0.03794   -0.04435   -0.12668
  6 Pb    0.02586   -0.01840   -0.02931
  7 Pb   -0.00017   -0.01962    0.01217
  8 Pb   -0.00577   -0.02867    0.09957
  9 Pb   -0.02184    0.01263   -0.14757
 10 Pb   -0.00372    0.00224    0.06830
 11 Pb    0.00028   -0.03147    0.02283
 12 Pb    0.02200    0.01928    0.09952
 13 Pb   -0.01822    0.01979   -0.11222
 14 Pb   -0.01324    0.00755   -0.01906
 15 Pb    0.02677    0.01607    0.02263
 16 Pb    0.01985    0.00632    0.11749
 17 Pb    0.03549   -0.02049   -0.10893
 18 Pb    0.01800   -0.00988    0.01459
 19 Pb   -0.01003    0.14367    0.18793
 20 Pb   -0.01121    0.00651    0.14696
 21 Pb    0.01944    0.05497   -0.12661
 22 Pb    0.02857   -0.01292   -0.02966
 23 Pb    0.15410   -0.08888    0.20689
 24 Pb   -0.00719    0.01473    0.07118
 25 Pb   -0.00663    0.00377   -0.12455
 26 Pb   -0.00035    0.00035   -0.02407
 27 Pb    0.01773    0.00935    0.01208
 28 Pb    0.00411   -0.00234    0.08818
 29 Pb   -0.02626    0.00583   -0.11264
 30 Pb   -0.01354    0.00765   -0.01840
 31 Pb    0.05162   -0.02934    0.01273
 32 Pb    0.00446   -0.02024    0.11760
 33 Pb    0.00032   -0.01300   -0.14121
 34 Pb   -0.00108   -0.00060   -0.01745
 35 Pb   -0.14288   -0.07156    0.19166
 36 C     0.00375    0.01642   -0.33423

BFGS:    3 03:26:01   -12834.649409        0.3347
System changes: positions 

Initializing position-dependent things.

Density initialized from wave functions
                                                    
                                                    
                                                    
                                                    
                                                    
                                                    
           Pb       Pb  C    Pb                     
                                                    
             Pb       Pb       Pb                   
                     Pb       Pb                    
                Pb       Pb      Pb                 
               Pb       Pb      Pb                  
                                                    
                PPb      PPb      Pb                
                                                    
                   Pb      Pb       Pb              
                                                    
           Pb       PPb      Pb       Pb            
                                                    
              Pb      Pb       Pb                   
                                                    
                Pb      Pb       Pb                 
                                                    
                                                    
                                                    
                                                    

Positions:
   0 Pb     0.000000    0.000000   10.000000    ( 0.0000,  0.0000,  0.0000)
   1 Pb     1.778836    1.027012   12.904828    ( 0.0000,  0.0000,  0.0000)
   2 Pb    -0.015875    2.069677   15.905094    ( 0.0000,  0.0000,  0.0000)
   3 Pb    -0.010481    0.006152   18.748366    ( 0.0000,  0.0000,  0.0000)
   4 Pb    -1.778836    3.081035   10.000000    ( 0.0000,  0.0000,  0.0000)
   5 Pb    -0.000000    4.108047   12.904828    ( 0.0000,  0.0000,  0.0000)
   6 Pb    -1.776015    5.111229   15.914915    ( 0.0000,  0.0000,  0.0000)
   7 Pb    -1.810434    3.066696   18.761168    ( 0.0000,  0.0000,  0.0000)
   8 Pb    -3.557673    6.162070   10.000000    ( 0.0000,  0.0000,  0.0000)
   9 Pb    -1.778836    7.189082   12.904828    ( 0.0000,  0.0000,  0.0000)
  10 Pb    -3.553635    8.213786   15.959279    ( 0.0000,  0.0000,  0.0000)
  11 Pb    -3.554539    6.150476   18.768801    ( 0.0000,  0.0000,  0.0000)
  12 Pb     3.557673    0.000000   10.000000    ( 0.0000,  0.0000,  0.0000)
  13 Pb     5.336509    1.027012   12.904828    ( 0.0000,  0.0000,  0.0000)
  14 Pb     3.570371    2.059688   15.907647    ( 0.0000,  0.0000,  0.0000)
  15 Pb     3.569226    0.003153   18.768787    ( 0.0000,  0.0000,  0.0000)
  16 Pb     1.778836    3.081035   10.000000    ( 0.0000,  0.0000,  0.0000)
  17 Pb     3.557673    4.108047   12.904828    ( 0.0000,  0.0000,  0.0000)
  18 Pb     1.784097    5.131954   15.864061    ( 0.0000,  0.0000,  0.0000)
  19 Pb     1.777075    2.995013   18.819459    ( 0.0000,  0.0000,  0.0000)
  20 Pb    -0.000000    6.162070   10.000000    ( 0.0000,  0.0000,  0.0000)
  21 Pb     1.778836    7.189082   12.904828    ( 0.0000,  0.0000,  0.0000)
  22 Pb     0.022045    8.225524   15.914977    ( 0.0000,  0.0000,  0.0000)
  23 Pb    -0.079316    6.207927   18.821831    ( 0.0000,  0.0000,  0.0000)
  24 Pb     7.115346    0.000000   10.000000    ( 0.0000,  0.0000,  0.0000)
  25 Pb     8.894182    1.027012   12.904828    ( 0.0000,  0.0000,  0.0000)
  26 Pb     7.121482    2.050471   15.933353    ( 0.0000,  0.0000,  0.0000)
  27 Pb     7.111888    0.034648   18.761188    ( 0.0000,  0.0000,  0.0000)
  28 Pb     5.336509    3.081035   10.000000    ( 0.0000,  0.0000,  0.0000)
  29 Pb     7.115346    4.108047   12.904828    ( 0.0000,  0.0000,  0.0000)
  30 Pb     5.338025    5.121194   15.907493    ( 0.0000,  0.0000,  0.0000)
  31 Pb     5.370477    3.061320   18.760301    ( 0.0000,  0.0000,  0.0000)
  32 Pb     3.557673    6.162070   10.000000    ( 0.0000,  0.0000,  0.0000)
  33 Pb     5.336509    7.189082   12.904828    ( 0.0000,  0.0000,  0.0000)
  34 Pb     3.536187    8.222046   15.905010    ( 0.0000,  0.0000,  0.0000)
  35 Pb     3.633093    6.207673   18.818599    ( 0.0000,  0.0000,  0.0000)
  36 C      1.781364    5.132291   19.774906    ( 0.0000,  0.0000,  0.0000)

Unit cell:
           periodic     x           y           z      points  spacing
  1. axis:    yes   10.673019    0.000000    0.000000    52     0.1778
  2. axis:    yes   -5.336509    9.243105    0.000000    52     0.1778
  3. axis:    no     0.000000    0.000000   28.714483   160     0.1795

  Lengths:  10.673019  10.673019  28.714483
  Angles:   90.000000  90.000000 120.000000

Effective grid spacing dv^(1/3) = 0.1871

     iter     time        total  log10-change:
                         energy  eigst   dens
iter:   1 03:27:10 -12834.654324  -3.18
iter:   2 03:27:50 -12834.654361  -4.11  -3.48
iter:   3 03:28:30 -12834.654177c -4.76  -3.56
iter:   4 03:29:11 -12834.654083c -5.05  -3.74
iter:   5 03:29:51 -12834.654047c -5.42  -3.94
iter:   6 03:30:32 -12834.654041c -5.78  -4.10c
iter:   7 03:31:12 -12834.654039c -6.06  -4.19c
iter:   8 03:31:53 -12834.654043c -6.34  -4.41c
iter:   9 03:32:33 -12834.654045c -6.94  -4.45c
iter:  10 03:33:14 -12834.654045c -7.16  -4.51c
iter:  11 03:33:54 -12834.654045c -7.30  -4.69c
iter:  12 03:34:35 -12834.654045c -7.68c -4.77c

Converged after 12 iterations.

Dipole moment: (-3.681062, -18.254373, -0.223606) |e|*Ang

Energy contributions relative to reference atoms: (reference = -20422908.309226)

Kinetic:       +1456.526247
Potential:     -1401.087398
External:        +0.000000
XC:            -12885.476346
Entropy (-ST):   -0.655047
Local:           -4.289024
--------------------------
Free energy:   -12834.981568
Extrapolated:  -12834.654045

Showing only first 2 kpts
 Kpt  Band  Eigenvalues  Occupancy
  0   252     -4.18315    1.32191
  0   253     -4.10089    0.92265
  0   254     -4.04418    0.65387
  0   255     -3.95257    0.32541

  1   252     -4.65877    1.99122
  1   253     -4.62118    1.98724
  1   254     -4.52384    1.96657
  1   255     -4.49127    1.95399


Fermi level: -4.11639

No gap

Forces in eV/Ang:
  0 Pb   -0.01442    0.00829    0.12473
  1 Pb    0.01139    0.00517   -0.13782
  2 Pb    0.00761   -0.00501   -0.00916
  3 Pb   -0.06215    0.03733    0.03034
  4 Pb   -0.01631   -0.00083    0.06921
  5 Pb   -0.03664   -0.04341   -0.13261
  6 Pb    0.02604   -0.00883   -0.02075
  7 Pb    0.01303   -0.01654    0.01354
  8 Pb   -0.00582   -0.02895    0.09676
  9 Pb   -0.02265    0.01310   -0.14409
 10 Pb   -0.00325    0.00194    0.06407
 11 Pb   -0.00073   -0.02810    0.01889
 12 Pb    0.02220    0.01947    0.09670
 13 Pb   -0.01903    0.01910   -0.11005
 14 Pb   -0.02047    0.00384   -0.00874
 15 Pb    0.02326    0.01530    0.01872
 16 Pb    0.02021    0.00622    0.11810
 17 Pb    0.03441   -0.01986   -0.11513
 18 Pb    0.01832   -0.01003    0.04701
 19 Pb   -0.01476    0.15491    0.17005
 20 Pb   -0.01143    0.00662    0.14717
 21 Pb    0.01929    0.05340   -0.13249
 22 Pb    0.02048   -0.01790   -0.02113
 23 Pb    0.15976   -0.09190    0.18780
 24 Pb   -0.00736    0.01459    0.06901
 25 Pb   -0.00597    0.00337   -0.12177
 26 Pb    0.00011    0.00005   -0.03074
 27 Pb    0.02167   -0.00380    0.01356
 28 Pb    0.00395   -0.00225    0.08630
 29 Pb   -0.02609    0.00689   -0.11046
 30 Pb   -0.01388    0.01577   -0.00820
 31 Pb    0.03146   -0.01770    0.01190
 32 Pb    0.00473   -0.02052    0.11820
 33 Pb    0.00115   -0.01246   -0.13803
 34 Pb    0.00800   -0.00419   -0.00899
 35 Pb   -0.15469   -0.07322    0.17480
 36 C    -0.00333    0.01877   -0.31900

BFGS:    4 03:34:50   -12834.654045        0.3196
System changes: positions 

Initializing position-dependent things.

Density initialized from wave functions
                                                    
                                                    
                                                    
                                                    
                                                    
                                                    
           Pb       Pb  C    Pb                     
                                                    
             Pb       Pb       Pb                   
                     Pb       Pb                    
                Pb       Pb      Pb                 
               Pb       Pb      Pb                  
                                                    
                PPb      PPb      Pb                
                                                    
                   Pb      Pb       Pb              
                                                    
           Pb       PPb      Pb       Pb            
                                                    
              Pb      Pb       Pb                   
                                                    
                Pb      Pb       Pb                 
                                                    
                                                    
                                                    
                                                    

Positions:
   0 Pb     0.000000    0.000000   10.000000    ( 0.0000,  0.0000,  0.0000)
   1 Pb     1.778836    1.027012   12.904828    ( 0.0000,  0.0000,  0.0000)
   2 Pb    -0.019412    2.072389   15.898672    ( 0.0000,  0.0000,  0.0000)
   3 Pb    -0.019797    0.011681   18.755389    ( 0.0000,  0.0000,  0.0000)
   4 Pb    -1.778836    3.081035   10.000000    ( 0.0000,  0.0000,  0.0000)
   5 Pb    -0.000000    4.108047   12.904828    ( 0.0000,  0.0000,  0.0000)
   6 Pb    -1.772190    5.103986   15.907159    ( 0.0000,  0.0000,  0.0000)
   7 Pb    -1.817115    3.060851   18.762827    ( 0.0000,  0.0000,  0.0000)
   8 Pb    -3.557673    6.162070   10.000000    ( 0.0000,  0.0000,  0.0000)
   9 Pb    -1.778836    7.189082   12.904828    ( 0.0000,  0.0000,  0.0000)
  10 Pb    -3.553880    8.213942   15.974969    ( 0.0000,  0.0000,  0.0000)
  11 Pb    -3.553844    6.144966   18.773300    ( 0.0000,  0.0000,  0.0000)
  12 Pb     3.557673    0.000000   10.000000    ( 0.0000,  0.0000,  0.0000)
  13 Pb     5.336509    1.027012   12.904828    ( 0.0000,  0.0000,  0.0000)
  14 Pb     3.573394    2.062707   15.900496    ( 0.0000,  0.0000,  0.0000)
  15 Pb     3.574278    0.005371   18.773262    ( 0.0000,  0.0000,  0.0000)
  16 Pb     1.778836    3.081035   10.000000    ( 0.0000,  0.0000,  0.0000)
  17 Pb     3.557673    4.108047   12.904828    ( 0.0000,  0.0000,  0.0000)
  18 Pb     1.786997    5.130319   15.849404    ( 0.0000,  0.0000,  0.0000)
  19 Pb     1.774959    2.988512   18.853613    ( 0.0000,  0.0000,  0.0000)
  20 Pb    -0.000000    6.162070   10.000000    ( 0.0000,  0.0000,  0.0000)
  21 Pb     1.778836    7.189082   12.904828    ( 0.0000,  0.0000,  0.0000)
  22 Pb     0.030208    8.225850   15.907207    ( 0.0000,  0.0000,  0.0000)
  23 Pb    -0.082086    6.209548   18.858774    ( 0.0000,  0.0000,  0.0000)
  24 Pb     7.115346    0.000000   10.000000    ( 0.0000,  0.0000,  0.0000)
  25 Pb     8.894182    1.027012   12.904828    ( 0.0000,  0.0000,  0.0000)
  26 Pb     7.121319    2.050575   15.931259    ( 0.0000,  0.0000,  0.0000)
  27 Pb     7.113679    0.043314   18.762844    ( 0.0000,  0.0000,  0.0000)
  28 Pb     5.336509    3.081035   10.000000    ( 0.0000,  0.0000,  0.0000)
  29 Pb     7.115346    4.108047   12.904828    ( 0.0000,  0.0000,  0.0000)
  30 Pb     5.336900    5.117058   15.900376    ( 0.0000,  0.0000,  0.0000)
  31 Pb     5.383365    3.053904   18.762520    ( 0.0000,  0.0000,  0.0000)
  32 Pb     3.557673    6.162070   10.000000    ( 0.0000,  0.0000,  0.0000)
  33 Pb     5.336509    7.189082   12.904828    ( 0.0000,  0.0000,  0.0000)
  34 Pb     3.532058    8.223744   15.898608    ( 0.0000,  0.0000,  0.0000)
  35 Pb     3.636778    6.212127   18.852949    ( 0.0000,  0.0000,  0.0000)
  36 C      1.781429    5.133197   19.737683    ( 0.0000,  0.0000,  0.0000)

Unit cell:
           periodic     x           y           z      points  spacing
  1. axis:    yes   10.673019    0.000000    0.000000    52     0.1778
  2. axis:    yes   -5.336509    9.243105    0.000000    52     0.1778
  3. axis:    no     0.000000    0.000000   28.714483   160     0.1795

  Lengths:  10.673019  10.673019  28.714483
  Angles:   90.000000  90.000000 120.000000

Effective grid spacing dv^(1/3) = 0.1871

     iter     time        total  log10-change:
                         energy  eigst   dens
iter:   1 03:35:59 -12834.685205  -1.96
iter:   2 03:36:39 -12834.678535  -2.90  -2.92
iter:   3 03:37:20 -12834.674980c -3.33  -3.06
iter:   4 03:38:00 -12834.674160c -3.79  -3.19
iter:   5 03:38:41 -12834.673700c -4.31  -3.29
iter:   6 03:39:21 -12834.673425c -4.27  -3.41
iter:   7 03:40:02 -12834.673267c -5.08  -3.59
iter:   8 03:40:42 -12834.673226c -5.30  -3.72
iter:   9 03:41:23 -12834.673297c -5.54  -3.84
iter:  10 03:42:04 -12834.673340c -5.90  -3.97
iter:  11 03:42:44 -12834.673343c -6.10  -4.04c
iter:  12 03:43:25 -12834.673364c -6.24  -4.07c
iter:  13 03:44:06 -12834.673363c -6.40  -4.31c
iter:  14 03:44:46 -12834.673366c -7.01  -4.46c
iter:  15 03:45:27 -12834.673367c -7.12  -4.54c
iter:  16 03:46:07 -12834.673365c -7.15  -4.69c
iter:  17 03:46:48 -12834.673364c -7.47c -4.94c

Converged after 17 iterations.

Dipole moment: (-1.729122, -19.354513, -0.199941) |e|*Ang

Energy contributions relative to reference atoms: (reference = -20422908.309226)

Kinetic:       +1456.731443
Potential:     -1401.250679
External:        +0.000000
XC:            -12885.531672
Entropy (-ST):   -0.658869
Local:           -4.293022
--------------------------
Free energy:   -12835.002799
Extrapolated:  -12834.673364

Showing only first 2 kpts
 Kpt  Band  Eigenvalues  Occupancy
  0   252     -4.16991    1.33296
  0   253     -4.08239    0.90882
  0   254     -4.02457    0.63681
  0   255     -3.94415    0.34576

  1   252     -4.64732    1.99158
  1   253     -4.60228    1.98683
  1   254     -4.51594    1.96904
  1   255     -4.47939    1.95568


Fermi level: -4.10068

No gap

Forces in eV/Ang:
  0 Pb   -0.01697    0.00981    0.12764
  1 Pb    0.01052   -0.00017   -0.13557
  2 Pb    0.02763   -0.01772    0.02019
  3 Pb   -0.05970    0.03530    0.01211
  4 Pb   -0.01736   -0.00053    0.07354
  5 Pb   -0.03982   -0.04521   -0.14655
  6 Pb    0.02468    0.01975    0.01310
  7 Pb    0.03936   -0.01116    0.00744
  8 Pb   -0.00610   -0.03242    0.09885
  9 Pb   -0.02691    0.01556   -0.14017
 10 Pb    0.00012   -0.00016    0.05248
 11 Pb   -0.00077   -0.01935    0.00257
 12 Pb    0.02501    0.02148    0.09883
 13 Pb   -0.01939    0.01770   -0.11424
 14 Pb   -0.03771   -0.00490    0.02754
 15 Pb    0.01616    0.01049    0.00261
 16 Pb    0.02178    0.00698    0.12097
 17 Pb    0.03827   -0.02211   -0.13101
 18 Pb    0.01335   -0.00743    0.11817
 19 Pb   -0.01485    0.09316    0.06070
 20 Pb   -0.01175    0.00675    0.14915
 21 Pb    0.01923    0.05712   -0.14636
 22 Pb   -0.00459   -0.03109    0.01283
 23 Pb    0.08805   -0.05066    0.04623
 24 Pb   -0.00819    0.01534    0.07343
 25 Pb   -0.00470    0.00268   -0.12509
 26 Pb    0.00110   -0.00077   -0.03604
 27 Pb    0.02973   -0.02884    0.00733
 28 Pb    0.00482   -0.00277    0.08973
 29 Pb   -0.02503    0.00790   -0.11447
 30 Pb   -0.01467    0.03525    0.02774
 31 Pb   -0.02817    0.01644    0.00232
 32 Pb    0.00487   -0.02235    0.12100
 33 Pb    0.00538   -0.00901   -0.13559
 34 Pb    0.02909   -0.01510    0.02021
 35 Pb   -0.09427   -0.03722    0.06406
 36 C     0.01544   -0.00340   -0.21612

BFGS:    5 03:47:03   -12834.673364        0.2167
System changes: positions 

Initializing position-dependent things.

Density initialized from wave functions
                                                    
                                                    
                                                    
                                                    
                                                    
                                                    
           Pb       Pb  C    Pb                     
                                                    
             Pb       Pb       Pb                   
                     Pb       Pb                    
                Pb       Pb      Pb                 
               Pb       Pb      Pb                  
                                                    
                PPb      PPb      Pb                
                                                    
                   Pb      Pb       Pb              
                                                    
           Pb       PPb      Pb       Pb            
                                                    
              Pb      Pb       Pb                   
                                                    
                Pb      Pb       Pb                 
                                                    
                                                    
                                                    
                                                    

Positions:
   0 Pb     0.000000    0.000000   10.000000    ( 0.0000,  0.0000,  0.0000)
   1 Pb     1.778836    1.027012   12.904828    ( 0.0000,  0.0000,  0.0000)
   2 Pb    -0.019601    2.072658   15.897103    ( 0.0000,  0.0000,  0.0000)
   3 Pb    -0.025200    0.014885   18.758369    ( 0.0000,  0.0000,  0.0000)
   4 Pb    -1.778836    3.081035   10.000000    ( 0.0000,  0.0000,  0.0000)
   5 Pb    -0.000000    4.108047   12.904828    ( 0.0000,  0.0000,  0.0000)
   6 Pb    -1.769944    5.102188   15.904750    ( 0.0000,  0.0000,  0.0000)
   7 Pb    -1.817731    3.058665   18.763733    ( 0.0000,  0.0000,  0.0000)
   8 Pb    -3.557673    6.162070   10.000000    ( 0.0000,  0.0000,  0.0000)
   9 Pb    -1.778836    7.189082   12.904828    ( 0.0000,  0.0000,  0.0000)
  10 Pb    -3.554063    8.214052   15.981847    ( 0.0000,  0.0000,  0.0000)
  11 Pb    -3.553702    6.142303   18.775125    ( 0.0000,  0.0000,  0.0000)
  12 Pb     3.557673    0.000000   10.000000    ( 0.0000,  0.0000,  0.0000)
  13 Pb     5.336509    1.027012   12.904828    ( 0.0000,  0.0000,  0.0000)
  14 Pb     3.572811    2.063534   15.898869    ( 0.0000,  0.0000,  0.0000)
  15 Pb     3.576624    0.006608   18.775075    ( 0.0000,  0.0000,  0.0000)
  16 Pb     1.778836    3.081035   10.000000    ( 0.0000,  0.0000,  0.0000)
  17 Pb     3.557673    4.108047   12.904828    ( 0.0000,  0.0000,  0.0000)
  18 Pb     1.788489    5.129489   15.849071    ( 0.0000,  0.0000,  0.0000)
  19 Pb     1.773894    2.993551   18.868744    ( 0.0000,  0.0000,  0.0000)
  20 Pb    -0.000000    6.162070   10.000000    ( 0.0000,  0.0000,  0.0000)
  21 Pb     1.778836    7.189082   12.904828    ( 0.0000,  0.0000,  0.0000)
  22 Pb     0.032879    8.224819   15.904782    ( 0.0000,  0.0000,  0.0000)
  23 Pb    -0.075556    6.205781   18.874651    ( 0.0000,  0.0000,  0.0000)
  24 Pb     7.115346    0.000000   10.000000    ( 0.0000,  0.0000,  0.0000)
  25 Pb     8.894182    1.027012   12.904828    ( 0.0000,  0.0000,  0.0000)
  26 Pb     7.121291    2.050595   15.929284    ( 0.0000,  0.0000,  0.0000)
  27 Pb     7.115315    0.044905   18.763741    ( 0.0000,  0.0000,  0.0000)
  28 Pb     5.336509    3.081035   10.000000    ( 0.0000,  0.0000,  0.0000)
  29 Pb     7.115346    4.108047   12.904828    ( 0.0000,  0.0000,  0.0000)
  30 Pb     5.335872    5.117151   15.898788    ( 0.0000,  0.0000,  0.0000)
  31 Pb     5.387324    3.051643   18.763458    ( 0.0000,  0.0000,  0.0000)
  32 Pb     3.557673    6.162070   10.000000    ( 0.0000,  0.0000,  0.0000)
  33 Pb     5.336509    7.189082   12.904828    ( 0.0000,  0.0000,  0.0000)
  34 Pb     3.531722    8.223765   15.897061    ( 0.0000,  0.0000,  0.0000)
  35 Pb     3.631146    6.210044   18.868297    ( 0.0000,  0.0000,  0.0000)
  36 C      1.781854    5.133862   19.714048    ( 0.0000,  0.0000,  0.0000)

Unit cell:
           periodic     x           y           z      points  spacing
  1. axis:    yes   10.673019    0.000000    0.000000    52     0.1778
  2. axis:    yes   -5.336509    9.243105    0.000000    52     0.1778
  3. axis:    no     0.000000    0.000000   28.714483   160     0.1795

  Lengths:  10.673019  10.673019  28.714483
  Angles:   90.000000  90.000000 120.000000

Effective grid spacing dv^(1/3) = 0.1871

     iter     time        total  log10-change:
                         energy  eigst   dens
iter:   1 03:48:12 -12834.698139  -2.54
iter:   2 03:48:52 -12834.686944  -3.44  -2.91
iter:   3 03:49:33 -12834.683366c -3.94  -2.93
iter:   4 03:50:13 -12834.679635c -4.15  -3.14
iter:   5 03:50:54 -12834.678963c -4.62  -3.51
iter:   6 03:51:34 -12834.678614c -4.33  -3.59
iter:   7 03:52:15 -12834.678468c -5.36  -3.82
iter:   8 03:52:55 -12834.678438c -5.87  -3.98
iter:   9 03:53:36 -12834.678463c -5.93  -4.05c
iter:  10 03:54:16 -12834.678445c -6.19  -4.11c
iter:  11 03:54:57 -12834.678442c -6.65  -4.30c
iter:  12 03:55:37 -12834.678438c -6.73  -4.36c
iter:  13 03:56:18 -12834.678440c -7.07  -4.51c
iter:  14 03:56:58 -12834.678447c -7.37  -4.59c
iter:  15 03:57:39 -12834.678453c -7.16  -4.72c
iter:  16 03:58:20 -12834.678450c -7.34  -4.74c
iter:  17 03:59:00 -12834.678451c -7.76c -4.84c

Converged after 17 iterations.

Dipole moment: (-0.973176, -19.787859, -0.185321) |e|*Ang

Energy contributions relative to reference atoms: (reference = -20422908.309226)

Kinetic:       +1457.403181
Potential:     -1401.778296
External:        +0.000000
XC:            -12885.677289
Entropy (-ST):   -0.661369
Local:           -4.295363
--------------------------
Free energy:   -12835.009135
Extrapolated:  -12834.678451

Showing only first 2 kpts
 Kpt  Band  Eigenvalues  Occupancy
  0   252     -4.16131    1.33126
  0   253     -4.07353    0.90561
  0   254     -4.01424    0.62767
  0   255     -3.93923    0.35529

  1   252     -4.63919    1.99159
  1   253     -4.59159    1.98650
  1   254     -4.51051    1.96988
  1   255     -4.47047    1.95538


Fermi level: -4.09247

No gap

Forces in eV/Ang:
  0 Pb   -0.01733    0.01004    0.12588
  1 Pb    0.01079   -0.00280   -0.13331
  2 Pb    0.02973   -0.01738    0.02841
  3 Pb   -0.04618    0.02657    0.00608
  4 Pb   -0.01689    0.00018    0.07272
  5 Pb   -0.03912   -0.04501   -0.14902
  6 Pb    0.02202    0.02595    0.02286
  7 Pb    0.04188   -0.00761    0.00286
  8 Pb   -0.00643   -0.03281    0.09687
  9 Pb   -0.02897    0.01675   -0.13730
 10 Pb    0.00177   -0.00098    0.04522
 11 Pb    0.00101   -0.01328   -0.00205
 12 Pb    0.02516    0.02198    0.09688
 13 Pb   -0.02067    0.01682   -0.10968
 14 Pb   -0.03892   -0.00560    0.03628
 15 Pb    0.01225    0.00535   -0.00195
 16 Pb    0.02265    0.00658    0.12139
 17 Pb    0.03814   -0.02205   -0.13391
 18 Pb    0.01024   -0.00584    0.13628
 19 Pb   -0.00378   -0.01148   -0.00066
 20 Pb   -0.01278    0.00733    0.14925
 21 Pb    0.01939    0.05642   -0.14894
 22 Pb   -0.01122   -0.03209    0.02284
 23 Pb   -0.01160    0.00721   -0.01275
 24 Pb   -0.00861    0.01454    0.07272
 25 Pb   -0.00335    0.00196   -0.12088
 26 Pb    0.00121   -0.00079   -0.03595
 27 Pb    0.02759   -0.03293    0.00303
 28 Pb    0.00433   -0.00250    0.08834
 29 Pb   -0.02487    0.00946   -0.10973
 30 Pb   -0.01440    0.03645    0.03612
 31 Pb   -0.04163    0.02400   -0.00338
 32 Pb    0.00566   -0.02295    0.12139
 33 Pb    0.00783   -0.00792   -0.13331
 34 Pb    0.02984   -0.01697    0.02831
 35 Pb    0.01005    0.01145   -0.00081
 36 C     0.00894   -0.00844   -0.09172

BFGS:    6 03:59:16   -12834.678451        0.1368
System changes: positions 

Initializing position-dependent things.

Density initialized from wave functions
                                                    
                                                    
                                                    
                                                    
                                                    
                                                    
           Pb       Pb  C    Pb                     
                                                    
             Pb       Pb       Pb                   
                     Pb       Pb                    
                Pb       Pb      Pb                 
               Pb       Pb      Pb                  
                                                    
                PPb      PPb      Pb                
                                                    
                   Pb      Pb       Pb              
                                                    
           Pb       PPb      Pb       Pb            
                                                    
              Pb      Pb       Pb                   
                                                    
                Pb      Pb       Pb                 
                                                    
                                                    
                                                    
                                                    

Positions:
   0 Pb     0.000000    0.000000   10.000000    ( 0.0000,  0.0000,  0.0000)
   1 Pb     1.778836    1.027012   12.904828    ( 0.0000,  0.0000,  0.0000)
   2 Pb    -0.018580    2.072011   15.898024    ( 0.0000,  0.0000,  0.0000)
   3 Pb    -0.026472    0.015625   18.758467    ( 0.0000,  0.0000,  0.0000)
   4 Pb    -1.778836    3.081035   10.000000    ( 0.0000,  0.0000,  0.0000)
   5 Pb    -0.000000    4.108047   12.904828    ( 0.0000,  0.0000,  0.0000)
   6 Pb    -1.769351    5.103139   15.905445    ( 0.0000,  0.0000,  0.0000)
   7 Pb    -1.816077    3.058750   18.763873    ( 0.0000,  0.0000,  0.0000)
   8 Pb    -3.557673    6.162070   10.000000    ( 0.0000,  0.0000,  0.0000)
   9 Pb    -1.778836    7.189082   12.904828    ( 0.0000,  0.0000,  0.0000)
  10 Pb    -3.554090    8.214068   15.982478    ( 0.0000,  0.0000,  0.0000)
  11 Pb    -3.553766    6.141972   18.775086    ( 0.0000,  0.0000,  0.0000)
  12 Pb     3.557673    0.000000   10.000000    ( 0.0000,  0.0000,  0.0000)
  13 Pb     5.336509    1.027012   12.904828    ( 0.0000,  0.0000,  0.0000)
  14 Pb     3.571365    2.063241   15.900000    ( 0.0000,  0.0000,  0.0000)
  15 Pb     3.576880    0.006824   18.775036    ( 0.0000,  0.0000,  0.0000)
  16 Pb     1.778836    3.081035   10.000000    ( 0.0000,  0.0000,  0.0000)
  17 Pb     3.557673    4.108047   12.904828    ( 0.0000,  0.0000,  0.0000)
  18 Pb     1.788751    5.129346   15.853810    ( 0.0000,  0.0000,  0.0000)
  19 Pb     1.773832    2.997448   18.869122    ( 0.0000,  0.0000,  0.0000)
  20 Pb    -0.000000    6.162070   10.000000    ( 0.0000,  0.0000,  0.0000)
  21 Pb     1.778836    7.189082   12.904828    ( 0.0000,  0.0000,  0.0000)
  22 Pb     0.032353    8.223834   15.905472    ( 0.0000,  0.0000,  0.0000)
  23 Pb    -0.071640    6.203524   18.874777    ( 0.0000,  0.0000,  0.0000)
  24 Pb     7.115346    0.000000   10.000000    ( 0.0000,  0.0000,  0.0000)
  25 Pb     8.894182    1.027012   12.904828    ( 0.0000,  0.0000,  0.0000)
  26 Pb     7.121325    2.050575   15.928283    ( 0.0000,  0.0000,  0.0000)
  27 Pb     7.116081    0.043413   18.763881    ( 0.0000,  0.0000,  0.0000)
  28 Pb     5.336509    3.081035   10.000000    ( 0.0000,  0.0000,  0.0000)
  29 Pb     7.115346    4.108047   12.904828    ( 0.0000,  0.0000,  0.0000)
  30 Pb     5.335400    5.118551   15.899929    ( 0.0000,  0.0000,  0.0000)
  31 Pb     5.386137    3.052336   18.763418    ( 0.0000,  0.0000,  0.0000)
  32 Pb     3.557673    6.162070   10.000000    ( 0.0000,  0.0000,  0.0000)
  33 Pb     5.336509    7.189082   12.904828    ( 0.0000,  0.0000,  0.0000)
  34 Pb     3.532791    8.223203   15.897989    ( 0.0000,  0.0000,  0.0000)
  35 Pb     3.627582    6.208070   18.868731    ( 0.0000,  0.0000,  0.0000)
  36 C      1.782076    5.133977   19.708930    ( 0.0000,  0.0000,  0.0000)

Unit cell:
           periodic     x           y           z      points  spacing
  1. axis:    yes   10.673019    0.000000    0.000000    52     0.1778
  2. axis:    yes   -5.336509    9.243105    0.000000    52     0.1778
  3. axis:    no     0.000000    0.000000   28.714483   160     0.1795

  Lengths:  10.673019  10.673019  28.714483
  Angles:   90.000000  90.000000 120.000000

Effective grid spacing dv^(1/3) = 0.1871

     iter     time        total  log10-change:
                         energy  eigst   dens
iter:   1 04:00:24 -12834.683405  -3.60
iter:   2 04:01:04 -12834.681570  -4.40  -3.18
iter:   3 04:01:45 -12834.680096c -5.00  -3.25
iter:   4 04:02:25 -12834.679707c -5.07  -3.62
iter:   5 04:03:06 -12834.679604c -5.49  -3.97
iter:   6 04:03:47 -12834.679560c -5.33  -4.10c
iter:   7 04:04:27 -12834.679539c -6.26  -4.29c
iter:   8 04:05:08 -12834.679530c -6.79  -4.41c
iter:   9 04:05:48 -12834.679535c -6.88  -4.50c
iter:  10 04:06:29 -12834.679528c -7.08  -4.55c
iter:  11 04:07:10 -12834.679527c -7.54c -4.74c

Converged after 11 iterations.

Dipole moment: (-0.999371, -19.779637, -0.182483) |e|*Ang

Energy contributions relative to reference atoms: (reference = -20422908.309226)

Kinetic:       +1457.752026
Potential:     -1402.059852
External:        +0.000000
XC:            -12885.744085
Entropy (-ST):   -0.661936
Local:           -4.296648
--------------------------
Free energy:   -12835.010495
Extrapolated:  -12834.679527

Showing only first 2 kpts
 Kpt  Band  Eigenvalues  Occupancy
  0   252     -4.15929    1.32636
  0   253     -4.07292    0.90719
  0   254     -4.01305    0.62653
  0   255     -3.93851    0.35592

  1   252     -4.63731    1.99151
  1   253     -4.59038    1.98646
  1   254     -4.50918    1.96976
  1   255     -4.46823    1.95480


Fermi level: -4.09153

No gap

Forces in eV/Ang:
  0 Pb   -0.01732    0.01003    0.12535
  1 Pb    0.01116   -0.00441   -0.13445
  2 Pb    0.02817   -0.01057    0.02643
  3 Pb   -0.03869    0.02158    0.00471
  4 Pb   -0.01679    0.00048    0.07269
  5 Pb   -0.03847   -0.04480   -0.14557
  6 Pb    0.02352    0.02212    0.02198
  7 Pb    0.03414   -0.00511   -0.00164
  8 Pb   -0.00640   -0.03282    0.09616
  9 Pb   -0.03050    0.01761   -0.13772
 10 Pb    0.00285   -0.00169    0.04585
 11 Pb    0.00167   -0.01048   -0.00382
 12 Pb    0.02521    0.02196    0.09617
 13 Pb   -0.02172    0.01674   -0.11061
 14 Pb   -0.03656   -0.00206    0.03490
 15 Pb    0.01066    0.00303   -0.00366
 16 Pb    0.02293    0.00632    0.11955
 17 Pb    0.03761   -0.02175   -0.13045
 18 Pb    0.00954   -0.00575    0.10298
 19 Pb   -0.00222   -0.05426   -0.00264
 20 Pb   -0.01328    0.00765    0.14749
 21 Pb    0.01952    0.05574   -0.14558
 22 Pb   -0.00723   -0.03146    0.02213
 23 Pb   -0.05470    0.03145   -0.00944
 24 Pb   -0.00883    0.01427    0.07271
 25 Pb   -0.00247    0.00149   -0.12294
 26 Pb   -0.00053    0.00019   -0.03143
 27 Pb    0.02135   -0.02659   -0.00179
 28 Pb    0.00413   -0.00240    0.08791
 29 Pb   -0.02530    0.01042   -0.11056
 30 Pb   -0.01619    0.03271    0.03477
 31 Pb   -0.03514    0.02008   -0.00756
 32 Pb    0.00601   -0.02305    0.11954
 33 Pb    0.00944   -0.00744   -0.13445
 34 Pb    0.02336   -0.01893    0.02653
 35 Pb    0.05063    0.03238   -0.00395
 36 C     0.00598   -0.00947   -0.05948

BFGS:    7 04:07:25   -12834.679527        0.1036
System changes: positions 

Initializing position-dependent things.

Density initialized from wave functions
                                                    
                                                    
                                                    
                                                    
                                                    
                                                    
           Pb       Pb  C    Pb                     
                                                    
             Pb      PPb       Pb                   
                              Pb                    
                Pb       Pb      Pb                 
               Pb       Pb      Pb                  
                                                    
                PPb      PPb      Pb                
                                                    
                   Pb      Pb       Pb              
                                                    
           Pb       PPb      Pb       Pb            
                                                    
              Pb      Pb       Pb                   
                                                    
                Pb      Pb       Pb                 
                                                    
                                                    
                                                    
                                                    

Positions:
   0 Pb     0.000000    0.000000   10.000000    ( 0.0000,  0.0000,  0.0000)
   1 Pb     1.778836    1.027012   12.904828    ( 0.0000,  0.0000,  0.0000)
   2 Pb    -0.017284    2.071397   15.899041    ( 0.0000,  0.0000,  0.0000)
   3 Pb    -0.028925    0.017037   18.759040    ( 0.0000,  0.0000,  0.0000)
   4 Pb    -1.778836    3.081035   10.000000    ( 0.0000,  0.0000,  0.0000)
   5 Pb    -0.000000    4.108047   12.904828    ( 0.0000,  0.0000,  0.0000)
   6 Pb    -1.768102    5.104029   15.906106    ( 0.0000,  0.0000,  0.0000)
   7 Pb    -1.814318    3.058372   18.764028    ( 0.0000,  0.0000,  0.0000)
   8 Pb    -3.557673    6.162070   10.000000    ( 0.0000,  0.0000,  0.0000)
   9 Pb    -1.778836    7.189082   12.904828    ( 0.0000,  0.0000,  0.0000)
  10 Pb    -3.554053    8.214048   15.984952    ( 0.0000,  0.0000,  0.0000)
  11 Pb    -3.553738    6.141155   18.775205    ( 0.0000,  0.0000,  0.0000)
  12 Pb     3.557673    0.000000   10.000000    ( 0.0000,  0.0000,  0.0000)
  13 Pb     5.336509    1.027012   12.904828    ( 0.0000,  0.0000,  0.0000)
  14 Pb     3.569503    2.063127   15.901351    ( 0.0000,  0.0000,  0.0000)
  15 Pb     3.577619    0.007188   18.775157    ( 0.0000,  0.0000,  0.0000)
  16 Pb     1.778836    3.081035   10.000000    ( 0.0000,  0.0000,  0.0000)
  17 Pb     3.557673    4.108047   12.904828    ( 0.0000,  0.0000,  0.0000)
  18 Pb     1.789347    5.129005   15.859205    ( 0.0000,  0.0000,  0.0000)
  19 Pb     1.773609    2.998843   18.871221    ( 0.0000,  0.0000,  0.0000)
  20 Pb    -0.000000    6.162070   10.000000    ( 0.0000,  0.0000,  0.0000)
  21 Pb     1.778836    7.189082   12.904828    ( 0.0000,  0.0000,  0.0000)
  22 Pb     0.032212    8.222310   15.906132    ( 0.0000,  0.0000,  0.0000)
  23 Pb    -0.070045    6.202604   18.876645    ( 0.0000,  0.0000,  0.0000)
  24 Pb     7.115346    0.000000   10.000000    ( 0.0000,  0.0000,  0.0000)
  25 Pb     8.894182    1.027012   12.904828    ( 0.0000,  0.0000,  0.0000)
  26 Pb     7.121328    2.050570   15.926625    ( 0.0000,  0.0000,  0.0000)
  27 Pb     7.117298    0.042075   18.764031    ( 0.0000,  0.0000,  0.0000)
  28 Pb     5.336509    3.081035   10.000000    ( 0.0000,  0.0000,  0.0000)
  29 Pb     7.115346    4.108047   12.904828    ( 0.0000,  0.0000,  0.0000)
  30 Pb     5.334571    5.120221   15.901288    ( 0.0000,  0.0000,  0.0000)
  31 Pb     5.385054    3.052963   18.763319    ( 0.0000,  0.0000,  0.0000)
  32 Pb     3.557673    6.162070   10.000000    ( 0.0000,  0.0000,  0.0000)
  33 Pb     5.336509    7.189082   12.904828    ( 0.0000,  0.0000,  0.0000)
  34 Pb     3.533971    8.222390   15.899015    ( 0.0000,  0.0000,  0.0000)
  35 Pb     3.626204    6.207549   18.870854    ( 0.0000,  0.0000,  0.0000)
  36 C      1.782427    5.133871   19.701387    ( 0.0000,  0.0000,  0.0000)

Unit cell:
           periodic     x           y           z      points  spacing
  1. axis:    yes   10.673019    0.000000    0.000000    52     0.1778
  2. axis:    yes   -5.336509    9.243105    0.000000    52     0.1778
  3. axis:    no     0.000000    0.000000   28.714483   160     0.1795

  Lengths:  10.673019  10.673019  28.714483
  Angles:   90.000000  90.000000 120.000000

Effective grid spacing dv^(1/3) = 0.1871

     iter     time        total  log10-change:
                         energy  eigst   dens
iter:   1 04:08:33 -12834.686158  -3.56
iter:   2 04:09:13 -12834.683751  -4.33  -3.09
iter:   3 04:09:54 -12834.681315c -4.98  -3.15
iter:   4 04:10:34 -12834.680905c -5.08  -3.61
iter:   5 04:11:15 -12834.680790c -5.42  -3.94
iter:   6 04:11:55 -12834.680743c -5.28  -4.07c
iter:   7 04:12:36 -12834.680722c -6.22  -4.29c
iter:   8 04:13:16 -12834.680713c -6.76  -4.39c
iter:   9 04:13:57 -12834.680718c -6.90  -4.47c
iter:  10 04:14:37 -12834.680711c -7.02  -4.52c
iter:  11 04:15:18 -12834.680709c -7.53c -4.73c

Converged after 11 iterations.

Dipole moment: (-0.884222, -19.851796, -0.178767) |e|*Ang

Energy contributions relative to reference atoms: (reference = -20422908.309226)

Kinetic:       +1457.941108
Potential:     -1402.205285
External:        +0.000000
XC:            -12885.791680
Entropy (-ST):   -0.662738
Local:           -4.293482
--------------------------
Free energy:   -12835.012078
Extrapolated:  -12834.680709

Showing only first 2 kpts
 Kpt  Band  Eigenvalues  Occupancy
  0   252     -4.15623    1.32209
  0   253     -4.07113    0.90875
  0   254     -4.01090    0.62634
  0   255     -3.93706    0.35784

  1   252     -4.63490    1.99148
  1   253     -4.58838    1.98647
  1   254     -4.50692    1.96971
  1   255     -4.46511    1.95435


Fermi level: -4.08943

No gap

Forces in eV/Ang:
  0 Pb   -0.01749    0.01013    0.12576
  1 Pb    0.01130   -0.00503   -0.13427
  2 Pb    0.02383   -0.00654    0.02451
  3 Pb   -0.03009    0.01673    0.00481
  4 Pb   -0.01636    0.00098    0.07469
  5 Pb   -0.03797   -0.04472   -0.14498
  6 Pb    0.02194    0.01743    0.02072
  7 Pb    0.02734   -0.00184   -0.00427
  8 Pb   -0.00657   -0.03309    0.09645
  9 Pb   -0.03097    0.01788   -0.13719
 10 Pb    0.00315   -0.00186    0.04217
 11 Pb    0.00176   -0.00898   -0.00324
 12 Pb    0.02535    0.02224    0.09647
 13 Pb   -0.02218    0.01654   -0.10999
 14 Pb   -0.03188   -0.00072    0.03254
 15 Pb    0.00927    0.00236   -0.00307
 16 Pb    0.02326    0.00657    0.12037
 17 Pb    0.03722   -0.02153   -0.12986
 18 Pb    0.00751   -0.00457    0.09842
 19 Pb   -0.00012   -0.08627   -0.01202
 20 Pb   -0.01318    0.00759    0.14856
 21 Pb    0.01971    0.05526   -0.14498
 22 Pb   -0.00399   -0.02774    0.02082
 23 Pb   -0.07934    0.04572   -0.01473
 24 Pb   -0.00906    0.01365    0.07473
 25 Pb   -0.00192    0.00117   -0.12265
 26 Pb   -0.00085    0.00038   -0.02642
 27 Pb    0.01508   -0.02233   -0.00437
 28 Pb    0.00365   -0.00212    0.08940
 29 Pb   -0.02535    0.01092   -0.10996
 30 Pb   -0.01502    0.02799    0.03235
 31 Pb   -0.02930    0.01669   -0.00971
 32 Pb    0.00595   -0.02347    0.12037
 33 Pb    0.01004   -0.00725   -0.13426
 34 Pb    0.01772   -0.01718    0.02448
 35 Pb    0.08011    0.04700   -0.01360
 36 C     0.01150   -0.01529   -0.04028

BFGS:    8 04:15:33   -12834.680709        0.0988
System changes: positions 

Initializing position-dependent things.

Density initialized from wave functions
                                                    
                                                    
                                                    
                                                    
                                                    
                                                    
           Pb       Pb  C    Pb                     
                                                    
             Pb      PPb      PPb                   
                                                    
                Pb       Pb      Pb                 
               Pb       Pb      Pb                  
                                                    
                PPb      PPb      Pb                
                                                    
                   Pb      Pb       Pb              
                                                    
           Pb       PPb      Pb       Pb            
                                                    
              Pb      Pb       Pb                   
                                                    
                Pb      Pb       Pb                 
                                                    
                                                    
                                                    
                                                    

Positions:
   0 Pb     0.000000    0.000000   10.000000    ( 0.0000,  0.0000,  0.0000)
   1 Pb     1.778836    1.027012   12.904828    ( 0.0000,  0.0000,  0.0000)
   2 Pb    -0.012502    2.069264   15.903086    ( 0.0000,  0.0000,  0.0000)
   3 Pb    -0.037436    0.021916   18.760925    ( 0.0000,  0.0000,  0.0000)
   4 Pb    -1.778836    3.081035   10.000000    ( 0.0000,  0.0000,  0.0000)
   5 Pb    -0.000000    4.108047   12.904828    ( 0.0000,  0.0000,  0.0000)
   6 Pb    -1.763550    5.107391   15.908962    ( 0.0000,  0.0000,  0.0000)
[...]
  17 Pb     3.557673    4.108047   12.904828    ( 0.0000,  0.0000,  0.0000)
  18 Pb     1.794683    5.127271   16.150169    ( 0.0000,  0.0000,  0.0000)
  19 Pb     1.800144    2.904242   19.168672    ( 0.0000,  0.0000,  0.0000)
  20 Pb    -0.000000    6.162070   10.000000    ( 0.0000,  0.0000,  0.0000)
  21 Pb     1.778836    7.189082   12.904828    ( 0.0000,  0.0000,  0.0000)
  22 Pb     0.026801    8.186963   16.001145    ( 0.0000,  0.0000,  0.0000)
  23 Pb    -0.102286    6.218647   19.197293    ( 0.0000,  0.0000,  0.0000)
  24 Pb     7.115346    0.000000   10.000000    ( 0.0000,  0.0000,  0.0000)
  25 Pb     8.894182    1.027012   12.904828    ( 0.0000,  0.0000,  0.0000)
  26 Pb     7.134835    2.043206   15.963126    ( 0.0000,  0.0000,  0.0000)
  27 Pb     7.110448    0.000553   18.813976    ( 0.0000,  0.0000,  0.0000)
  28 Pb     5.336509    3.081035   10.000000    ( 0.0000,  0.0000,  0.0000)
  29 Pb     7.115346    4.108047   12.904828    ( 0.0000,  0.0000,  0.0000)
  30 Pb     5.350718    5.129803   16.003926    ( 0.0000,  0.0000,  0.0000)
  31 Pb     5.378945    3.057001   18.797516    ( 0.0000,  0.0000,  0.0000)
  32 Pb     3.557673    6.162070   10.000000    ( 0.0000,  0.0000,  0.0000)
  33 Pb     5.336509    7.189082   12.904828    ( 0.0000,  0.0000,  0.0000)
  34 Pb     3.562318    8.190794   15.995863    ( 0.0000,  0.0000,  0.0000)
  35 Pb     3.718531    6.230820   19.171724    ( 0.0000,  0.0000,  0.0000)
  36 C      1.813916    5.121459   18.500435    ( 0.0000,  0.0000,  0.0000)

Unit cell:
           periodic     x           y           z      points  spacing
  1. axis:    yes   10.673019    0.000000    0.000000    52     0.1778
  2. axis:    yes   -5.336509    9.243105    0.000000    52     0.1778
  3. axis:    no     0.000000    0.000000   28.714483   160     0.1795

  Lengths:  10.673019  10.673019  28.714483
  Angles:   90.000000  90.000000 120.000000

Effective grid spacing dv^(1/3) = 0.1871

     iter     time        total  log10-change:
                         energy  eigst   dens
iter:   1 10:03:15 -12835.256022  -3.72
iter:   2 10:03:56 -12835.256675  -4.65  -3.45
iter:   3 10:04:36 -12835.255892c -5.31  -3.55
iter:   4 10:05:16 -12835.255983c -5.26  -3.86
iter:   5 10:05:56 -12835.255937c -6.05  -4.15c
iter:   6 10:06:36 -12835.255950c -5.82  -4.21c
iter:   7 10:07:16 -12835.255953c -6.33  -4.45c
iter:   8 10:07:56 -12835.255932c -6.83  -4.54c
iter:   9 10:08:36 -12835.255939c -7.07  -4.69c
iter:  10 10:09:17 -12835.255951c -7.65c -4.79c

Converged after 10 iterations.

Dipole moment: (-7.209776, -16.253164, 0.041778) |e|*Ang

Energy contributions relative to reference atoms: (reference = -20422908.309226)

Kinetic:       +1455.183861
Potential:     -1399.883954
External:        +0.000000
XC:            -12885.906177
Entropy (-ST):   -0.670790
Local:           -4.314287
--------------------------
Free energy:   -12835.591346
Extrapolated:  -12835.255951

Showing only first 2 kpts
 Kpt  Band  Eigenvalues  Occupancy
  0   252     -4.02148    1.45995
  0   253     -3.93188    1.04923
  0   254     -3.90372    0.90874
  0   255     -3.77132    0.36276

  1   252     -4.45662    1.99051
  1   253     -4.44796    1.98966
  1   254     -4.35655    1.97440
  1   255     -4.27128    1.94095


Fermi level: -3.92203

No gap

Forces in eV/Ang:
  0 Pb   -0.00691    0.00427    0.14381
  1 Pb    0.01946    0.00864   -0.10719
  2 Pb   -0.00198   -0.01720   -0.00214
  3 Pb   -0.03474    0.01920    0.00934
  4 Pb    0.00206    0.02257    0.17329
  5 Pb   -0.01868   -0.04018   -0.18951
  6 Pb   -0.00958   -0.01992   -0.03939
  7 Pb    0.01845    0.00191    0.00417
  8 Pb   -0.01075   -0.02204    0.11998
  9 Pb   -0.01988    0.01150   -0.11490
 10 Pb   -0.01979    0.01099    0.00462
 11 Pb   -0.00426    0.00813    0.01667
 12 Pb    0.01389    0.02059    0.12003
 13 Pb   -0.04028    0.01120   -0.08327
 14 Pb   -0.01188   -0.00226   -0.04064
 15 Pb   -0.00909   -0.00198    0.01833
 16 Pb    0.02606    0.00122    0.13594
 17 Pb    0.04333   -0.02500   -0.17190
 18 Pb    0.00723   -0.00287    0.00165
 19 Pb   -0.00477    0.04395   -0.03499
 20 Pb   -0.01009    0.00590    0.17436
 21 Pb    0.02523    0.03612   -0.18959
 22 Pb    0.01291    0.01874   -0.04020
 23 Pb    0.00669   -0.00312   -0.01494
 24 Pb   -0.01843   -0.01265    0.17426
 25 Pb    0.02319   -0.01409   -0.11236
 26 Pb    0.00384   -0.00221   -0.02102
 27 Pb    0.00753   -0.01467    0.00272
 28 Pb   -0.02653    0.01540    0.17610
 29 Pb   -0.03079    0.02897   -0.08325
 30 Pb   -0.00203    0.01101   -0.04173
 31 Pb   -0.00714    0.00346    0.02406
 32 Pb    0.01182   -0.02331    0.13611
 33 Pb    0.00244   -0.02110   -0.10665
 34 Pb    0.01403    0.01263   -0.00432
 35 Pb    0.00609    0.00815   -0.01711
 36 C    -0.04081   -0.02367   -0.05019

BFGS:   38 10:09:32   -12835.255951        0.0689
System changes: positions 

Initializing position-dependent things.

Density initialized from wave functions
                                                    
                                                    
                                                    
                                                    
                                                    
                    Pb       Pb                     
           Pb                                       
                      PbC                           
             PPb     Pb       PPb                   
                        Pb                          
               PPb       Pb     PPb                 
                                                    
                PPb      PPb      PPb               
                                                    
                   Pb      Pb       Pb              
                                                    
           Pb       PPb      Pb       Pb            
                                                    
              Pb      Pb       Pb                   
                                                    
                Pb      Pb       Pb                 
                                                    
                                                    
                                                    
                                                    

Positions:
   0 Pb     0.000000    0.000000   10.000000    ( 0.0000,  0.0000,  0.0000)
   1 Pb     1.778836    1.027012   12.904828    ( 0.0000,  0.0000,  0.0000)
   2 Pb     0.027578    2.061779   15.997302    ( 0.0000,  0.0000,  0.0000)
   3 Pb    -0.017184    0.008451   18.739679    ( 0.0000,  0.0000,  0.0000)
   4 Pb    -1.778836    3.081035   10.000000    ( 0.0000,  0.0000,  0.0000)
   5 Pb    -0.000000    4.108047   12.904828    ( 0.0000,  0.0000,  0.0000)
   6 Pb    -1.740781    5.128296   16.000432    ( 0.0000,  0.0000,  0.0000)
   7 Pb    -1.778216    3.081861   18.814637    ( 0.0000,  0.0000,  0.0000)
   8 Pb    -3.557673    6.162070   10.000000    ( 0.0000,  0.0000,  0.0000)
   9 Pb    -1.778836    7.189082   12.904828    ( 0.0000,  0.0000,  0.0000)
  10 Pb    -3.539488    8.206561   15.932153    ( 0.0000,  0.0000,  0.0000)
  11 Pb    -3.537715    6.148988   18.757418    ( 0.0000,  0.0000,  0.0000)
  12 Pb     3.557673    0.000000   10.000000    ( 0.0000,  0.0000,  0.0000)
  13 Pb     5.336509    1.027012   12.904828    ( 0.0000,  0.0000,  0.0000)
  14 Pb     3.567813    2.044821   16.001919    ( 0.0000,  0.0000,  0.0000)
  15 Pb     3.580382   -0.011006   18.758150    ( 0.0000,  0.0000,  0.0000)
  16 Pb     1.778836    3.081035   10.000000    ( 0.0000,  0.0000,  0.0000)
  17 Pb     3.557673    4.108047   12.904828    ( 0.0000,  0.0000,  0.0000)
  18 Pb     1.795431    5.126844   16.151839    ( 0.0000,  0.0000,  0.0000)
  19 Pb     1.797530    2.907708   19.171578    ( 0.0000,  0.0000,  0.0000)
  20 Pb    -0.000000    6.162070   10.000000    ( 0.0000,  0.0000,  0.0000)
  21 Pb     1.778836    7.189082   12.904828    ( 0.0000,  0.0000,  0.0000)
  22 Pb     0.024847    8.186838   16.000277    ( 0.0000,  0.0000,  0.0000)
  23 Pb    -0.098977    6.216686   19.203046    ( 0.0000,  0.0000,  0.0000)
  24 Pb     7.115346    0.000000   10.000000    ( 0.0000,  0.0000,  0.0000)
  25 Pb     8.894182    1.027012   12.904828    ( 0.0000,  0.0000,  0.0000)
  26 Pb     7.135665    2.042708   15.961909    ( 0.0000,  0.0000,  0.0000)
  27 Pb     7.113977   -0.001282   18.814719    ( 0.0000,  0.0000,  0.0000)
  28 Pb     5.336509    3.081035   10.000000    ( 0.0000,  0.0000,  0.0000)
  29 Pb     7.115346    4.108047   12.904828    ( 0.0000,  0.0000,  0.0000)
  30 Pb     5.350042    5.131202   16.001590    ( 0.0000,  0.0000,  0.0000)
  31 Pb     5.377232    3.057944   18.800183    ( 0.0000,  0.0000,  0.0000)
  32 Pb     3.557673    6.162070   10.000000    ( 0.0000,  0.0000,  0.0000)
  33 Pb     5.336509    7.189082   12.904828    ( 0.0000,  0.0000,  0.0000)
  34 Pb     3.565002    8.188807   15.997190    ( 0.0000,  0.0000,  0.0000)
  35 Pb     3.716828    6.232818   19.175647    ( 0.0000,  0.0000,  0.0000)
  36 C      1.813778    5.118946   18.493402    ( 0.0000,  0.0000,  0.0000)

Unit cell:
           periodic     x           y           z      points  spacing
  1. axis:    yes   10.673019    0.000000    0.000000    52     0.1778
  2. axis:    yes   -5.336509    9.243105    0.000000    52     0.1778
  3. axis:    no     0.000000    0.000000   28.714483   160     0.1795

  Lengths:  10.673019  10.673019  28.714483
  Angles:   90.000000  90.000000 120.000000

Effective grid spacing dv^(1/3) = 0.1871

     iter     time        total  log10-change:
                         energy  eigst   dens
iter:   1 10:10:40 -12835.259355  -3.30
iter:   2 10:11:20 -12835.257011  -4.15  -3.22
iter:   3 10:12:00 -12835.256790c -4.83  -3.36
iter:   4 10:12:40 -12835.256533c -4.84  -3.68
iter:   5 10:13:21 -12835.256532c -5.34  -3.88
iter:   6 10:14:01 -12835.256510c -5.24  -4.02c
iter:   7 10:14:41 -12835.256444c -5.95  -4.18c
iter:   8 10:15:21 -12835.256432c -6.27  -4.34c
iter:   9 10:16:01 -12835.256447c -6.63  -4.46c
iter:  10 10:16:41 -12835.256445c -7.29  -4.63c
iter:  11 10:17:21 -12835.256430c -7.08  -4.66c
iter:  12 10:18:01 -12835.256449c -7.60c -4.83c

Converged after 12 iterations.

Dipole moment: (-7.417367, -16.118246, 0.041904) |e|*Ang

Energy contributions relative to reference atoms: (reference = -20422908.309226)

Kinetic:       +1454.775320
Potential:     -1399.534601
External:        +0.000000
XC:            -12885.856242
Entropy (-ST):   -0.671027
Local:           -4.305413
--------------------------
Free energy:   -12835.591963
Extrapolated:  -12835.256449

Showing only first 2 kpts
 Kpt  Band  Eigenvalues  Occupancy
  0   252     -4.02067    1.45815
  0   253     -3.93107    1.04693
  0   254     -3.90468    0.91520
  0   255     -3.77145    0.36418

  1   252     -4.45684    1.99056
  1   253     -4.44646    1.98954
  1   254     -4.35752    1.97473
  1   255     -4.26988    1.94034


Fermi level: -3.92168

No gap

Forces in eV/Ang:
  0 Pb   -0.00675    0.00433    0.14394
  1 Pb    0.01989    0.00851   -0.10952
  2 Pb   -0.00989   -0.00984   -0.00473
  3 Pb   -0.03314    0.01701    0.01585
  4 Pb    0.00379    0.02185    0.17402
  5 Pb   -0.01996   -0.03973   -0.19040
  6 Pb   -0.00678   -0.02215   -0.03452
  7 Pb    0.00728    0.00915    0.00453
  8 Pb   -0.01164   -0.02080    0.12006
  9 Pb   -0.01951    0.01131   -0.11353
 10 Pb   -0.01336    0.00651    0.00323
 11 Pb   -0.00356    0.00227    0.01195
 12 Pb    0.01211    0.02084    0.12005
 13 Pb   -0.03947    0.01134   -0.08042
 14 Pb   -0.00506   -0.00100   -0.03071
 15 Pb   -0.00237    0.00066    0.01212
 16 Pb    0.02528    0.00041    0.13552
 17 Pb    0.04424   -0.02567   -0.17296
 18 Pb    0.00402   -0.00291   -0.03423
 19 Pb    0.00360    0.02148   -0.03589
 20 Pb   -0.00950    0.00529    0.17538
 21 Pb    0.02420    0.03735   -0.19018
 22 Pb    0.01654    0.01858   -0.03489
 23 Pb    0.00200   -0.00151   -0.03499
 24 Pb   -0.01699   -0.01366    0.17439
 25 Pb    0.02253   -0.01342   -0.11199
 26 Pb    0.00131   -0.00226   -0.02008
 27 Pb   -0.00412   -0.00763    0.00302
 28 Pb   -0.02783    0.01609    0.17624
 29 Pb   -0.03022    0.02832   -0.08080
 30 Pb   -0.00004    0.00552   -0.03093
 31 Pb   -0.00230    0.00118    0.01792
 32 Pb    0.01220   -0.02242    0.13551
 33 Pb    0.00276   -0.02133   -0.10847
 34 Pb    0.00411    0.01585   -0.00570
 35 Pb   -0.00170   -0.00718   -0.03077
 36 C    -0.02605    0.00170   -0.00779

BFGS:   39 10:18:17   -12835.256449        0.0429
Timing:                                      incl.     excl.
-------------------------------------------------------------------
Density initialized from wave functions:     8.778     8.777   0.0% |
 Symmetrize density:                         0.001     0.001   0.0% |
Forces:                                    611.106   611.106   2.2% ||
Hamiltonian:                               192.931     0.005   0.0% |
 Atomic:                                     0.010     0.010   0.0% |
  XC Correction:                             0.000     0.000   0.0% |
 Calculate atomic Hamiltonians:              0.011     0.011   0.0% |
 Communicate:                                6.653     6.653   0.0% |
 Hartree integrate/restrict:                 0.647     0.647   0.0% |
 Initialize Hamiltonian:                     0.000     0.000   0.0% |
 Poisson:                                   10.334     0.480   0.0% |
  Communicate from 1D:                       1.130     1.130   0.0% |
  Communicate from 2D:                       1.772     1.772   0.0% |
  Communicate to 1D:                         0.446     0.446   0.0% |
  Communicate to 2D:                         1.903     1.903   0.0% |
  FFT 1D:                                    1.623     1.623   0.0% |
  FFT 2D:                                    2.983     2.983   0.0% |
 XC 3D grid:                               175.149    44.204   0.2% |
  VdW-DF integral:                         130.945     1.802   0.0% |
   Convolution:                             17.676    17.676   0.1% |
   FFT:                                     10.753    10.753   0.0% |
   gather:                                  35.450    35.450   0.1% |
   hmm1:                                     2.660     2.660   0.0% |
   hmm2:                                     5.900     5.900   0.0% |
   iFFT:                                    10.914    10.914   0.0% |
   potential:                               41.815     0.996   0.0% |
    collect:                                 4.083     4.083   0.0% |
    p1:                                     24.505    24.505   0.1% |
    p2:                                      8.709     8.709   0.0% |
    sum:                                     3.522     3.522   0.0% |
   splines:                                  3.976     3.976   0.0% |
 vbar:                                       0.121     0.121   0.0% |
LCAO initialization:                        18.760     0.746   0.0% |
 LCAO eigensolver:                           3.915     0.003   0.0% |
  Calculate projections:                     0.000     0.000   0.0% |
  DenseAtomicCorrection:                     0.000     0.000   0.0% |
  Distribute overlap matrix:                 3.510     3.510   0.0% |
  Orbital Layouts:                           0.372     0.372   0.0% |
  Potential matrix:                          0.008     0.008   0.0% |
  Sum over cells:                            0.023     0.023   0.0% |
 LCAO to grid:                              13.400    13.400   0.0% |
 Set positions (LCAO WFS):                   0.699     0.581   0.0% |
  Basic WFS set positions:                   0.001     0.001   0.0% |
  Basis functions set positions:             0.000     0.000   0.0% |
  P tci:                                     0.000     0.000   0.0% |
  ST tci:                                    0.086     0.086   0.0% |
  mktci:                                     0.031     0.031   0.0% |
Redistribute:                                0.018     0.018   0.0% |
SCF-cycle:                               26293.175   145.629   0.5% |
 Davidson:                               23031.671  6258.289  22.3% |--------|
  Apply hamiltonian:                       839.645   839.645   3.0% ||
  Subspace diag:                          3020.166     0.076   0.0% |
   calc_h_matrix:                         1542.189   807.817   2.9% ||
    Apply hamiltonian:                     734.371   734.371   2.6% ||
   diagonalize:                             42.503    42.503   0.2% |
   rotate_psi:                            1435.399  1435.399   5.1% |-|
  calc. matrices:                         9758.795  5328.089  19.0% |-------|
   Apply hamiltonian:                     4430.706  4430.706  15.8% |-----|
  diagonalize:                             212.178   212.178   0.8% |
  rotate_psi:                             2942.598  2942.598  10.5% |---|
 Density:                                   62.594     0.014   0.0% |
  Atomic density matrices:                   3.901     3.901   0.0% |
  Mix:                                      14.774    14.774   0.1% |
  Multipole moments:                         0.210     0.210   0.0% |
  Pseudo density:                           43.696    43.678   0.2% |
   Symmetrize density:                       0.018     0.018   0.0% |
 Hamiltonian:                             2897.654     0.074   0.0% |
  Atomic:                                    0.138     0.136   0.0% |
   XC Correction:                            0.002     0.002   0.0% |
  Calculate atomic Hamiltonians:             0.169     0.169   0.0% |
  Communicate:                             101.016   101.016   0.4% |
  Hartree integrate/restrict:                9.707     9.707   0.0% |
  Poisson:                                 159.022     7.390   0.0% |
   Communicate from 1D:                     17.492    17.492   0.1% |
   Communicate from 2D:                     27.288    27.288   0.1% |
   Communicate to 1D:                        6.862     6.862   0.0% |
   Communicate to 2D:                       29.352    29.352   0.1% |
   FFT 1D:                                  24.928    24.928   0.1% |
   FFT 2D:                                  45.711    45.711   0.2% |
  XC 3D grid:                             2625.782   675.179   2.4% ||
   VdW-DF integral:                       1950.603    27.763   0.1% |
    Convolution:                           270.899   270.899   1.0% |
    FFT:                                   165.252   165.252   0.6% |
    gather:                                549.830   549.830   2.0% ||
    hmm1:                                   40.695    40.695   0.1% |
    hmm2:                                   90.897    90.897   0.3% |
    iFFT:                                  167.645   167.645   0.6% |
    potential:                             637.618    15.168   0.1% |
     collect:                               62.977    62.977   0.2% |
     p1:                                   376.080   376.080   1.3% ||
     p2:                                   132.245   132.245   0.5% |
     sum:                                   51.148    51.148   0.2% |
    splines:                                 0.004     0.004   0.0% |
  vbar:                                      1.747     1.747   0.0% |
 Orthonormalize:                           155.627     0.007   0.0% |
  calc_s_matrix:                            20.530    20.530   0.1% |
  inverse-cholesky:                         90.427    90.427   0.3% |
  projections:                               0.002     0.002   0.0% |
  rotate_psi_s:                             44.660    44.660   0.2% |
Set symmetry:                                0.001     0.001   0.0% |
Other:                                     929.736   929.736   3.3% ||
-------------------------------------------------------------------
Total:                                             28054.505 100.0%

Memory usage: 2.32 GiB
Date: Thu Sep 28 10:18:17 2023
