
  ___ ___ ___ _ _ _  
 |   |   |_  | | | | 
 | | | | | . | | | | 
 |__ |  _|___|_____|  22.8.0
 |___|_|             

User:   s204775@c066.nifl.fysik.dtu.dk
Date:   Thu Sep 28 02:53:27 2023
Arch:   x86_64
Pid:    3368
CWD:    /home/cat/s204775/projects/Bachelor_project/C_missing_features
Python: 3.10.4
gpaw:   /home/modules/software/GPAW/22.8.0-intel-2022a/lib/python3.10/site-packages/gpaw
_gpaw:  /home/modules/software/GPAW/22.8.0-intel-2022a/lib/python3.10/site-packages/
        _gpaw.cpython-310-x86_64-linux-gnu.so
ase:    /home/modules/software/ASE/3.22.1-intel-2022a/lib/python3.10/site-packages/ase (version 3.22.1)
numpy:  /home/modules/software/SciPy-bundle/2022.05-intel-2022a/lib/python3.10/site-packages/numpy (version 1.22.3)
scipy:  /home/modules/software/SciPy-bundle/2022.05-intel-2022a/lib/python3.10/site-packages/scipy (version 1.8.1)
libxc:  5.2.3
units:  Angstrom and eV
cores: 40
OpenMP: False
OMP_NUM_THREADS: 1

Input parameters:
  basis: dzp
  h: 0.18
  kpts: {size: (4, 4, 1)}
  xc: BEEF-vdW

System changes: positions, numbers, cell, pbc, initial_charges, initial_magmoms 

Initialize ...

species:
  Pd:
    name: Palladium
    id: c3f348c122b85aed3f99c4295cac773c
    Z: 46.0
    valence: 16
    core: 30
    charge: 0.0
    file: /home/modules/software/GPAW-setups/0.9.20000/Pd.PBE.gz
    compensation charges: {type: gauss,
                           rc: 0.38,
                           lmax: 2}
    cutoffs: {filter: 2.38,
              core: 2.28}
    valence states:
      #              energy  rcut
      - 5s(0.00)    -3.315   1.228
      - 4p(6.00)   -51.209   1.360
      - 5p(0.00)    -0.314   1.360
      - 4d(10.00)    -4.047   1.228
      -  s          23.896   1.228
      -  d          23.165   1.228
  
    # LCAO basis set for Pd:
    #   Name: dzp
    #   File: /home/modules/software/GPAW-setups/0.9.20000/Pd.dzp.basis.gz
    #   Number of radial functions: 9
    #   Number of spherical harmonics: 27
    #     l=0, rc=10.0312 Bohr: 5s-sz confined orbital
    #     l=1, rc=3.5312 Bohr: 4p-sz confined orbital
    #     l=1, rc=16.0000 Bohr: 5p-sz confined orbital
    #     l=2, rc=6.2031 Bohr: 4d-sz confined orbital
    #     l=0, rc=6.0156 Bohr: 5s-dz split-valence wave
    #     l=1, rc=2.4062 Bohr: 4p-dz split-valence wave
    #     l=1, rc=9.9375 Bohr: 5p-dz split-valence wave
    #     l=2, rc=3.6719 Bohr: 4d-dz split-valence wave
    #     l=1, rc=10.0312 Bohr: p-type Gaussian polarization
    #   Number of RI-basis functions 0

  C:
    name: Carbon
    id: 4aa54d4b901d75f77cc0ea3eec22967b
    Z: 6.0
    valence: 4
    core: 2
    charge: 0.0
    file: /home/modules/software/GPAW-setups/0.9.20000/C.PBE.gz
    compensation charges: {type: gauss,
                           rc: 0.20,
                           lmax: 2}
    cutoffs: {filter: 1.14,
              core: 1.14}
    valence states:
      #              energy  rcut
      - 2s(2.00)   -13.751   0.635
      - 2p(2.00)    -5.284   0.635
      -  s          13.461   0.635
      -  p          21.927   0.635
      -  d           0.000   0.635
  
    # LCAO basis set for C:
    #   Name: dzp
    #   File: /home/modules/software/GPAW-setups/0.9.20000/C.dzp.basis.gz
    #   Number of radial functions: 5
    #   Number of spherical harmonics: 13
    #     l=0, rc=5.5469 Bohr: 2s-sz confined orbital
    #     l=1, rc=6.6719 Bohr: 2p-sz confined orbital
    #     l=0, rc=3.0312 Bohr: 2s-dz split-valence wave
    #     l=1, rc=3.7500 Bohr: 2p-dz split-valence wave
    #     l=2, rc=6.6719 Bohr: d-type Gaussian polarization
    #   Number of RI-basis functions 0

Reference energy: -4941217.293967  # eV

Spin-paired calculation

Convergence criteria:
 Maximum [total energy] change in last 3 cyles: 0.0005 eV / electron
 Maximum integral of absolute [dens]ity change: 0.0001 electrons / valence electron
 Maximum integral of absolute [eigenst]ate change: 4e-08 eV^2 / valence electron
 Maximum number of scf [iter]ations: 333
 (Square brackets indicate name in SCF output, whereas a 'c' in
 the SCF output indicates the quantity has converged.)

Symmetries present (total): 2

  ( 1  0  0)  (-1  0  0)
  ( 0  1  0)  ( 1  1  0)
  ( 0  0  1)  ( 0  0  1)
Note: your k-points are not as symmetric as your crystal!

16 k-points: 4 x 4 x 1 Monkhorst-Pack grid
8 k-points in the irreducible part of the Brillouin zone
       k-points in crystal coordinates                weights
   0:     0.12500000   -0.37500000    0.00000000          2/16
   1:     0.12500000   -0.12500000    0.00000000          2/16
   2:     0.12500000    0.12500000    0.00000000          2/16
   3:     0.12500000    0.37500000    0.00000000          2/16
   4:     0.37500000   -0.37500000    0.00000000          2/16
   5:     0.37500000   -0.12500000    0.00000000          2/16
   6:     0.37500000    0.12500000    0.00000000          2/16
   7:     0.37500000    0.37500000    0.00000000          2/16

Wave functions: Uniform real-space grid
  Kinetic energy operator: 8*3+1=25 point O(h^6) finite-difference Laplacian
  ScaLapack parameters: grid=1x1, blocksize=None
  Wavefunction extrapolation:
    Improved wavefunction reuse through dual PAW basis 

Occupation numbers: Fermi-Dirac:
  width: 0.1000  # eV
 

Eigensolver
   Davidson(niter=2) 

Densities:
  Coarse grid: 40*40*148 grid
  Fine grid: 80*80*296 grid
  Total Charge: 0.000000 

Density mixing:
  Method: separate
  Backend: pulay
  Linear mixing parameter: 0.05
  old densities: 5
  Damping of long wavelength oscillations: 50 

Hamiltonian:
  XC and Coulomb potentials evaluated on a 80*80*296 grid
  Using the BEEF-vdW Exchange-Correlation functional
  Interpolation: tri-quintic (5. degree polynomial)
  Poisson solver: FastPoissonSolver using
    Stencil: 8*3+1=25 point O(h^6) finite-difference Laplacian
    FFT axes: [0, 1]
    FST axes: [2]
 

XC parameters: BEEF-vdW with 2 nearest neighbor stencil

Memory estimate:
  Process memory now: 212.04 MiB
  Calculator: 599.15 MiB
    Density: 60.11 MiB
      Arrays: 9.35 MiB
      Localized functions: 47.21 MiB
      Mixer: 3.54 MiB
    Hamiltonian: 9.60 MiB
      Arrays: 6.12 MiB
      XC: 0.00 MiB
      Poisson: 0.00 MiB
      vbar: 3.49 MiB
    Wavefunctions: 529.45 MiB
      Arrays psit_nG: 249.22 MiB
      Eigensolver: 271.68 MiB
      Projections: 0.71 MiB
      Projectors: 7.84 MiB

Total number of cores used: 40
Parallelization over k-points: 8
Domain decomposition: 1 x 1 x 5

Number of atoms: 37
Number of atomic orbitals: 985
Number of bands in calculation: 352
Number of valence electrons: 580
Bands to converge: occupied

... initialized

Initializing position-dependent things.

Density initialized from atomic densities
Creating initial wave functions:
  352 bands from LCAO basis set

                                                
                                                
                                                
                                                
                                                
                 Pd     Pd C   Pd               
                                                
           Pd     PPd    PPd     Pd             
                     Pd     Pd     Pd           
             Pd     Pd     Pd                   
              PPd    PPd    PPd                 
                                                
                Pd     Pd     Pd                
                  Pd     Pd     Pd              
          Pd     Pd     Pd                      
            Pd     Pd     Pd                    
              Pd     Pd     Pd                  
                                                
                                                
                                                
                                                

Positions:
   0 Pd     0.000000    0.000000    9.999999    ( 0.0000,  0.0000,  0.0000)
   1 Pd     1.418446    0.818940   12.316312    ( 0.0000,  0.0000,  0.0000)
   2 Pd    -0.000000    1.637341   14.614319    ( 0.0000,  0.0000,  0.0000)
   3 Pd     2.836318   -0.000221   16.938702    ( 0.0000,  0.0000,  0.0000)
   4 Pd    -1.418446    2.456821    9.999999    ( 0.0000,  0.0000,  0.0000)
   5 Pd    -0.000000    3.275761   12.316312    ( 0.0000,  0.0000,  0.0000)
   6 Pd    -1.417250    4.095392   14.618454    ( 0.0000,  0.0000,  0.0000)
   7 Pd     1.417968    2.456434   16.938702    ( 0.0000,  0.0000,  0.0000)
   8 Pd    -2.836893    4.913642    9.999999    ( 0.0000,  0.0000,  0.0000)
   9 Pd    -1.418446    5.732582   12.316312    ( 0.0000,  0.0000,  0.0000)
  10 Pd    -2.837360    6.551793   14.614319    ( 0.0000,  0.0000,  0.0000)
  11 Pd    -0.000000    4.913642   16.946916    ( 0.0000,  0.0000,  0.0000)
  12 Pd     2.836893    0.000000    9.999999    ( 0.0000,  0.0000,  0.0000)
  13 Pd     4.255339    0.818940   12.316312    ( 0.0000,  0.0000,  0.0000)
  14 Pd     2.837300    1.638116   14.617798    ( 0.0000,  0.0000,  0.0000)
  15 Pd     5.674360   -0.000221   16.938702    ( 0.0000,  0.0000,  0.0000)
  16 Pd     1.418446    2.456821    9.999999    ( 0.0000,  0.0000,  0.0000)
  17 Pd     2.836893    3.275761   12.316312    ( 0.0000,  0.0000,  0.0000)
  18 Pd     1.417250    4.095392   14.618454    ( 0.0000,  0.0000,  0.0000)
  19 Pd     4.255339    2.456821   16.946466    ( 0.0000,  0.0000,  0.0000)
  20 Pd     0.000000    4.913642    9.999999    ( 0.0000,  0.0000,  0.0000)
  21 Pd     1.418446    5.732582   12.316312    ( 0.0000,  0.0000,  0.0000)
  22 Pd    -0.000000    6.550142   14.618454    ( 0.0000,  0.0000,  0.0000)
  23 Pd     2.836989    4.914250   16.938702    ( 0.0000,  0.0000,  0.0000)
  24 Pd     5.673785    0.000000    9.999999    ( 0.0000,  0.0000,  0.0000)
  25 Pd     7.092231    0.818940   12.316312    ( 0.0000,  0.0000,  0.0000)
  26 Pd     5.673378    1.638116   14.617798    ( 0.0000,  0.0000,  0.0000)
  27 Pd     8.510678    0.000000   16.935460    ( 0.0000,  0.0000,  0.0000)
  28 Pd     4.255339    2.456821    9.999999    ( 0.0000,  0.0000,  0.0000)
  29 Pd     5.673785    3.275761   12.316312    ( 0.0000,  0.0000,  0.0000)
  30 Pd     4.255339    4.094232   14.617798    ( 0.0000,  0.0000,  0.0000)
  31 Pd     7.092710    2.456434   16.938702    ( 0.0000,  0.0000,  0.0000)
  32 Pd     2.836893    4.913642    9.999999    ( 0.0000,  0.0000,  0.0000)
  33 Pd     4.255339    5.732582   12.316312    ( 0.0000,  0.0000,  0.0000)
  34 Pd     2.837360    6.551793   14.614319    ( 0.0000,  0.0000,  0.0000)
  35 Pd     5.673689    4.914250   16.938702    ( 0.0000,  0.0000,  0.0000)
  36 C      4.255339    4.094984   17.765547    ( 0.0000,  0.0000,  0.0000)

Unit cell:
           periodic     x           y           z      points  spacing
  1. axis:    yes    8.510678    0.000000    0.000000    40     0.1843
  2. axis:    yes   -4.255339    7.370463    0.000000    40     0.1843
  3. axis:    no     0.000000    0.000000   26.948937   148     0.1821

  Lengths:   8.510678   8.510678  26.948937
  Angles:   90.000000  90.000000 120.000000

Effective grid spacing dv^(1/3) = 0.1925

     iter     time        total  log10-change:
                         energy  eigst   dens
iter:   1 02:56:00 -5250.815719
iter:   2 02:56:43 -5307.033840  -0.28  -1.14
iter:   3 02:57:27 -5241.444132  -1.07  -1.05
iter:   4 02:58:10 -5244.841954  -0.76  -1.20
iter:   5 02:58:54 -5223.727928  -1.08  -1.25
iter:   6 02:59:37 -5216.022699  -1.02  -1.39
iter:   7 03:00:21 -5214.585785  -1.34  -1.55
iter:   8 03:01:04 -5214.149459  -1.48  -1.65
iter:   9 03:01:48 -5214.955321  -1.99  -1.78
iter:  10 03:02:31 -5213.240130  -1.97  -1.83
iter:  11 03:03:15 -5213.075178  -2.47  -1.98
iter:  12 03:03:58 -5213.432375  -2.59  -2.05
iter:  13 03:04:42 -5213.065183  -2.60  -2.11
iter:  14 03:05:25 -5212.765290  -2.85  -2.21
iter:  15 03:06:09 -5212.819747  -2.91  -2.32
iter:  16 03:06:52 -5212.606634c -3.08  -2.31
iter:  17 03:07:36 -5212.589772c -2.87  -2.53
iter:  18 03:08:20 -5212.542786c -3.00  -2.62
iter:  19 03:09:03 -5212.521375c -3.68  -2.89
iter:  20 03:09:46 -5212.518503c -4.25  -3.12
iter:  21 03:10:30 -5212.516268c -4.20  -3.16
iter:  22 03:11:13 -5212.518601c -4.56  -3.27
iter:  23 03:11:57 -5212.516140c -4.81  -3.21
iter:  24 03:12:40 -5212.515334c -4.99  -3.34
iter:  25 03:13:24 -5212.515066c -4.87  -3.51
iter:  26 03:14:07 -5212.515238c -5.48  -3.70
iter:  27 03:14:51 -5212.515104c -5.35  -3.71
iter:  28 03:15:34 -5212.515070c -5.75  -3.90
iter:  29 03:16:18 -5212.515197c -6.04  -3.94
iter:  30 03:17:01 -5212.515013c -6.71  -4.06c
iter:  31 03:17:44 -5212.514984c -6.55  -4.14c
iter:  32 03:18:28 -5212.515051c -6.71  -4.34c
iter:  33 03:19:11 -5212.514916c -6.75  -4.22c
iter:  34 03:19:55 -5212.514929c -7.43c -4.62c

Converged after 34 iterations.

Dipole moment: (-4.196762, -7.516637, -0.039919) |e|*Ang

Energy contributions relative to reference atoms: (reference = -4941217.293967)

Kinetic:       +820.771056
Potential:     -914.404398
External:        +0.000000
XC:            -5107.330348
Entropy (-ST):   -2.355895
Local:          -10.373292
--------------------------
Free energy:   -5213.692876
Extrapolated:  -5212.514929

Showing only first 2 kpts
 Kpt  Band  Eigenvalues  Occupancy
  0   288     -5.48324    1.37003
  0   289     -5.44046    1.17283
  0   290     -5.43017    1.12252
  0   291     -5.41578    1.05115

  1   288     -5.55536    1.63459
  1   289     -5.54776    1.61136
  1   290     -5.52815    1.54627
  1   291     -5.51019    1.48018


Fermi level: -5.40554

No gap

Forces in eV/Ang:
  0 Pd    0.00000   -0.02521   -0.00214
  1 Pd   -0.02462    0.00583   -0.05526
  2 Pd    0.00000    0.00147    0.01981
  3 Pd    0.02946   -0.01001    0.00386
  4 Pd   -0.02113    0.00966   -0.02952
  5 Pd    0.00000   -0.00949   -0.06664
  6 Pd    0.03061    0.00713   -0.01460
  7 Pd   -0.26171   -0.15264   -0.03539
  8 Pd   -0.00494    0.00223   -0.03588
  9 Pd   -0.00503   -0.01441    0.04147
 10 Pd    0.02546    0.01985   -0.00633
 11 Pd    0.00000    0.02699   -0.00420
 12 Pd    0.00081   -0.00151   -0.02747
 13 Pd    0.00000    0.01896    0.05602
 14 Pd   -0.00559   -0.02785   -0.01701
 15 Pd   -0.02946   -0.01001    0.00386
 16 Pd    0.02113    0.00966   -0.02952
 17 Pd   -0.00864   -0.00884    0.03840
 18 Pd   -0.03061    0.00713   -0.01460
 19 Pd    0.00000   -1.53317   -0.15226
 20 Pd    0.00000    0.00396   -0.05338
 21 Pd    0.00503   -0.01441    0.04147
 22 Pd    0.00000   -0.00052    0.00786
 23 Pd   -1.28142    0.73544   -0.12747
 24 Pd   -0.00081   -0.00151   -0.02747
 25 Pd    0.02462    0.00583   -0.05526
 26 Pd    0.00559   -0.02785   -0.01701
 27 Pd    0.00000    0.30917   -0.02920
 28 Pd    0.00000    0.00225   -0.06111
 29 Pd    0.00864   -0.00884    0.03840
 30 Pd    0.00000   -0.00284   -0.46373
 31 Pd    0.26171   -0.15264   -0.03539
 32 Pd    0.00494    0.00223   -0.03588
 33 Pd    0.00000    0.02259    0.03506
 34 Pd   -0.02546    0.01985   -0.00633
 35 Pd    1.28142    0.73544   -0.12747
 36 C     0.00000    0.04946    1.31705

      Step     Time          Energy         fmax
BFGS:    0 03:20:18    -5212.514929        1.5407
System changes: positions 

Initializing position-dependent things.

Density initialized from wave functions
                                                
                                                
                                                
                                                
                                                
                 Pd     Pd C   Pd               
                                                
           Pd     PPd    PPd     Pd             
                     Pd     Pd     Pd           
             Pd     Pd     Pd                   
              PPd    PPd    PPd                 
                                                
                Pd     Pd     Pd                
                  Pd     Pd     Pd              
          Pd     Pd     Pd                      
            Pd     Pd     Pd                    
              Pd     Pd     Pd                  
                                                
                                                
                                                
                                                

Positions:
   0 Pd     0.000000    0.000000    9.999999    ( 0.0000,  0.0000,  0.0000)
   1 Pd     1.418446    0.818940   12.316312    ( 0.0000,  0.0000,  0.0000)
   2 Pd    -0.000000    1.637362   14.614602    ( 0.0000,  0.0000,  0.0000)
   3 Pd     2.836739   -0.000364   16.938757    ( 0.0000,  0.0000,  0.0000)
   4 Pd    -1.418446    2.456821    9.999999    ( 0.0000,  0.0000,  0.0000)
   5 Pd    -0.000000    3.275761   12.316312    ( 0.0000,  0.0000,  0.0000)
   6 Pd    -1.416813    4.095494   14.618246    ( 0.0000,  0.0000,  0.0000)
   7 Pd     1.414229    2.454253   16.938196    ( 0.0000,  0.0000,  0.0000)
   8 Pd    -2.836893    4.913642    9.999999    ( 0.0000,  0.0000,  0.0000)
   9 Pd    -1.418446    5.732582   12.316312    ( 0.0000,  0.0000,  0.0000)
  10 Pd    -2.836997    6.552076   14.614228    ( 0.0000,  0.0000,  0.0000)
  11 Pd    -0.000000    4.914028   16.946856    ( 0.0000,  0.0000,  0.0000)
  12 Pd     2.836893    0.000000    9.999999    ( 0.0000,  0.0000,  0.0000)
  13 Pd     4.255339    0.818940   12.316312    ( 0.0000,  0.0000,  0.0000)
  14 Pd     2.837220    1.637718   14.617555    ( 0.0000,  0.0000,  0.0000)
  15 Pd     5.673939   -0.000364   16.938757    ( 0.0000,  0.0000,  0.0000)
  16 Pd     1.418446    2.456821    9.999999    ( 0.0000,  0.0000,  0.0000)
  17 Pd     2.836893    3.275761   12.316312    ( 0.0000,  0.0000,  0.0000)
  18 Pd     1.416813    4.095494   14.618246    ( 0.0000,  0.0000,  0.0000)
  19 Pd     4.255339    2.434919   16.944291    ( 0.0000,  0.0000,  0.0000)
  20 Pd     0.000000    4.913642    9.999999    ( 0.0000,  0.0000,  0.0000)
  21 Pd     1.418446    5.732582   12.316312    ( 0.0000,  0.0000,  0.0000)
  22 Pd    -0.000000    6.550134   14.618567    ( 0.0000,  0.0000,  0.0000)
  23 Pd     2.818683    4.924756   16.936881    ( 0.0000,  0.0000,  0.0000)
  24 Pd     5.673785    0.000000    9.999999    ( 0.0000,  0.0000,  0.0000)
  25 Pd     7.092231    0.818940   12.316312    ( 0.0000,  0.0000,  0.0000)
  26 Pd     5.673458    1.637718   14.617555    ( 0.0000,  0.0000,  0.0000)
  27 Pd     8.510678    0.004417   16.935043    ( 0.0000,  0.0000,  0.0000)
  28 Pd     4.255339    2.456821    9.999999    ( 0.0000,  0.0000,  0.0000)
  29 Pd     5.673785    3.275761   12.316312    ( 0.0000,  0.0000,  0.0000)
  30 Pd     4.255339    4.094191   14.611173    ( 0.0000,  0.0000,  0.0000)
  31 Pd     7.096448    2.454253   16.938196    ( 0.0000,  0.0000,  0.0000)
  32 Pd     2.836893    4.913642    9.999999    ( 0.0000,  0.0000,  0.0000)
  33 Pd     4.255339    5.732582   12.316312    ( 0.0000,  0.0000,  0.0000)
  34 Pd     2.836997    6.552076   14.614228    ( 0.0000,  0.0000,  0.0000)
  35 Pd     5.691995    4.924756   16.936881    ( 0.0000,  0.0000,  0.0000)
  36 C      4.255339    4.095691   17.784363    ( 0.0000,  0.0000,  0.0000)

Unit cell:
           periodic     x           y           z      points  spacing
  1. axis:    yes    8.510678    0.000000    0.000000    40     0.1843
  2. axis:    yes   -4.255339    7.370463    0.000000    40     0.1843
  3. axis:    no     0.000000    0.000000   26.948937   148     0.1821

  Lengths:   8.510678   8.510678  26.948937
  Angles:   90.000000  90.000000 120.000000

Effective grid spacing dv^(1/3) = 0.1925

     iter     time        total  log10-change:
                         energy  eigst   dens
iter:   1 03:22:01 -5213.129281  -2.09
iter:   2 03:22:45 -5218.155767  -2.10  -2.36
iter:   3 03:23:29 -5212.688119  -2.61  -1.86
iter:   4 03:24:14 -5212.811017  -2.91  -2.78
iter:   5 03:24:58 -5212.613027c -3.61  -2.55
iter:   6 03:25:42 -5212.611276c -4.27  -3.33
iter:   7 03:26:26 -5212.609815c -4.69  -3.43
iter:   8 03:27:10 -5212.608984c -4.49  -3.54
iter:   9 03:27:54 -5212.608770c -4.91  -3.57
iter:  10 03:28:38 -5212.608389c -5.45  -3.76
iter:  11 03:29:22 -5212.608129c -5.58  -3.67
iter:  12 03:30:07 -5212.608357c -5.57  -4.01c
iter:  13 03:30:51 -5212.608268c -6.06  -3.93
iter:  14 03:31:35 -5212.608266c -6.18  -4.15c
iter:  15 03:32:19 -5212.608204c -6.07  -4.27c
iter:  16 03:33:03 -5212.608323c -6.73  -4.39c
iter:  17 03:33:47 -5212.608208c -6.72  -4.34c
iter:  18 03:34:31 -5212.608220c -6.75  -4.47c
iter:  19 03:35:15 -5212.608237c -7.02  -4.81c
iter:  20 03:36:00 -5212.608234c -7.51c -4.77c

Converged after 20 iterations.

Dipole moment: (-5.300964, -7.677030, -0.050523) |e|*Ang

Energy contributions relative to reference atoms: (reference = -4941217.293967)

Kinetic:       +815.074257
Potential:     -909.581149
External:        +0.000000
XC:            -5106.552621
Entropy (-ST):   -2.363324
Local:          -10.367059
--------------------------
Free energy:   -5213.789896
Extrapolated:  -5212.608234

Showing only first 2 kpts
 Kpt  Band  Eigenvalues  Occupancy
  0   288     -5.49195    1.37227
  0   289     -5.44825    1.17087
  0   290     -5.43790    1.12022
  0   291     -5.42472    1.05487

  1   288     -5.56221    1.63057
  1   289     -5.55513    1.60875
  1   290     -5.53659    1.54711
  1   291     -5.51901    1.48257


Fermi level: -5.41374

No gap

Forces in eV/Ang:
  0 Pd    0.00000   -0.02503    0.00078
  1 Pd   -0.02511    0.00601   -0.05144
  2 Pd    0.00000    0.00106    0.00548
  3 Pd    0.02299   -0.00793    0.00541
  4 Pd   -0.02108    0.00960   -0.02672
  5 Pd    0.00000   -0.01000   -0.06325
  6 Pd    0.03200   -0.00055   -0.02413
  7 Pd   -0.22208   -0.13061   -0.03487
  8 Pd   -0.00449    0.00246   -0.03363
  9 Pd   -0.00485   -0.01422    0.03792
 10 Pd    0.01911    0.02513   -0.01632
 11 Pd    0.00000    0.02057   -0.00194
 12 Pd    0.00056   -0.00135   -0.02502
 13 Pd    0.00000    0.01868    0.05243
 14 Pd   -0.01376   -0.02579   -0.02739
 15 Pd   -0.02299   -0.00793    0.00541
 16 Pd    0.02108    0.00960   -0.02672
 17 Pd   -0.01351   -0.01161    0.02874
 18 Pd   -0.03200   -0.00055   -0.02413
 19 Pd    0.00000   -0.80000    0.06412
 20 Pd    0.00000    0.00370   -0.05100
 21 Pd    0.00485   -0.01422    0.03792
 22 Pd    0.00000   -0.00053    0.00580
 23 Pd   -0.65908    0.39200    0.07748
 24 Pd   -0.00056   -0.00135   -0.02502
 25 Pd    0.02511    0.00601   -0.05144
 26 Pd    0.01376   -0.02579   -0.02739
 27 Pd    0.00000    0.25759   -0.02860
 28 Pd    0.00000    0.00177   -0.05892
 29 Pd    0.01351   -0.01161    0.02874
 30 Pd    0.00000   -0.00047   -0.34957
 31 Pd    0.22208   -0.13061   -0.03487
 32 Pd    0.00449    0.00246   -0.03363
 33 Pd    0.00000    0.02827    0.02594
 34 Pd   -0.01911    0.02513   -0.01632
 35 Pd    0.65908    0.39200    0.07748
 36 C     0.00000    0.01509    0.61382

BFGS:    1 03:36:23    -5212.608234        0.8026
System changes: positions 

Initializing position-dependent things.

Density initialized from wave functions
                                                
                                                
                                                
                                                
                                                
                 Pd     Pd C   Pd               
                                                
           Pd     PPd    PPd     Pd             
                     Pd     Pd     Pd           
             Pd     Pd     Pd                   
              PPd    PPd    PPd                 
                                                
                Pd     Pd     Pd                
                  Pd     Pd     Pd              
          Pd     Pd     Pd                      
            Pd     Pd     Pd                    
              Pd     Pd     Pd                  
                                                
                                                
                                                
                                                

Positions:
   0 Pd     0.000000    0.000000    9.999999    ( 0.0000,  0.0000,  0.0000)
   1 Pd     1.418446    0.818940   12.316312    ( 0.0000,  0.0000,  0.0000)
   2 Pd    -0.000000    1.637394   14.614780    ( 0.0000,  0.0000,  0.0000)
   3 Pd     2.837445   -0.000607   16.938921    ( 0.0000,  0.0000,  0.0000)
   4 Pd    -1.418446    2.456821    9.999999    ( 0.0000,  0.0000,  0.0000)
   5 Pd    -0.000000    3.275761   12.316312    ( 0.0000,  0.0000,  0.0000)
   6 Pd    -1.415838    4.095483   14.617518    ( 0.0000,  0.0000,  0.0000)
   7 Pd     1.407427    2.450253   16.937132    ( 0.0000,  0.0000,  0.0000)
   8 Pd    -2.836893    4.913642    9.999999    ( 0.0000,  0.0000,  0.0000)
   9 Pd    -1.418446    5.732582   12.316312    ( 0.0000,  0.0000,  0.0000)
  10 Pd    -2.836409    6.552839   14.613738    ( 0.0000,  0.0000,  0.0000)
  11 Pd    -0.000000    4.914660   16.946795    ( 0.0000,  0.0000,  0.0000)
  12 Pd     2.836893    0.000000    9.999999    ( 0.0000,  0.0000,  0.0000)
  13 Pd     4.255339    0.818940   12.316312    ( 0.0000,  0.0000,  0.0000)
  14 Pd     2.836806    1.636930   14.616728    ( 0.0000,  0.0000,  0.0000)
  15 Pd     5.673233   -0.000607   16.938921    ( 0.0000,  0.0000,  0.0000)
  16 Pd     1.418446    2.456821    9.999999    ( 0.0000,  0.0000,  0.0000)
  17 Pd     2.836893    3.275761   12.316312    ( 0.0000,  0.0000,  0.0000)
  18 Pd     1.415838    4.095483   14.617518    ( 0.0000,  0.0000,  0.0000)
  19 Pd     4.255339    2.409958   16.946079    ( 0.0000,  0.0000,  0.0000)
  20 Pd     0.000000    4.913642    9.999999    ( 0.0000,  0.0000,  0.0000)
  21 Pd     1.418446    5.732582   12.316312    ( 0.0000,  0.0000,  0.0000)
  22 Pd    -0.000000    6.550118   14.618745    ( 0.0000,  0.0000,  0.0000)
  23 Pd     2.798105    4.936975   16.939085    ( 0.0000,  0.0000,  0.0000)
  24 Pd     5.673785    0.000000    9.999999    ( 0.0000,  0.0000,  0.0000)
  25 Pd     7.092231    0.818940   12.316312    ( 0.0000,  0.0000,  0.0000)
  26 Pd     5.673871    1.636930   14.616728    ( 0.0000,  0.0000,  0.0000)
  27 Pd     8.510678    0.012311   16.934170    ( 0.0000,  0.0000,  0.0000)
  28 Pd     4.255339    2.456821    9.999999    ( 0.0000,  0.0000,  0.0000)
  29 Pd     5.673785    3.275761   12.316312    ( 0.0000,  0.0000,  0.0000)
  30 Pd     4.255339    4.094175   14.600426    ( 0.0000,  0.0000,  0.0000)
  31 Pd     7.103251    2.450253   16.937132    ( 0.0000,  0.0000,  0.0000)
  32 Pd     2.836893    4.913642    9.999999    ( 0.0000,  0.0000,  0.0000)
  33 Pd     4.255339    5.732582   12.316312    ( 0.0000,  0.0000,  0.0000)
  34 Pd     2.836409    6.552839   14.613738    ( 0.0000,  0.0000,  0.0000)
  35 Pd     5.712572    4.936975   16.939085    ( 0.0000,  0.0000,  0.0000)
  36 C      4.255339    4.096177   17.803623    ( 0.0000,  0.0000,  0.0000)

Unit cell:
           periodic     x           y           z      points  spacing
  1. axis:    yes    8.510678    0.000000    0.000000    40     0.1843
  2. axis:    yes   -4.255339    7.370463    0.000000    40     0.1843
  3. axis:    no     0.000000    0.000000   26.948937   148     0.1821

  Lengths:   8.510678   8.510678  26.948937
  Angles:   90.000000  90.000000 120.000000

Effective grid spacing dv^(1/3) = 0.1925

     iter     time        total  log10-change:
                         energy  eigst   dens
iter:   1 03:38:05 -5213.235404  -1.98
iter:   2 03:38:49 -5218.543536  -2.06  -2.34
iter:   3 03:39:33 -5212.745226  -2.56  -1.85
iter:   4 03:40:17 -5212.879650  -2.86  -2.74
iter:   5 03:41:02 -5212.657328c -3.54  -2.52
iter:   6 03:41:46 -5212.654785c -4.23  -3.27
iter:   7 03:42:30 -5212.652900c -4.62  -3.37
iter:   8 03:43:14 -5212.651667c -4.37  -3.48
iter:   9 03:43:58 -5212.651659c -4.88  -3.64
iter:  10 03:44:43 -5212.652041c -5.30  -3.54
iter:  11 03:45:27 -5212.651072c -5.65  -3.64
iter:  12 03:46:11 -5212.651024c -5.63  -3.82
iter:  13 03:46:55 -5212.651089c -5.92  -3.97
iter:  14 03:47:39 -5212.651000c -6.05  -4.05c
iter:  15 03:48:24 -5212.651098c -6.18  -4.18c
iter:  16 03:49:08 -5212.651064c -6.14  -4.22c
iter:  17 03:49:52 -5212.651050c -6.76  -4.01c
iter:  18 03:50:36 -5212.651043c -6.90  -4.31c
iter:  19 03:51:21 -5212.651019c -6.75  -4.38c
iter:  20 03:52:05 -5212.651044c -6.59  -4.59c
iter:  21 03:52:49 -5212.651021c -7.29  -4.68c
iter:  22 03:53:33 -5212.651033c -7.62c -4.78c

Converged after 22 iterations.

Dipole moment: (-6.583848, -7.956591, -0.060416) |e|*Ang

Energy contributions relative to reference atoms: (reference = -4941217.293967)

Kinetic:       +811.201592
Potential:     -906.442789
External:        +0.000000
XC:            -5105.865314
Entropy (-ST):   -2.371023
Local:          -10.359010
--------------------------
Free energy:   -5213.836545
Extrapolated:  -5212.651033

Showing only first 2 kpts
 Kpt  Band  Eigenvalues  Occupancy
  0   288     -5.50191    1.37530
  0   289     -5.45716    1.16920
  0   290     -5.44660    1.11746
  0   291     -5.43491    1.05951

  1   288     -5.57008    1.62636
  1   289     -5.56334    1.60545
  1   290     -5.54575    1.54680
  1   291     -5.52972    1.48814


Fermi level: -5.42299

No gap

Forces in eV/Ang:
  0 Pd    0.00000   -0.02524   -0.00098
  1 Pd   -0.02591    0.00609   -0.05050
  2 Pd    0.00000    0.00025   -0.02087
  3 Pd    0.01003   -0.00255    0.01336
  4 Pd   -0.02134    0.00971   -0.02861
  5 Pd    0.00000   -0.01080   -0.06289
  6 Pd    0.01830   -0.00819   -0.02373
  7 Pd   -0.14647   -0.08629   -0.02756
  8 Pd   -0.00365    0.00288   -0.03749
  9 Pd   -0.00404   -0.01357    0.03413
 10 Pd    0.00496    0.01790   -0.01793
 11 Pd    0.00000    0.00698    0.00734
 12 Pd    0.00091   -0.00150   -0.02862
 13 Pd    0.00000    0.01737    0.04818
 14 Pd   -0.01506   -0.01118   -0.02882
 15 Pd   -0.01003   -0.00255    0.01336
 16 Pd    0.02134    0.00971   -0.02861
 17 Pd   -0.02166   -0.01616    0.01434
 18 Pd   -0.01830   -0.00819   -0.02373
 19 Pd    0.00000   -0.10153    0.21865
 20 Pd    0.00000    0.00411   -0.05466
 21 Pd    0.00404   -0.01357    0.03413
 22 Pd    0.00000   -0.00051   -0.00111
 23 Pd   -0.06587    0.05913    0.23827
 24 Pd   -0.00091   -0.00150   -0.02862
 25 Pd    0.02591    0.00609   -0.05050
 26 Pd    0.01506   -0.01118   -0.02882
 27 Pd    0.00000    0.16071   -0.01994
 28 Pd    0.00000    0.00081   -0.06282
 29 Pd    0.02166   -0.01616    0.01434
 30 Pd    0.00000   -0.00076   -0.17385
 31 Pd    0.14647   -0.08629   -0.02756
 32 Pd    0.00365    0.00288   -0.03749
 33 Pd    0.00000    0.03795    0.01251
 34 Pd   -0.00496    0.01790   -0.01793
 35 Pd    0.06587    0.05913    0.23827
 36 C     0.00000   -0.01244   -0.02280

BFGS:    2 03:53:56    -5212.651033        0.2542
System changes: positions 

Initializing position-dependent things.

Density initialized from wave functions
                                                
                                                
                                                
                                                
                                                
                           C                    
                 Pd     Pd     Pd               
                   Pd     Pd     Pd             
           Pd     Pd     Pd                     
             Pd     PPd    PPd     Pd           
                                                
              PPd    PPd    PPd                 
                                                
                Pd     Pd     Pd                
                  Pd     Pd     Pd              
          Pd     Pd     Pd                      
            Pd     Pd     Pd                    
              Pd     Pd     Pd                  
                                                
                                                
                                                
                                                

Positions:
   0 Pd     0.000000    0.000000    9.999999    ( 0.0000,  0.0000,  0.0000)
   1 Pd     1.418446    0.818940   12.316312    ( 0.0000,  0.0000,  0.0000)
   2 Pd    -0.000000    1.637404   14.614456    ( 0.0000,  0.0000,  0.0000)
   3 Pd     2.837730   -0.000690   16.939176    ( 0.0000,  0.0000,  0.0000)
   4 Pd    -1.418446    2.456821    9.999999    ( 0.0000,  0.0000,  0.0000)
   5 Pd    -0.000000    3.275761   12.316312    ( 0.0000,  0.0000,  0.0000)
   6 Pd    -1.415374    4.095345   14.617003    ( 0.0000,  0.0000,  0.0000)
   7 Pd     1.403830    2.448137   16.936493    ( 0.0000,  0.0000,  0.0000)
   8 Pd    -2.836893    4.913642    9.999999    ( 0.0000,  0.0000,  0.0000)
   9 Pd    -1.418446    5.732582   12.316312    ( 0.0000,  0.0000,  0.0000)
  10 Pd    -2.836229    6.553261   14.613361    ( 0.0000,  0.0000,  0.0000)
  11 Pd    -0.000000    4.914881   16.946911    ( 0.0000,  0.0000,  0.0000)
  12 Pd     2.836893    0.000000    9.999999    ( 0.0000,  0.0000,  0.0000)
  13 Pd     4.255339    0.818940   12.316312    ( 0.0000,  0.0000,  0.0000)
  14 Pd     2.836489    1.636615   14.616110    ( 0.0000,  0.0000,  0.0000)
  15 Pd     5.672947   -0.000690   16.939176    ( 0.0000,  0.0000,  0.0000)
  16 Pd     1.418446    2.456821    9.999999    ( 0.0000,  0.0000,  0.0000)
  17 Pd     2.836893    3.275761   12.316312    ( 0.0000,  0.0000,  0.0000)
  18 Pd     1.415374    4.095345   14.617003    ( 0.0000,  0.0000,  0.0000)
  19 Pd     4.255339    2.403899   16.949985    ( 0.0000,  0.0000,  0.0000)
  20 Pd     0.000000    4.913642    9.999999    ( 0.0000,  0.0000,  0.0000)
  21 Pd     1.418446    5.732582   12.316312    ( 0.0000,  0.0000,  0.0000)
  22 Pd    -0.000000    6.550107   14.618754    ( 0.0000,  0.0000,  0.0000)
  23 Pd     2.793406    4.940093   16.943402    ( 0.0000,  0.0000,  0.0000)
  24 Pd     5.673785    0.000000    9.999999    ( 0.0000,  0.0000,  0.0000)
  25 Pd     7.092231    0.818940   12.316312    ( 0.0000,  0.0000,  0.0000)
  26 Pd     5.674189    1.636615   14.616110    ( 0.0000,  0.0000,  0.0000)
  27 Pd     8.510678    0.016328   16.933692    ( 0.0000,  0.0000,  0.0000)
  28 Pd     4.255339    2.456821    9.999999    ( 0.0000,  0.0000,  0.0000)
  29 Pd     5.673785    3.275761   12.316312    ( 0.0000,  0.0000,  0.0000)
  30 Pd     4.255339    4.094158   14.595704    ( 0.0000,  0.0000,  0.0000)
  31 Pd     7.106847    2.448137   16.936493    ( 0.0000,  0.0000,  0.0000)
  32 Pd     2.836893    4.913642    9.999999    ( 0.0000,  0.0000,  0.0000)
  33 Pd     4.255339    5.732582   12.316312    ( 0.0000,  0.0000,  0.0000)
  34 Pd     2.836229    6.553261   14.613361    ( 0.0000,  0.0000,  0.0000)
  35 Pd     5.717272    4.940093   16.943402    ( 0.0000,  0.0000,  0.0000)
  36 C      4.255339    4.096060   17.806643    ( 0.0000,  0.0000,  0.0000)

Unit cell:
           periodic     x           y           z      points  spacing
  1. axis:    yes    8.510678    0.000000    0.000000    40     0.1843
  2. axis:    yes   -4.255339    7.370463    0.000000    40     0.1843
  3. axis:    no     0.000000    0.000000   26.948937   148     0.1821

  Lengths:   8.510678   8.510678  26.948937
  Angles:   90.000000  90.000000 120.000000

Effective grid spacing dv^(1/3) = 0.1925

     iter     time        total  log10-change:
                         energy  eigst   dens
iter:   1 03:55:39 -5212.669266  -3.08
iter:   2 03:56:23 -5212.660219  -4.00  -3.24
iter:   3 03:57:08 -5212.710654c -4.10  -3.33
iter:   4 03:57:52 -5212.657183c -4.51  -2.81
iter:   5 03:58:36 -5212.657297c -5.10  -3.70
iter:   6 03:59:20 -5212.657044c -5.57  -3.89
iter:   7 04:00:04 -5212.657043c -5.94  -3.98
iter:   8 04:00:49 -5212.656830c -5.73  -4.09c
iter:   9 04:01:33 -5212.657202c -6.00  -4.23c
iter:  10 04:02:17 -5212.656770c -6.39  -3.95
iter:  11 04:03:01 -5212.656795c -6.85  -4.25c
iter:  12 04:03:46 -5212.656856c -6.69  -4.52c
iter:  13 04:04:30 -5212.656785c -6.94  -4.66c
iter:  14 04:05:15 -5212.656825c -7.33  -4.68c
iter:  15 04:05:59 -5212.656822c -7.49c -4.93c

Converged after 15 iterations.

Dipole moment: (-6.931084, -8.100108, -0.063338) |e|*Ang

Energy contributions relative to reference atoms: (reference = -4941217.293967)

Kinetic:       +810.206890
Potential:     -905.611177
External:        +0.000000
XC:            -5105.711812
Entropy (-ST):   -2.371998
Local:          -10.354724
--------------------------
Free energy:   -5213.842821
Extrapolated:  -5212.656822

Showing only first 2 kpts
 Kpt  Band  Eigenvalues  Occupancy
  0   288     -5.50439    1.37617
  0   289     -5.45947    1.16935
  0   290     -5.44874    1.11680
  0   291     -5.43746    1.06087

  1   288     -5.57220    1.62588
  1   289     -5.56547    1.60499
  1   290     -5.54778    1.54590
  1   291     -5.53272    1.49087


Fermi level: -5.42527

No gap

Forces in eV/Ang:
  0 Pd    0.00000   -0.02546    0.00002
  1 Pd   -0.02575    0.00573   -0.05028
  2 Pd    0.00000   -0.00008   -0.03252
  3 Pd    0.00843   -0.00236    0.01972
  4 Pd   -0.02154    0.00987   -0.02771
  5 Pd    0.00000   -0.01053   -0.06289
  6 Pd    0.01100   -0.00566   -0.01405
  7 Pd   -0.11830   -0.06982   -0.01775
  8 Pd   -0.00358    0.00289   -0.03753
  9 Pd   -0.00273   -0.01270    0.03385
 10 Pd    0.00338    0.01090   -0.00962
 11 Pd    0.00000    0.00556    0.01429
 12 Pd    0.00089   -0.00146   -0.02830
 13 Pd    0.00000    0.01563    0.04754
 14 Pd   -0.01017   -0.00696   -0.02046
 15 Pd   -0.00843   -0.00236    0.01972
 16 Pd    0.02154    0.00987   -0.02771
 17 Pd   -0.02552   -0.01827    0.00755
 18 Pd   -0.01100   -0.00566   -0.01405
 19 Pd    0.00000    0.03058    0.22399
 20 Pd    0.00000    0.00408   -0.05438
 21 Pd    0.00273   -0.01270    0.03385
 22 Pd    0.00000   -0.00052   -0.00093
 23 Pd    0.02949   -0.00082    0.24653
 24 Pd   -0.00089   -0.00146   -0.02830
 25 Pd    0.02575    0.00573   -0.05028
 26 Pd    0.01017   -0.00696   -0.02046
 27 Pd    0.00000    0.12395   -0.00943
 28 Pd    0.00000    0.00074   -0.06284
 29 Pd    0.02552   -0.01827    0.00755
 30 Pd    0.00000   -0.00203   -0.10679
 31 Pd    0.11830   -0.06982   -0.01775
 32 Pd    0.00358    0.00289   -0.03753
 33 Pd    0.00000    0.04258    0.00637
 34 Pd   -0.00338    0.01090   -0.00962
 35 Pd   -0.02949   -0.00082    0.24653
 36 C     0.00000   -0.01759   -0.13413

BFGS:    3 04:06:22    -5212.656822        0.2483
System changes: positions 

Initializing position-dependent things.

Density initialized from wave functions
                                                
                                                
                                                
                                                
                                                
                           C                    
                 Pd     Pd     Pd               
                   Pd     Pd     Pd             
           Pd     Pd     Pd                     
             Pd     PPd    PPd     Pd           
                                                
              PPd    PPd    PPd                 
                                                
                Pd     Pd     Pd                
                  Pd     Pd     Pd              
          Pd     Pd     Pd                      
            Pd     Pd     Pd                    
              Pd     Pd     Pd                  
                                                
                                                
                                                
                                                

Positions:
   0 Pd     0.000000    0.000000    9.999999    ( 0.0000,  0.0000,  0.0000)
   1 Pd     1.418446    0.818940   12.316312    ( 0.0000,  0.0000,  0.0000)
   2 Pd    -0.000000    1.637414   14.613066    ( 0.0000,  0.0000,  0.0000)
   3 Pd     2.838373   -0.000878   16.940112    ( 0.0000,  0.0000,  0.0000)
   4 Pd    -1.418446    2.456821    9.999999    ( 0.0000,  0.0000,  0.0000)
   5 Pd    -0.000000    3.275761   12.316312    ( 0.0000,  0.0000,  0.0000)
   6 Pd    -1.414457    4.095029   14.615969    ( 0.0000,  0.0000,  0.0000)
   7 Pd     1.395590    2.443282   16.935166    ( 0.0000,  0.0000,  0.0000)
   8 Pd    -2.836893    4.913642    9.999999    ( 0.0000,  0.0000,  0.0000)
   9 Pd    -1.418446    5.732582   12.316312    ( 0.0000,  0.0000,  0.0000)
  10 Pd    -2.835873    6.554108   14.612635    ( 0.0000,  0.0000,  0.0000)
  11 Pd    -0.000000    4.915357   16.947504    ( 0.0000,  0.0000,  0.0000)
  12 Pd     2.836893    0.000000    9.999999    ( 0.0000,  0.0000,  0.0000)
  13 Pd     4.255339    0.818940   12.316312    ( 0.0000,  0.0000,  0.0000)
  14 Pd     2.835806    1.635993   14.614750    ( 0.0000,  0.0000,  0.0000)
  15 Pd     5.672304   -0.000878   16.940112    ( 0.0000,  0.0000,  0.0000)
  16 Pd     1.418446    2.456821    9.999999    ( 0.0000,  0.0000,  0.0000)
  17 Pd     2.836893    3.275761   12.316312    ( 0.0000,  0.0000,  0.0000)
  18 Pd     1.414457    4.095029   14.615969    ( 0.0000,  0.0000,  0.0000)
  19 Pd     4.255339    2.395641   16.961296    ( 0.0000,  0.0000,  0.0000)
  20 Pd     0.000000    4.913642    9.999999    ( 0.0000,  0.0000,  0.0000)
  21 Pd     1.418446    5.732582   12.316312    ( 0.0000,  0.0000,  0.0000)
  22 Pd    -0.000000    6.550077   14.618753    ( 0.0000,  0.0000,  0.0000)
  23 Pd     2.787000    4.944747   16.955937    ( 0.0000,  0.0000,  0.0000)
  24 Pd     5.673785    0.000000    9.999999    ( 0.0000,  0.0000,  0.0000)
  25 Pd     7.092231    0.818940   12.316312    ( 0.0000,  0.0000,  0.0000)
  26 Pd     5.674872    1.635993   14.614750    ( 0.0000,  0.0000,  0.0000)
  27 Pd     8.510678    0.025292   16.932823    ( 0.0000,  0.0000,  0.0000)
  28 Pd     4.255339    2.456821    9.999999    ( 0.0000,  0.0000,  0.0000)
  29 Pd     5.673785    3.275761   12.316312    ( 0.0000,  0.0000,  0.0000)
  30 Pd     4.255339    4.094067   14.586286    ( 0.0000,  0.0000,  0.0000)
  31 Pd     7.115088    2.443282   16.935166    ( 0.0000,  0.0000,  0.0000)
  32 Pd     2.836893    4.913642    9.999999    ( 0.0000,  0.0000,  0.0000)
  33 Pd     4.255339    5.732582   12.316312    ( 0.0000,  0.0000,  0.0000)
  34 Pd     2.835873    6.554108   14.612635    ( 0.0000,  0.0000,  0.0000)
  35 Pd     5.723678    4.944747   16.955937    ( 0.0000,  0.0000,  0.0000)
  36 C      4.255339    4.095439   17.807823    ( 0.0000,  0.0000,  0.0000)

Unit cell:
           periodic     x           y           z      points  spacing
  1. axis:    yes    8.510678    0.000000    0.000000    40     0.1843
  2. axis:    yes   -4.255339    7.370463    0.000000    40     0.1843
  3. axis:    no     0.000000    0.000000   26.948937   148     0.1821

  Lengths:   8.510678   8.510678  26.948937
  Angles:   90.000000  90.000000 120.000000

Effective grid spacing dv^(1/3) = 0.1925

     iter     time        total  log10-change:
                         energy  eigst   dens
iter:   1 04:08:04 -5212.813184  -2.47
iter:   2 04:08:48 -5214.856779  -2.53  -2.60
iter:   3 04:09:32 -5212.692897  -3.09  -2.04
iter:   4 04:10:17 -5212.668979  -3.73  -3.00
iter:   5 04:11:01 -5212.667668c -4.37  -3.35
iter:   6 04:11:45 -5212.667132c -4.73  -3.50
iter:   7 04:12:29 -5212.666755c -4.97  -3.71
iter:   8 04:13:13 -5212.666604c -5.21  -3.85
iter:   9 04:13:57 -5212.666804c -5.64  -3.72
iter:  10 04:14:41 -5212.666247c -5.95  -3.86
iter:  11 04:15:25 -5212.666197c -6.07  -4.07c
iter:  12 04:16:09 -5212.666122c -5.93  -4.10c
iter:  13 04:16:54 -5212.666185c -6.27  -4.24c
iter:  14 04:17:38 -5212.666310c -6.49  -4.32c
iter:  15 04:18:22 -5212.666167c -7.00  -4.32c
iter:  16 04:19:06 -5212.666258c -6.59  -4.40c
iter:  17 04:19:50 -5212.666213c -7.21  -4.60c
iter:  18 04:20:34 -5212.666188c -7.38  -4.71c
iter:  19 04:21:18 -5212.666165c -7.58c -4.92c

Converged after 19 iterations.

Dipole moment: (-7.495557, -8.419710, -0.064720) |e|*Ang

Energy contributions relative to reference atoms: (reference = -4941217.293967)

Kinetic:       +809.297310
Potential:     -904.867032
External:        +0.000000
XC:            -5105.557420
Entropy (-ST):   -2.371641
Local:          -10.353203
--------------------------
Free energy:   -5213.851985
Extrapolated:  -5212.666165

Showing only first 2 kpts
 Kpt  Band  Eigenvalues  Occupancy
  0   288     -5.50579    1.37841
  0   289     -5.46040    1.16959
  0   290     -5.44938    1.11561
  0   291     -5.43884    1.06336

  1   288     -5.57295    1.62549
  1   289     -5.56585    1.60343
  1   290     -5.54791    1.54329
  1   291     -5.53532    1.49741


Fermi level: -5.42615

No gap

Forces in eV/Ang:
  0 Pd    0.00000   -0.02647    0.00059
  1 Pd   -0.02623    0.00529   -0.05606
  2 Pd    0.00000   -0.00064   -0.05478
  3 Pd    0.00483   -0.00091    0.01435
  4 Pd   -0.02240    0.01045   -0.02727
  5 Pd    0.00000   -0.01076   -0.06893
  6 Pd   -0.00788    0.00088    0.01179
  7 Pd   -0.05041   -0.03257   -0.01386
  8 Pd   -0.00356    0.00284   -0.03946
  9 Pd   -0.00184   -0.01198    0.03045
 10 Pd   -0.00101   -0.00750    0.01342
 11 Pd    0.00000    0.00223    0.01127
 12 Pd    0.00108   -0.00152   -0.02925
 13 Pd    0.00000    0.01397    0.04309
 14 Pd    0.00318    0.00423    0.00342
 15 Pd   -0.00483   -0.00091    0.01435
 16 Pd    0.02240    0.01045   -0.02727
 17 Pd   -0.03362   -0.02256   -0.00821
 18 Pd    0.00788    0.00088    0.01179
 19 Pd    0.00000    0.15915    0.18182
 20 Pd    0.00000    0.00429   -0.05539
 21 Pd    0.00184   -0.01198    0.03045
 22 Pd    0.00000   -0.00014    0.00307
 23 Pd    0.11481   -0.06685    0.20409
 24 Pd   -0.00108   -0.00152   -0.02925
 25 Pd    0.02623    0.00529   -0.05606
 26 Pd   -0.00318    0.00423    0.00342
 27 Pd    0.00000    0.04396   -0.00491
 28 Pd    0.00000    0.00074   -0.06478
 29 Pd    0.03362   -0.02256   -0.00821
 30 Pd    0.00000   -0.00407    0.01373
 31 Pd    0.05041   -0.03257   -0.01386
 32 Pd    0.00356    0.00284   -0.03946
 33 Pd    0.00000    0.05217   -0.00773
 34 Pd    0.00101   -0.00750    0.01342
 35 Pd   -0.11481   -0.06685    0.20409
 36 C     0.00000   -0.01848   -0.19375

BFGS:    4 04:21:42    -5212.666165        0.2435
System changes: positions 

Initializing position-dependent things.

Density initialized from wave functions
                                                
                                                
                                                
                                                
                                                
                           C                    
                 Pd     Pd     Pd               
                   Pd     Pd     Pd             
           Pd     Pd     Pd        Pd           
             Pd     PPd    PPd                  
                                                
              PPd    PPd    PPd                 
                                                
                Pd     Pd     Pd                
                  Pd     Pd     Pd              
          Pd     Pd     Pd                      
            Pd     Pd     Pd                    
              Pd     Pd     Pd                  
                                                
                                                
                                                
                                                

Positions:
   0 Pd     0.000000    0.000000    9.999999    ( 0.0000,  0.0000,  0.0000)
   1 Pd     1.418446    0.818940   12.316312    ( 0.0000,  0.0000,  0.0000)
   2 Pd    -0.000000    1.637409   14.610998    ( 0.0000,  0.0000,  0.0000)
   3 Pd     2.838907   -0.001018   16.940992    ( 0.0000,  0.0000,  0.0000)
   4 Pd    -1.418446    2.456821    9.999999    ( 0.0000,  0.0000,  0.0000)
   5 Pd    -0.000000    3.275761   12.316312    ( 0.0000,  0.0000,  0.0000)
   6 Pd    -1.413996    4.094823   14.615499    ( 0.0000,  0.0000,  0.0000)
   7 Pd     1.388912    2.439283   16.933909    ( 0.0000,  0.0000,  0.0000)
   8 Pd    -2.836893    4.913642    9.999999    ( 0.0000,  0.0000,  0.0000)
   9 Pd    -1.418446    5.732582   12.316312    ( 0.0000,  0.0000,  0.0000)
  10 Pd    -2.835660    6.554532   14.612411    ( 0.0000,  0.0000,  0.0000)
  11 Pd    -0.000000    4.915721   16.948088    ( 0.0000,  0.0000,  0.0000)
  12 Pd     2.836893    0.000000    9.999999    ( 0.0000,  0.0000,  0.0000)
  13 Pd     4.255339    0.818940   12.316312    ( 0.0000,  0.0000,  0.0000)
  14 Pd     2.835402    1.635663   14.613887    ( 0.0000,  0.0000,  0.0000)
  15 Pd     5.671771   -0.001018   16.940992    ( 0.0000,  0.0000,  0.0000)
  16 Pd     1.418446    2.456821    9.999999    ( 0.0000,  0.0000,  0.0000)
  17 Pd     2.836893    3.275761   12.316312    ( 0.0000,  0.0000,  0.0000)
  18 Pd     1.413996    4.094823   14.615499    ( 0.0000,  0.0000,  0.0000)
  19 Pd     4.255339    2.392896   16.972699    ( 0.0000,  0.0000,  0.0000)
  20 Pd     0.000000    4.913642    9.999999    ( 0.0000,  0.0000,  0.0000)
  21 Pd     1.418446    5.732582   12.316312    ( 0.0000,  0.0000,  0.0000)
  22 Pd    -0.000000    6.550054   14.618818    ( 0.0000,  0.0000,  0.0000)
  23 Pd     2.784739    4.946694   16.968626    ( 0.0000,  0.0000,  0.0000)
  24 Pd     5.673785    0.000000    9.999999    ( 0.0000,  0.0000,  0.0000)
  25 Pd     7.092231    0.818940   12.316312    ( 0.0000,  0.0000,  0.0000)
  26 Pd     5.675276    1.635663   14.613887    ( 0.0000,  0.0000,  0.0000)
  27 Pd     8.510678    0.032353   16.932062    ( 0.0000,  0.0000,  0.0000)
  28 Pd     4.255339    2.456821    9.999999    ( 0.0000,  0.0000,  0.0000)
  29 Pd     5.673785    3.275761   12.316312    ( 0.0000,  0.0000,  0.0000)
  30 Pd     4.255339    4.093924   14.580017    ( 0.0000,  0.0000,  0.0000)
  31 Pd     7.121766    2.439283   16.933909    ( 0.0000,  0.0000,  0.0000)
  32 Pd     2.836893    4.913642    9.999999    ( 0.0000,  0.0000,  0.0000)
  33 Pd     4.255339    5.732582   12.316312    ( 0.0000,  0.0000,  0.0000)
  34 Pd     2.835660    6.554532   14.612411    ( 0.0000,  0.0000,  0.0000)
  35 Pd     5.725939    4.946694   16.968626    ( 0.0000,  0.0000,  0.0000)
  36 C      4.255339    4.094660   17.805067    ( 0.0000,  0.0000,  0.0000)

Unit cell:
           periodic     x           y           z      points  spacing
  1. axis:    yes    8.510678    0.000000    0.000000    40     0.1843
  2. axis:    yes   -4.255339    7.370463    0.000000    40     0.1843
  3. axis:    no     0.000000    0.000000   26.948937   148     0.1821

  Lengths:   8.510678   8.510678  26.948937
  Angles:   90.000000  90.000000 120.000000

Effective grid spacing dv^(1/3) = 0.1925

     iter     time        total  log10-change:
                         energy  eigst   dens
iter:   1 04:23:24 -5212.710418  -2.65
iter:   2 04:24:08 -5212.989737  -3.19  -2.91
iter:   3 04:24:53 -5212.688434  -3.64  -2.43
iter:   4 04:25:37 -5212.674156  -4.45  -3.14
iter:   5 04:26:21 -5212.673570c -4.98  -3.53
iter:   6 04:27:05 -5212.673122c -5.08  -3.70
iter:   7 04:27:49 -5212.673045c -5.42  -3.84
iter:   8 04:28:33 -5212.672831c -5.67  -3.88
iter:   9 04:29:17 -5212.673492c -5.81  -4.08c
iter:  10 04:30:01 -5212.672751c -5.93  -3.77
iter:  11 04:30:45 -5212.672725c -6.50  -4.24c
iter:  12 04:31:29 -5212.672765c -6.54  -4.36c
iter:  13 04:32:13 -5212.672669c -6.38  -4.51c
iter:  14 04:32:57 -5212.672727c -6.84  -4.56c
iter:  15 04:33:41 -5212.672706c -7.43c -4.71c

Converged after 15 iterations.

Dipole moment: (-7.797827, -8.676068, -0.065488) |e|*Ang

Energy contributions relative to reference atoms: (reference = -4941217.293967)

Kinetic:       +809.181939
Potential:     -904.778264
External:        +0.000000
XC:            -5105.540411
Entropy (-ST):   -2.369286
Local:          -10.351327
--------------------------
Free energy:   -5213.857349
Extrapolated:  -5212.672706

Showing only first 2 kpts
 Kpt  Band  Eigenvalues  Occupancy
  0   288     -5.50614    1.37998
  0   289     -5.46053    1.17029
  0   290     -5.44920    1.11481
  0   291     -5.43909    1.06471

  1   288     -5.57318    1.62625
  1   289     -5.56556    1.60254
  1   290     -5.54721    1.54086
  1   291     -5.53668    1.50258


Fermi level: -5.42613

No gap

Forces in eV/Ang:
  0 Pd    0.00000   -0.02712    0.00214
  1 Pd   -0.02531    0.00412   -0.05918
  2 Pd    0.00000   -0.00070   -0.06580
  3 Pd    0.00197    0.00064    0.01335
  4 Pd   -0.02296    0.01084   -0.02579
  5 Pd    0.00000   -0.00937   -0.07191
  6 Pd   -0.02080    0.00768    0.03319
  7 Pd    0.01611    0.00208   -0.00374
  8 Pd   -0.00330    0.00294   -0.03876
  9 Pd   -0.00136   -0.01158    0.03058
 10 Pd   -0.00273   -0.02135    0.03269
 11 Pd    0.00000   -0.00041    0.01263
 12 Pd    0.00129   -0.00157   -0.02847
 13 Pd    0.00000    0.01291    0.04214
 14 Pd    0.01453    0.01082    0.02487
 15 Pd   -0.00197    0.00064    0.01335
 16 Pd    0.02296    0.01084   -0.02579
 17 Pd   -0.03955   -0.02566   -0.01830
 18 Pd    0.02080    0.00768    0.03319
 19 Pd    0.00000    0.13558    0.11279
 20 Pd    0.00000    0.00451   -0.05463
 21 Pd    0.00136   -0.01158    0.03058
 22 Pd    0.00000    0.00021    0.00437
 23 Pd    0.09246   -0.07058    0.13067
 24 Pd   -0.00129   -0.00157   -0.02847
 25 Pd    0.02531    0.00412   -0.05918
 26 Pd   -0.01453    0.01082    0.02487
 27 Pd    0.00000   -0.02032    0.00330
 28 Pd    0.00000    0.00044   -0.06405
 29 Pd    0.03955   -0.02566   -0.01830
 30 Pd    0.00000   -0.00460    0.10008
 31 Pd   -0.01611    0.00208   -0.00374
 32 Pd    0.00330    0.00294   -0.03876
 33 Pd    0.00000    0.05913   -0.01628
 34 Pd    0.00273   -0.02135    0.03269
 35 Pd   -0.09246   -0.07058    0.13067
 36 C     0.00000   -0.01179   -0.11884

BFGS:    5 04:34:05    -5212.672706        0.1764
System changes: positions 

Initializing position-dependent things.

Density initialized from wave functions
                                                
                                                
                                                
                                                
                                                
                 Pd     Pd C   Pd               
                                                
           Pd     PPd    PPd     Pd             
                     Pd     Pd     Pd           
             Pd     Pd     Pd                   
              PPd    PPd    PPd                 
                                                
                Pd     Pd     Pd                
                  Pd     Pd     Pd              
          Pd     Pd     Pd                      
            Pd     Pd     Pd                    
              Pd     Pd     Pd                  
                                                
                                                
                                                
                                                

Positions:
   0 Pd     0.000000    0.000000    9.999999    ( 0.0000,  0.0000,  0.0000)
   1 Pd     1.418446    0.818940   12.316312    ( 0.0000,  0.0000,  0.0000)
   2 Pd    -0.000000    1.637393   14.608729    ( 0.0000,  0.0000,  0.0000)
   3 Pd     2.839192   -0.001065   16.941670    ( 0.0000,  0.0000,  0.0000)
   4 Pd    -1.418446    2.456821    9.999999    ( 0.0000,  0.0000,  0.0000)
   5 Pd    -0.000000    3.275761   12.316312    ( 0.0000,  0.0000,  0.0000)
   6 Pd    -1.414174    4.094862   14.615900    ( 0.0000,  0.0000,  0.0000)
   7 Pd     1.386046    2.437410   16.933218    ( 0.0000,  0.0000,  0.0000)
   8 Pd    -2.836893    4.913642    9.999999    ( 0.0000,  0.0000,  0.0000)
   9 Pd    -1.418446    5.732582   12.316312    ( 0.0000,  0.0000,  0.0000)
  10 Pd    -2.835620    6.554329   14.612923    ( 0.0000,  0.0000,  0.0000)
  11 Pd    -0.000000    4.915875   16.948611    ( 0.0000,  0.0000,  0.0000)
  12 Pd     2.836893    0.000000    9.999999    ( 0.0000,  0.0000,  0.0000)
  13 Pd     4.255339    0.818940   12.316312    ( 0.0000,  0.0000,  0.0000)
  14 Pd     2.835479    1.635717   14.613940    ( 0.0000,  0.0000,  0.0000)
  15 Pd     5.671486   -0.001065   16.941670    ( 0.0000,  0.0000,  0.0000)
  16 Pd     1.418446    2.456821    9.999999    ( 0.0000,  0.0000,  0.0000)
  17 Pd     2.836893    3.275761   12.316312    ( 0.0000,  0.0000,  0.0000)
  18 Pd     1.414174    4.094862   14.615900    ( 0.0000,  0.0000,  0.0000)
  19 Pd     4.255339    2.394215   16.980463    ( 0.0000,  0.0000,  0.0000)
  20 Pd     0.000000    4.913642    9.999999    ( 0.0000,  0.0000,  0.0000)
  21 Pd     1.418446    5.732582   12.316312    ( 0.0000,  0.0000,  0.0000)
  22 Pd    -0.000000    6.550048   14.618921    ( 0.0000,  0.0000,  0.0000)
  23 Pd     2.785556    4.946208   16.977349    ( 0.0000,  0.0000,  0.0000)
  24 Pd     5.673785    0.000000    9.999999    ( 0.0000,  0.0000,  0.0000)
  25 Pd     7.092231    0.818940   12.316312    ( 0.0000,  0.0000,  0.0000)
  26 Pd     5.675199    1.635717   14.613940    ( 0.0000,  0.0000,  0.0000)
  27 Pd     8.510678    0.035359   16.931742    ( 0.0000,  0.0000,  0.0000)
  28 Pd     4.255339    2.456821    9.999999    ( 0.0000,  0.0000,  0.0000)
  29 Pd     5.673785    3.275761   12.316312    ( 0.0000,  0.0000,  0.0000)
  30 Pd     4.255339    4.093771   14.578920    ( 0.0000,  0.0000,  0.0000)
  31 Pd     7.124631    2.437410   16.933218    ( 0.0000,  0.0000,  0.0000)
  32 Pd     2.836893    4.913642    9.999999    ( 0.0000,  0.0000,  0.0000)
  33 Pd     4.255339    5.732582   12.316312    ( 0.0000,  0.0000,  0.0000)
  34 Pd     2.835620    6.554329   14.612923    ( 0.0000,  0.0000,  0.0000)
  35 Pd     5.725121    4.946208   16.977349    ( 0.0000,  0.0000,  0.0000)
  36 C      4.255339    4.094062   17.801432    ( 0.0000,  0.0000,  0.0000)

Unit cell:
           periodic     x           y           z      points  spacing
  1. axis:    yes    8.510678    0.000000    0.000000    40     0.1843
  2. axis:    yes   -4.255339    7.370463    0.000000    40     0.1843
  3. axis:    no     0.000000    0.000000   26.948937   148     0.1821

  Lengths:   8.510678   8.510678  26.948937
  Angles:   90.000000  90.000000 120.000000

Effective grid spacing dv^(1/3) = 0.1925

     iter     time        total  log10-change:
                         energy  eigst   dens
iter:   1 04:35:46 -5212.703386  -3.02
iter:   2 04:36:31 -5212.833486  -3.47  -3.00
iter:   3 04:37:15 -5212.710577c -3.75  -2.59
iter:   4 04:37:59 -5212.678187c -4.56  -2.95
iter:   5 04:38:43 -5212.677044c -4.98  -3.67
iter:   6 04:39:27 -5212.677034c -5.50  -3.92
iter:   7 04:40:11 -5212.676990c -6.01  -4.03c
iter:   8 04:40:55 -5212.676968c -5.99  -4.04c
iter:   9 04:41:39 -5212.677047c -6.16  -4.23c
iter:  10 04:42:23 -5212.676822c -6.40  -4.16c
iter:  11 04:43:08 -5212.676864c -6.83  -4.34c
iter:  12 04:43:52 -5212.676776c -6.75  -4.58c
iter:  13 04:44:36 -5212.676765c -7.07  -4.55c
iter:  14 04:45:20 -5212.676756c -7.20  -4.58c
iter:  15 04:46:04 -5212.676760c -7.60c -4.89c

Converged after 15 iterations.

Dipole moment: (-7.827738, -8.796270, -0.063055) |e|*Ang

Energy contributions relative to reference atoms: (reference = -4941217.293967)

Kinetic:       +809.617621
Potential:     -905.144974
External:        +0.000000
XC:            -5105.613996
Entropy (-ST):   -2.366782
Local:          -10.352020
--------------------------
Free energy:   -5213.860151
Extrapolated:  -5212.676760

Showing only first 2 kpts
 Kpt  Band  Eigenvalues  Occupancy
  0   288     -5.50362    1.38020
  0   289     -5.45808    1.17089
  0   290     -5.44658    1.11456
  0   291     -5.43656    1.06487

  1   288     -5.57091    1.62717
  1   289     -5.56312    1.60297
  1   290     -5.54423    1.53942
  1   291     -5.53488    1.50544


Fermi level: -5.42356

No gap

Forces in eV/Ang:
  0 Pd    0.00000   -0.02743    0.00313
  1 Pd   -0.02373    0.00259   -0.06268
  2 Pd    0.00000    0.00007   -0.05833
  3 Pd    0.00237    0.00011    0.00281
  4 Pd   -0.02321    0.01105   -0.02488
  5 Pd    0.00000   -0.00709   -0.07512
  6 Pd   -0.02467    0.01085    0.04244
  7 Pd    0.03850    0.01364   -0.00932
  8 Pd   -0.00313    0.00300   -0.03855
  9 Pd   -0.00212   -0.01195    0.03166
 10 Pd   -0.00310   -0.02658    0.04189
 11 Pd    0.00000    0.00027    0.00356
 12 Pd    0.00131   -0.00156   -0.02777
 13 Pd    0.00000    0.01338    0.04233
 14 Pd    0.01932    0.01267    0.03557
 15 Pd   -0.00237    0.00011    0.00281
 16 Pd    0.02321    0.01105   -0.02488
 17 Pd   -0.04038   -0.02582   -0.01896
 18 Pd    0.02467    0.01085    0.04244
 19 Pd    0.00000    0.04299    0.05074
 20 Pd    0.00000    0.00450   -0.05396
 21 Pd    0.00212   -0.01195    0.03166
 22 Pd    0.00000    0.00026    0.00758
 23 Pd    0.02039   -0.03443    0.06523
 24 Pd   -0.00131   -0.00156   -0.02777
 25 Pd    0.02373    0.00259   -0.06268
 26 Pd   -0.01932    0.01267    0.03557
 27 Pd    0.00000   -0.04162   -0.00313
 28 Pd    0.00000    0.00027   -0.06391
 29 Pd    0.04038   -0.02582   -0.01896
 30 Pd    0.00000   -0.00329    0.11877
 31 Pd   -0.03850    0.01364   -0.00932
 32 Pd    0.00313    0.00300   -0.03855
 33 Pd    0.00000    0.06009   -0.01597
 34 Pd    0.00310   -0.02658    0.04189
 35 Pd   -0.02039   -0.03443    0.06523
 36 C     0.00000   -0.00093   -0.00040

BFGS:    6 04:46:27    -5212.676760        0.1188
System changes: positions 

Initializing position-dependent things.

Density initialized from wave functions
                                                
                                                
                                                
                                                
                                                
                 Pd     Pd C   Pd               
                                                
           Pd     PPd    PPd     Pd             
                     Pd     Pd     Pd           
             Pd     Pd     Pd                   
              PPd    PPd    PPd                 
                                                
                Pd     Pd     Pd                
                  Pd     Pd     Pd              
          Pd     Pd     Pd                      
            Pd     Pd     Pd                    
              Pd     Pd     Pd                  
                                                
                                                
                                                
                                                

Positions:
   0 Pd     0.000000    0.000000    9.999999    ( 0.0000,  0.0000,  0.0000)
   1 Pd     1.418446    0.818940   12.316312    ( 0.0000,  0.0000,  0.0000)
   2 Pd    -0.000000    1.637390   14.606683    ( 0.0000,  0.0000,  0.0000)
   3 Pd     2.839346   -0.001080   16.941972    ( 0.0000,  0.0000,  0.0000)
   4 Pd    -1.418446    2.456821    9.999999    ( 0.0000,  0.0000,  0.0000)
   5 Pd    -0.000000    3.275761   12.316312    ( 0.0000,  0.0000,  0.0000)
   6 Pd    -1.414737    4.095086   14.616896    ( 0.0000,  0.0000,  0.0000)
   7 Pd     1.385701    2.436954   16.932733    ( 0.0000,  0.0000,  0.0000)
   8 Pd    -2.836893    4.913642    9.999999    ( 0.0000,  0.0000,  0.0000)
   9 Pd    -1.418446    5.732582   12.316312    ( 0.0000,  0.0000,  0.0000)
  10 Pd    -2.835675    6.553721   14.613954    ( 0.0000,  0.0000,  0.0000)
  11 Pd    -0.000000    4.915936   16.948867    ( 0.0000,  0.0000,  0.0000)
  12 Pd     2.836893    0.000000    9.999999    ( 0.0000,  0.0000,  0.0000)
  13 Pd     4.255339    0.818940   12.316312    ( 0.0000,  0.0000,  0.0000)
  14 Pd     2.835889    1.635997   14.614665    ( 0.0000,  0.0000,  0.0000)
  15 Pd     5.671332   -0.001080   16.941972    ( 0.0000,  0.0000,  0.0000)
  16 Pd     1.418446    2.456821    9.999999    ( 0.0000,  0.0000,  0.0000)
  17 Pd     2.836893    3.275761   12.316312    ( 0.0000,  0.0000,  0.0000)
  18 Pd     1.414737    4.095086   14.616896    ( 0.0000,  0.0000,  0.0000)
  19 Pd     4.255339    2.395847   16.984592    ( 0.0000,  0.0000,  0.0000)
  20 Pd     0.000000    4.913642    9.999999    ( 0.0000,  0.0000,  0.0000)
  21 Pd     1.418446    5.732582   12.316312    ( 0.0000,  0.0000,  0.0000)
  22 Pd    -0.000000    6.550051   14.619114    ( 0.0000,  0.0000,  0.0000)
  23 Pd     2.786532    4.945203   16.982144    ( 0.0000,  0.0000,  0.0000)
  24 Pd     5.673785    0.000000    9.999999    ( 0.0000,  0.0000,  0.0000)
  25 Pd     7.092231    0.818940   12.316312    ( 0.0000,  0.0000,  0.0000)
  26 Pd     5.674788    1.635997   14.614665    ( 0.0000,  0.0000,  0.0000)
  27 Pd     8.510678    0.035688   16.931527    ( 0.0000,  0.0000,  0.0000)
  28 Pd     4.255339    2.456821    9.999999    ( 0.0000,  0.0000,  0.0000)
  29 Pd     5.673785    3.275761   12.316312    ( 0.0000,  0.0000,  0.0000)
  30 Pd     4.255339    4.093649   14.580892    ( 0.0000,  0.0000,  0.0000)
  31 Pd     7.124976    2.436954   16.932733    ( 0.0000,  0.0000,  0.0000)
  32 Pd     2.836893    4.913642    9.999999    ( 0.0000,  0.0000,  0.0000)
  33 Pd     4.255339    5.732582   12.316312    ( 0.0000,  0.0000,  0.0000)
  34 Pd     2.835675    6.553721   14.613954    ( 0.0000,  0.0000,  0.0000)
  35 Pd     5.724146    4.945203   16.982144    ( 0.0000,  0.0000,  0.0000)
  36 C      4.255339    4.093807   17.799773    ( 0.0000,  0.0000,  0.0000)

Unit cell:
           periodic     x           y           z      points  spacing
  1. axis:    yes    8.510678    0.000000    0.000000    40     0.1843
  2. axis:    yes   -4.255339    7.370463    0.000000    40     0.1843
  3. axis:    no     0.000000    0.000000   26.948937   148     0.1821

  Lengths:   8.510678   8.510678  26.948937
  Angles:   90.000000  90.000000 120.000000

Effective grid spacing dv^(1/3) = 0.1925

     iter     time        total  log10-change:
                         energy  eigst   dens
iter:   1 04:48:10 -5212.690639  -3.44
iter:   2 04:48:54 -5212.708337  -3.94  -3.16
iter:   3 04:49:38 -5212.709255c -4.17  -2.97
iter:   4 04:50:22 -5212.679845c -4.80  -2.97
iter:   5 04:51:07 -5212.678957c -5.18  -3.71
iter:   6 04:51:51 -5212.678977c -5.83  -4.16c
iter:   7 04:52:35 -5212.678972c -6.47  -4.23c
iter:   8 04:53:19 -5212.679018c -6.34  -4.25c
iter:   9 04:54:04 -5212.678928c -6.66  -4.40c
iter:  10 04:54:48 -5212.678931c -6.90  -4.62c
iter:  11 04:55:32 -5212.678871c -7.04  -4.70c
iter:  12 04:56:16 -5212.678891c -7.67c -4.74c

Converged after 12 iterations.

Dipole moment: (-7.771987, -8.825508, -0.060921) |e|*Ang

Energy contributions relative to reference atoms: (reference = -4941217.293967)

Kinetic:       +809.407734
Potential:     -904.926650
External:        +0.000000
XC:            -5105.622446
Entropy (-ST):   -2.365119
Local:          -10.354970
--------------------------
Free energy:   -5213.861451
Extrapolated:  -5212.678891

Showing only first 2 kpts
 Kpt  Band  Eigenvalues  Occupancy
  0   288     -5.50247    1.38038
  0   289     -5.45696    1.17126
  0   290     -5.44539    1.11459
  0   291     -5.43527    1.06443

  1   288     -5.56982    1.62748
  1   289     -5.56225    1.60399
  1   290     -5.54283    1.53870
  1   291     -5.53390    1.50626


Fermi level: -5.42237

No gap

Forces in eV/Ang:
  0 Pd    0.00000   -0.02789    0.00137
  1 Pd   -0.02053   -0.00009   -0.06071
  2 Pd    0.00000    0.00054   -0.04884
  3 Pd    0.00417   -0.00153   -0.00273
  4 Pd   -0.02356    0.01134   -0.02672
  5 Pd    0.00000   -0.00245   -0.07286
  6 Pd   -0.02249    0.01357    0.03888
  7 Pd    0.03415    0.01118   -0.01241
  8 Pd   -0.00307    0.00302   -0.03904
  9 Pd   -0.00367   -0.01298    0.03689
 10 Pd   -0.00194   -0.02657    0.03954
 11 Pd    0.00000    0.00261   -0.00152
 12 Pd    0.00116   -0.00152   -0.02926
 13 Pd    0.00000    0.01452    0.04660
 14 Pd    0.02033    0.00990    0.03440
 15 Pd   -0.00417   -0.00153   -0.00273
 16 Pd    0.02356    0.01134   -0.02672
 17 Pd   -0.03774   -0.02355   -0.01233
 18 Pd    0.02249    0.01357    0.03888
 19 Pd    0.00000   -0.03147    0.01964
 20 Pd    0.00000    0.00431   -0.05533
 21 Pd    0.00367   -0.01298    0.03689
 22 Pd    0.00000   -0.00034    0.00802
 23 Pd   -0.03760    0.00052    0.03349
 24 Pd   -0.00116   -0.00152   -0.02926
 25 Pd    0.02053   -0.00009   -0.06071
 26 Pd   -0.02033    0.00990    0.03440
 27 Pd    0.00000   -0.03901   -0.00724
 28 Pd    0.00000    0.00026   -0.06466
 29 Pd    0.03774   -0.02355   -0.01233
 30 Pd    0.00000   -0.00013    0.10046
 31 Pd   -0.03415    0.01118   -0.01241
 32 Pd    0.00307    0.00302   -0.03904
 33 Pd    0.00000    0.05689   -0.00813
 34 Pd    0.00194   -0.02657    0.03954
 35 Pd    0.03760    0.00052    0.03349
 36 C     0.00000    0.00535    0.08209

BFGS:    7 04:56:39    -5212.678891        0.1005
System changes: positions 

Initializing position-dependent things.

Density initialized from wave functions
                                                
                                                
                                                
                                                
                                                
                 Pd     Pd C   Pd               
                                                
           Pd     PPd    PPd     Pd             
                     Pd     Pd     Pd           
             Pd     Pd     Pd                   
              PPd    PPd    PPd                 
                                                
                Pd     Pd     Pd                
                  Pd     Pd     Pd              
          Pd     Pd     Pd                      
            Pd     Pd     Pd                    
              Pd     Pd     Pd                  
                                                
                                                
                                                
                                                

Positions:
   0 Pd     0.000000    0.000000    9.999999    ( 0.0000,  0.0000,  0.0000)
   1 Pd     1.418446    0.818940   12.316312    ( 0.0000,  0.0000,  0.0000)
   2 Pd    -0.000000    1.637398   14.603604    ( 0.0000,  0.0000,  0.0000)
   3 Pd     2.839628   -0.001144   16.942268    ( 0.0000,  0.0000,  0.0000)
   4 Pd    -1.418446    2.456821    9.999999    ( 0.0000,  0.0000,  0.0000)
   5 Pd    -0.000000    3.275761   12.316312    ( 0.0000,  0.0000,  0.0000)
   6 Pd    -1.415684    4.095574   14.618583    ( 0.0000,  0.0000,  0.0000)
   7 Pd     1.385520    2.436421   16.931929    ( 0.0000,  0.0000,  0.0000)
   8 Pd    -2.836893    4.913642    9.999999    ( 0.0000,  0.0000,  0.0000)
   9 Pd    -1.418446    5.732582   12.316312    ( 0.0000,  0.0000,  0.0000)
  10 Pd    -2.835741    6.552635   14.615710    ( 0.0000,  0.0000,  0.0000)
  11 Pd    -0.000000    4.916086   16.949123    ( 0.0000,  0.0000,  0.0000)
  12 Pd     2.836893    0.000000    9.999999    ( 0.0000,  0.0000,  0.0000)
  13 Pd     4.255339    0.818940   12.316312    ( 0.0000,  0.0000,  0.0000)
  14 Pd     2.836667    1.636425   14.615980    ( 0.0000,  0.0000,  0.0000)
  15 Pd     5.671049   -0.001144   16.942268    ( 0.0000,  0.0000,  0.0000)
  16 Pd     1.418446    2.456821    9.999999    ( 0.0000,  0.0000,  0.0000)
  17 Pd     2.836893    3.275761   12.316312    ( 0.0000,  0.0000,  0.0000)
  18 Pd     1.415684    4.095574   14.618583    ( 0.0000,  0.0000,  0.0000)
  19 Pd     4.255339    2.396294   16.989714    ( 0.0000,  0.0000,  0.0000)
  20 Pd     0.000000    4.913642    9.999999    ( 0.0000,  0.0000,  0.0000)
  21 Pd     1.418446    5.732582   12.316312    ( 0.0000,  0.0000,  0.0000)
  22 Pd    -0.000000    6.550042   14.619464    ( 0.0000,  0.0000,  0.0000)
  23 Pd     2.786299    4.944537   16.988282    ( 0.0000,  0.0000,  0.0000)
  24 Pd     5.673785    0.000000    9.999999    ( 0.0000,  0.0000,  0.0000)
  25 Pd     7.092231    0.818940   12.316312    ( 0.0000,  0.0000,  0.0000)
  26 Pd     5.674010    1.636425   14.615980    ( 0.0000,  0.0000,  0.0000)
  27 Pd     8.510678    0.035775   16.931120    ( 0.0000,  0.0000,  0.0000)
  28 Pd     4.255339    2.456821    9.999999    ( 0.0000,  0.0000,  0.0000)
  29 Pd     5.673785    3.275761   12.316312    ( 0.0000,  0.0000,  0.0000)
  30 Pd     4.255339    4.093530   14.584251    ( 0.0000,  0.0000,  0.0000)
  31 Pd     7.125158    2.436421   16.931929    ( 0.0000,  0.0000,  0.0000)
  32 Pd     2.836893    4.913642    9.999999    ( 0.0000,  0.0000,  0.0000)
  33 Pd     4.255339    5.732582   12.316312    ( 0.0000,  0.0000,  0.0000)
  34 Pd     2.835741    6.552635   14.615710    ( 0.0000,  0.0000,  0.0000)
  35 Pd     5.724378    4.944537   16.988282    ( 0.0000,  0.0000,  0.0000)
  36 C      4.255339    4.093626   17.799914    ( 0.0000,  0.0000,  0.0000)

Unit cell:
           periodic     x           y           z      points  spacing
  1. axis:    yes    8.510678    0.000000    0.000000    40     0.1843
  2. axis:    yes   -4.255339    7.370463    0.000000    40     0.1843
  3. axis:    no     0.000000    0.000000   26.948937   148     0.1821

  Lengths:   8.510678   8.510678  26.948937
  Angles:   90.000000  90.000000 120.000000

Effective grid spacing dv^(1/3) = 0.1925

     iter     time        total  log10-change:
                         energy  eigst   dens
iter:   1 04:58:22 -5212.733339  -3.26
iter:   2 04:59:06 -5213.589044  -2.94  -2.81
iter:   3 04:59:50 -5212.696093  -3.41  -2.22
iter:   4 05:00:34 -5212.682452  -4.19  -3.17
iter:   5 05:01:18 -5212.681519c -4.66  -3.76
iter:   6 05:02:03 -5212.681112c -5.47  -3.63
iter:   7 05:02:47 -5212.681008c -5.91  -4.13c
iter:   8 05:03:31 -5212.681077c -6.11  -4.17c
iter:   9 05:04:15 -5212.681064c -6.17  -4.27c
iter:  10 05:04:59 -5212.680933c -6.47  -4.22c
iter:  11 05:05:43 -5212.680901c -6.88  -4.29c
iter:  12 05:06:28 -5212.680898c -7.09  -4.61c
iter:  13 05:07:12 -5212.680873c -7.19  -4.78c
iter:  14 05:07:56 -5212.680914c -7.62c -4.80c

Converged after 14 iterations.

Dipole moment: (-7.762620, -8.854954, -0.060358) |e|*Ang

Energy contributions relative to reference atoms: (reference = -4941217.293967)

Kinetic:       +809.666480
Potential:     -905.158526
External:        +0.000000
XC:            -5105.648916
Entropy (-ST):   -2.363769
Local:          -10.358067
--------------------------
Free energy:   -5213.862799
Extrapolated:  -5212.680914

Showing only first 2 kpts
 Kpt  Band  Eigenvalues  Occupancy
  0   288     -5.50166    1.37994
  0   289     -5.45628    1.17136
  0   290     -5.44468    1.11454
  0   291     -5.43438    1.06351

  1   288     -5.56940    1.62834
  1   289     -5.56218    1.60600
  1   290     -5.54192    1.53796
  1   291     -5.53365    1.50793


Fermi level: -5.42167

No gap

Forces in eV/Ang:
  0 Pd    0.00000   -0.02772    0.00196
  1 Pd   -0.01679   -0.00269   -0.05996
  2 Pd    0.00000    0.00256   -0.02996
  3 Pd    0.00264   -0.00188    0.00016
  4 Pd   -0.02350    0.01128   -0.02620
  5 Pd    0.00000    0.00213   -0.07168
  6 Pd   -0.01619    0.01065    0.03240
  7 Pd    0.03406    0.01225   -0.00843
  8 Pd   -0.00318    0.00289   -0.03889
  9 Pd   -0.00385   -0.01291    0.04010
 10 Pd   -0.00169   -0.01967    0.03344
 11 Pd    0.00000    0.00081    0.00228
 12 Pd    0.00078   -0.00120   -0.02807
 13 Pd    0.00000    0.01458    0.04913
 14 Pd    0.01583    0.00674    0.03083
 15 Pd   -0.00264   -0.00188    0.00016
 16 Pd    0.02350    0.01128   -0.02620
 17 Pd   -0.03636   -0.02278   -0.00588
 18 Pd    0.01619    0.01065    0.03240
 19 Pd    0.00000   -0.06094   -0.00221
 20 Pd    0.00000    0.00381   -0.05419
 21 Pd    0.00385   -0.01291    0.04010
 22 Pd    0.00000   -0.00046    0.00200
 23 Pd   -0.05911    0.01419    0.00946
 24 Pd   -0.00078   -0.00120   -0.02807
 25 Pd    0.01679   -0.00269   -0.05996
 26 Pd   -0.01583    0.00674    0.03083
 27 Pd    0.00000   -0.04097   -0.00454
 28 Pd    0.00000    0.00039   -0.06449
 29 Pd    0.03636   -0.02278   -0.00588
 30 Pd    0.00000    0.00193    0.09618
 31 Pd   -0.03406    0.01225   -0.00843
 32 Pd    0.00318    0.00289   -0.03889
 33 Pd    0.00000    0.05527   -0.00131
 34 Pd    0.00169   -0.01967    0.03344
 35 Pd    0.05911    0.01419    0.00946
 36 C     0.00000    0.00580    0.11998

BFGS:    8 05:08:19    -5212.680914        0.1201
System changes: positions 

Initializing position-dependent things.

Density initialized from wave functions
                                                
                                                
                                                
                                                
                                                
                 Pd     Pd C   Pd               
                                                
           Pd     PPd    PPd     Pd             
                     Pd     Pd     Pd           
             Pd     Pd     Pd                   
              PPd    PPd    PPd                 
                                                
                Pd     Pd     Pd                
                  Pd     Pd     Pd              
          Pd     Pd     Pd                      
            Pd     Pd     Pd                    
              Pd     Pd     Pd                  
                                                
                                                
                                                
                                                

Positions:
   0 Pd     0.000000    0.000000    9.999999    ( 0.0000,  0.0000,  0.0000)
   1 Pd     1.418446    0.818940   12.316312    ( 0.0000,  0.0000,  0.0000)
   2 Pd    -0.000000    1.637496   14.597465    ( 0.0000,  0.0000,  0.0000)
   3 Pd     2.840121   -0.001284   16.942799    ( 0.0000,  0.0000,  0.0000)
   4 Pd    -1.418446    2.456821    9.999999    ( 0.0000,  0.0000,  0.0000)
   5 Pd    -0.000000    3.275761   12.316312    ( 0.0000,  0.0000,  0.0000)
   6 Pd    -1.417885    4.096732   14.622585    ( 0.0000,  0.0000,  0.0000)
   7 Pd     1.386966    2.436301   16.930459    ( 0.0000,  0.0000,  0.0000)
   8 Pd    -2.836893    4.913642    9.999999    ( 0.0000,  0.0000,  0.0000)
   9 Pd    -1.418446    5.732582   12.316312    ( 0.0000,  0.0000,  0.0000)
  10 Pd    -2.835944    6.550118   14.619828    ( 0.0000,  0.0000,  0.0000)
  11 Pd    -0.000000    4.916303   16.949677    ( 0.0000,  0.0000,  0.0000)
  12 Pd     2.836893    0.000000    9.999999    ( 0.0000,  0.0000,  0.0000)
  13 Pd     4.255339    0.818940   12.316312    ( 0.0000,  0.0000,  0.0000)
  14 Pd     2.838525    1.637430   14.619307    ( 0.0000,  0.0000,  0.0000)
  15 Pd     5.670557   -0.001284   16.942799    ( 0.0000,  0.0000,  0.0000)
  16 Pd     1.418446    2.456821    9.999999    ( 0.0000,  0.0000,  0.0000)
  17 Pd     2.836893    3.275761   12.316312    ( 0.0000,  0.0000,  0.0000)
  18 Pd     1.417885    4.096732   14.622585    ( 0.0000,  0.0000,  0.0000)
  19 Pd     4.255339    2.396575   16.997809    ( 0.0000,  0.0000,  0.0000)
  20 Pd     0.000000    4.913642    9.999999    ( 0.0000,  0.0000,  0.0000)
  21 Pd     1.418446    5.732582   12.316312    ( 0.0000,  0.0000,  0.0000)
  22 Pd    -0.000000    6.550019   14.620094    ( 0.0000,  0.0000,  0.0000)
  23 Pd     2.785136    4.943123   16.998394    ( 0.0000,  0.0000,  0.0000)
  24 Pd     5.673785    0.000000    9.999999    ( 0.0000,  0.0000,  0.0000)
  25 Pd     7.092231    0.818940   12.316312    ( 0.0000,  0.0000,  0.0000)
  26 Pd     5.672153    1.637430   14.619307    ( 0.0000,  0.0000,  0.0000)
  27 Pd     8.510678    0.033889   16.930423    ( 0.0000,  0.0000,  0.0000)
  28 Pd     4.255339    2.456821    9.999999    ( 0.0000,  0.0000,  0.0000)
  29 Pd     5.673785    3.275761   12.316312    ( 0.0000,  0.0000,  0.0000)
  30 Pd     4.255339    4.093370   14.593986    ( 0.0000,  0.0000,  0.0000)
  31 Pd     7.123712    2.436301   16.930459    ( 0.0000,  0.0000,  0.0000)
  32 Pd     2.836893    4.913642    9.999999    ( 0.0000,  0.0000,  0.0000)
  33 Pd     4.255339    5.732582   12.316312    ( 0.0000,  0.0000,  0.0000)
  34 Pd     2.835944    6.550118   14.619828    ( 0.0000,  0.0000,  0.0000)
  35 Pd     5.725542    4.943123   16.998394    ( 0.0000,  0.0000,  0.0000)
  36 C      4.255339    4.093471   17.803009    ( 0.0000,  0.0000,  0.0000)

Unit cell:
           periodic     x           y           z      points  spacing
  1. axis:    yes    8.510678    0.000000    0.000000    40     0.1843
[...]
  13 Pd     4.255339    0.818940   12.316312    ( 0.0000,  0.0000,  0.0000)
  14 Pd     2.841204    1.637198   14.626630    ( 0.0000,  0.0000,  0.0000)
  15 Pd     5.669971   -0.003188   16.946074    ( 0.0000,  0.0000,  0.0000)
  16 Pd     1.418446    2.456821    9.999999    ( 0.0000,  0.0000,  0.0000)
  17 Pd     2.836893    3.275761   12.316312    ( 0.0000,  0.0000,  0.0000)
  18 Pd     1.418595    4.098333   14.628555    ( 0.0000,  0.0000,  0.0000)
  19 Pd     4.255339    2.390694   17.014147    ( 0.0000,  0.0000,  0.0000)
  20 Pd     0.000000    4.913642    9.999999    ( 0.0000,  0.0000,  0.0000)
  21 Pd     1.418446    5.732582   12.316312    ( 0.0000,  0.0000,  0.0000)
  22 Pd    -0.000000    6.549547   14.619708    ( 0.0000,  0.0000,  0.0000)
  23 Pd     2.780430    4.940851   17.018648    ( 0.0000,  0.0000,  0.0000)
  24 Pd     5.673785    0.000000    9.999999    ( 0.0000,  0.0000,  0.0000)
  25 Pd     7.092231    0.818940   12.316312    ( 0.0000,  0.0000,  0.0000)
  26 Pd     5.669473    1.637198   14.626630    ( 0.0000,  0.0000,  0.0000)
  27 Pd     8.510678    0.027397   16.930422    ( 0.0000,  0.0000,  0.0000)
  28 Pd     4.255339    2.456821    9.999999    ( 0.0000,  0.0000,  0.0000)
  29 Pd     5.673785    3.275761   12.316312    ( 0.0000,  0.0000,  0.0000)
  30 Pd     4.255339    4.095095   14.618200    ( 0.0000,  0.0000,  0.0000)
  31 Pd     7.122528    2.434605   16.928994    ( 0.0000,  0.0000,  0.0000)
  32 Pd     2.836893    4.913642    9.999999    ( 0.0000,  0.0000,  0.0000)
  33 Pd     4.255339    5.732582   12.316312    ( 0.0000,  0.0000,  0.0000)
  34 Pd     2.835624    6.548571   14.626617    ( 0.0000,  0.0000,  0.0000)
  35 Pd     5.730248    4.940851   17.018648    ( 0.0000,  0.0000,  0.0000)
  36 C      4.255339    4.091430   17.834961    ( 0.0000,  0.0000,  0.0000)

Unit cell:
           periodic     x           y           z      points  spacing
  1. axis:    yes    8.510678    0.000000    0.000000    40     0.1843
  2. axis:    yes   -4.255339    7.370463    0.000000    40     0.1843
  3. axis:    no     0.000000    0.000000   26.948937   148     0.1821

  Lengths:   8.510678   8.510678  26.948937
  Angles:   90.000000  90.000000 120.000000

Effective grid spacing dv^(1/3) = 0.1925

     iter     time        total  log10-change:
                         energy  eigst   dens
iter:   1 06:12:38 -5212.711686  -4.09
iter:   2 06:13:22 -5213.128510  -3.34  -3.01
iter:   3 06:14:06 -5212.689638  -3.81  -2.35
iter:   4 06:14:50 -5212.688266  -4.68  -3.71
iter:   5 06:15:34 -5212.687660c -5.33  -3.90
iter:   6 06:16:18 -5212.687697c -5.97  -4.19c
iter:   7 06:17:02 -5212.687683c -6.62  -4.48c
iter:   8 06:17:45 -5212.687757c -6.78  -4.59c
iter:   9 06:18:29 -5212.687669c -7.06  -4.35c
iter:  10 06:19:13 -5212.687671c -7.27  -4.78c
iter:  11 06:19:57 -5212.687641c -7.53c -4.91c

Converged after 11 iterations.

Dipole moment: (-7.823145, -8.481931, -0.063080) |e|*Ang

Energy contributions relative to reference atoms: (reference = -4941217.293967)

Kinetic:       +806.738930
Potential:     -902.699170
External:        +0.000000
XC:            -5105.181449
Entropy (-ST):   -2.363430
Local:          -10.364237
--------------------------
Free energy:   -5213.869356
Extrapolated:  -5212.687641

Showing only first 2 kpts
 Kpt  Band  Eigenvalues  Occupancy
  0   288     -5.50458    1.37370
  0   289     -5.46070    1.17160
  0   290     -5.44870    1.11283
  0   291     -5.43720    1.05575

  1   288     -5.57545    1.63339
  1   289     -5.57038    1.61797
  1   290     -5.54517    1.53397
  1   291     -5.53820    1.50859


Fermi level: -5.42604

No gap

Forces in eV/Ang:
  0 Pd    0.00000   -0.02506   -0.00285
  1 Pd   -0.00136   -0.01156   -0.03185
  2 Pd    0.00000   -0.01006    0.00901
  3 Pd   -0.00189   -0.00779    0.00501
  4 Pd   -0.02101    0.00984   -0.03097
  5 Pd    0.00000    0.02252   -0.05078
  6 Pd   -0.00197    0.00156   -0.00372
  7 Pd   -0.00392   -0.00669    0.01540
  8 Pd   -0.00304    0.00291   -0.03727
  9 Pd   -0.01050   -0.01522    0.06283
 10 Pd    0.00060    0.00122   -0.00588
 11 Pd    0.00000   -0.00370    0.00543
 12 Pd   -0.00151    0.00006   -0.02777
 13 Pd    0.00000    0.02108    0.07142
 14 Pd    0.00029    0.00255   -0.00277
 15 Pd    0.00189   -0.00779    0.00501
 16 Pd    0.02101    0.00984   -0.03097
 17 Pd   -0.01356   -0.01031    0.06164
 18 Pd    0.00197    0.00156   -0.00372
 19 Pd    0.00000    0.04336    0.03274
 20 Pd    0.00000    0.00094   -0.05364
 21 Pd    0.01050   -0.01522    0.06283
 22 Pd    0.00000   -0.00122    0.00579
 23 Pd    0.03795   -0.02857    0.01993
 24 Pd    0.00151    0.00006   -0.02777
 25 Pd    0.00136   -0.01156   -0.03185
 26 Pd   -0.00029    0.00255   -0.00277
 27 Pd    0.00000   -0.00332    0.01180
 28 Pd    0.00000    0.00044   -0.06313
 29 Pd    0.01356   -0.01031    0.06164
 30 Pd    0.00000   -0.00040   -0.02288
 31 Pd    0.00392   -0.00669    0.01540
 32 Pd    0.00304    0.00291   -0.03727
 33 Pd    0.00000    0.03078    0.06424
 34 Pd   -0.00060    0.00122   -0.00588
 35 Pd   -0.03795   -0.02857    0.01993
 36 C     0.00000    0.00901   -0.01997

BFGS:   14 06:20:20    -5212.687641        0.0543
System changes: positions 

Initializing position-dependent things.

Density initialized from wave functions
                                                
                                                
                                                
                                                
                                                
                           C                    
                 Pd     Pd     Pd               
                   Pd     Pd     Pd             
           Pd     Pd     Pd                     
             Pd     PPd    PPd     Pd           
                                                
              PPd    PPd    PPd                 
                                                
                Pd     Pd     Pd                
                  Pd     Pd     Pd              
          Pd     Pd     Pd                      
            Pd     Pd     Pd                    
              Pd     Pd     Pd                  
                                                
                                                
                                                
                                                

Positions:
   0 Pd     0.000000    0.000000    9.999999    ( 0.0000,  0.0000,  0.0000)
   1 Pd     1.418446    0.818940   12.316312    ( 0.0000,  0.0000,  0.0000)
   2 Pd    -0.000000    1.639313   14.598303    ( 0.0000,  0.0000,  0.0000)
   3 Pd     2.840648   -0.003477   16.946311    ( 0.0000,  0.0000,  0.0000)
   4 Pd    -1.418446    2.456821    9.999999    ( 0.0000,  0.0000,  0.0000)
   5 Pd    -0.000000    3.275761   12.316312    ( 0.0000,  0.0000,  0.0000)
   6 Pd    -1.418341    4.098246   14.628114    ( 0.0000,  0.0000,  0.0000)
   7 Pd     1.387442    2.434095   16.929428    ( 0.0000,  0.0000,  0.0000)
   8 Pd    -2.836893    4.913642    9.999999    ( 0.0000,  0.0000,  0.0000)
   9 Pd    -1.418446    5.732582   12.316312    ( 0.0000,  0.0000,  0.0000)
  10 Pd    -2.835552    6.548928   14.626151    ( 0.0000,  0.0000,  0.0000)
  11 Pd    -0.000000    4.915695   16.954187    ( 0.0000,  0.0000,  0.0000)
  12 Pd     2.836893    0.000000    9.999999    ( 0.0000,  0.0000,  0.0000)
  13 Pd     4.255339    0.818940   12.316312    ( 0.0000,  0.0000,  0.0000)
  14 Pd     2.841040    1.637107   14.626337    ( 0.0000,  0.0000,  0.0000)
  15 Pd     5.670029   -0.003477   16.946311    ( 0.0000,  0.0000,  0.0000)
  16 Pd     1.418446    2.456821    9.999999    ( 0.0000,  0.0000,  0.0000)
  17 Pd     2.836893    3.275761   12.316312    ( 0.0000,  0.0000,  0.0000)
  18 Pd     1.418341    4.098246   14.628114    ( 0.0000,  0.0000,  0.0000)
  19 Pd     4.255339    2.391946   17.015728    ( 0.0000,  0.0000,  0.0000)
  20 Pd     0.000000    4.913642    9.999999    ( 0.0000,  0.0000,  0.0000)
  21 Pd     1.418446    5.732582   12.316312    ( 0.0000,  0.0000,  0.0000)
  22 Pd    -0.000000    6.549496   14.619776    ( 0.0000,  0.0000,  0.0000)
  23 Pd     2.781796    4.940039   17.019858    ( 0.0000,  0.0000,  0.0000)
  24 Pd     5.673785    0.000000    9.999999    ( 0.0000,  0.0000,  0.0000)
  25 Pd     7.092231    0.818940   12.316312    ( 0.0000,  0.0000,  0.0000)
  26 Pd     5.669637    1.637107   14.626337    ( 0.0000,  0.0000,  0.0000)
  27 Pd     8.510678    0.027768   16.930752    ( 0.0000,  0.0000,  0.0000)
  28 Pd     4.255339    2.456821    9.999999    ( 0.0000,  0.0000,  0.0000)
  29 Pd     5.673785    3.275761   12.316312    ( 0.0000,  0.0000,  0.0000)
  30 Pd     4.255339    4.095132   14.616876    ( 0.0000,  0.0000,  0.0000)
  31 Pd     7.123235    2.434095   16.929428    ( 0.0000,  0.0000,  0.0000)
  32 Pd     2.836893    4.913642    9.999999    ( 0.0000,  0.0000,  0.0000)
  33 Pd     4.255339    5.732582   12.316312    ( 0.0000,  0.0000,  0.0000)
  34 Pd     2.835552    6.548928   14.626151    ( 0.0000,  0.0000,  0.0000)
  35 Pd     5.728882    4.940039   17.019858    ( 0.0000,  0.0000,  0.0000)
  36 C      4.255339    4.091505   17.834775    ( 0.0000,  0.0000,  0.0000)

Unit cell:
           periodic     x           y           z      points  spacing
  1. axis:    yes    8.510678    0.000000    0.000000    40     0.1843
  2. axis:    yes   -4.255339    7.370463    0.000000    40     0.1843
  3. axis:    no     0.000000    0.000000   26.948937   148     0.1821

  Lengths:   8.510678   8.510678  26.948937
  Angles:   90.000000  90.000000 120.000000

Effective grid spacing dv^(1/3) = 0.1925

     iter     time        total  log10-change:
                         energy  eigst   dens
iter:   1 06:22:02 -5212.692540  -4.13
iter:   2 06:22:46 -5212.741373  -4.16  -3.39
iter:   3 06:23:30 -5212.689265c -4.64  -2.80
iter:   4 06:24:14 -5212.688343c -5.44  -3.88
iter:   5 06:24:59 -5212.688291c -5.94  -4.01c
iter:   6 06:25:43 -5212.688241c -6.51  -4.39c
iter:   7 06:26:27 -5212.688245c -6.93  -4.51c
iter:   8 06:27:11 -5212.688211c -7.02  -4.52c
iter:   9 06:27:55 -5212.688251c -7.08  -4.33c
iter:  10 06:28:39 -5212.688249c -7.37  -4.63c
iter:  11 06:29:24 -5212.688216c -7.48c -4.92c

Converged after 11 iterations.

Dipole moment: (-7.785040, -8.464029, -0.062634) |e|*Ang

Energy contributions relative to reference atoms: (reference = -4941217.293967)

Kinetic:       +806.792618
Potential:     -902.732647
External:        +0.000000
XC:            -5105.199962
Entropy (-ST):   -2.362894
Local:          -10.366778
--------------------------
Free energy:   -5213.869663
Extrapolated:  -5212.688216

Showing only first 2 kpts
 Kpt  Band  Eigenvalues  Occupancy
  0   288     -5.50409    1.37356
  0   289     -5.46026    1.17168
  0   290     -5.44825    1.11288
  0   291     -5.43677    1.05592

  1   288     -5.57494    1.63324
  1   289     -5.56994    1.61802
  1   290     -5.54464    1.53370
  1   291     -5.53774    1.50857


Fermi level: -5.42558

No gap

Forces in eV/Ang:
  0 Pd    0.00000   -0.02471   -0.00364
  1 Pd   -0.00281   -0.01007   -0.03262
  2 Pd    0.00000   -0.00950   -0.00110
  3 Pd    0.00283   -0.00813    0.00159
  4 Pd   -0.02078    0.00967   -0.03175
  5 Pd    0.00000    0.01984   -0.05129
  6 Pd   -0.00985    0.00391    0.00861
  7 Pd    0.00925    0.00017    0.01256
  8 Pd   -0.00294    0.00294   -0.03893
  9 Pd   -0.01068   -0.01510    0.06237
 10 Pd    0.00021   -0.00745    0.00515
 11 Pd    0.00000    0.00017    0.00202
 12 Pd   -0.00144    0.00008   -0.02867
 13 Pd    0.00000    0.02160    0.07163
 14 Pd    0.00670    0.00737    0.00788
 15 Pd   -0.00283   -0.00813    0.00159
 16 Pd    0.02078    0.00967   -0.03175
 17 Pd   -0.01490   -0.01158    0.06093
 18 Pd    0.00985    0.00391    0.00861
 19 Pd    0.00000    0.01535    0.01361
 20 Pd    0.00000    0.00103   -0.05474
 21 Pd    0.01068   -0.01510    0.06237
 22 Pd    0.00000   -0.00034    0.01392
 23 Pd    0.00748   -0.01384    0.00013
 24 Pd    0.00144    0.00008   -0.02867
 25 Pd    0.00281   -0.01007   -0.03262
 26 Pd   -0.00670    0.00737    0.00788
 27 Pd    0.00000   -0.01435    0.00965
 28 Pd    0.00000    0.00028   -0.06460
 29 Pd    0.01490   -0.01158    0.06093
 30 Pd    0.00000   -0.00141   -0.00683
 31 Pd   -0.00925    0.00017    0.01256
 32 Pd    0.00294    0.00294   -0.03893
 33 Pd    0.00000    0.03236    0.06312
 34 Pd   -0.00021   -0.00745    0.00515
 35 Pd   -0.00748   -0.01384    0.00013
 36 C     0.00000    0.00583    0.01504

BFGS:   15 06:29:48    -5212.688216        0.0205
Timing:                                      incl.     excl.
-------------------------------------------------------------------
Density initialized from wave functions:    18.621    18.074   0.1% |
 Symmetrize density:                         0.547     0.547   0.0% |
Forces:                                    372.924   372.924   2.9% ||
Hamiltonian:                                58.346     0.003   0.0% |
 Atomic:                                     0.004     0.004   0.0% |
  XC Correction:                             0.000     0.000   0.0% |
 Calculate atomic Hamiltonians:              0.006     0.006   0.0% |
 Communicate:                                3.327     3.327   0.0% |
 Hartree integrate/restrict:                 0.153     0.153   0.0% |
 Initialize Hamiltonian:                     0.000     0.000   0.0% |
 Poisson:                                    2.802     0.119   0.0% |
  Communicate from 1D:                       0.210     0.210   0.0% |
  Communicate from 2D:                       0.460     0.460   0.0% |
  Communicate to 1D:                         0.127     0.127   0.0% |
  Communicate to 2D:                         0.517     0.517   0.0% |
  FFT 1D:                                    0.707     0.707   0.0% |
  FFT 2D:                                    0.661     0.661   0.0% |
 XC 3D grid:                                51.920    12.203   0.1% |
  VdW-DF integral:                          39.717     2.019   0.0% |
   Convolution:                              3.340     3.340   0.0% |
   FFT:                                      2.392     2.392   0.0% |
   gather:                                  12.054    12.054   0.1% |
   hmm1:                                     0.675     0.675   0.0% |
   hmm2:                                     1.388     1.388   0.0% |
   iFFT:                                     2.255     2.255   0.0% |
   potential:                               10.815     0.264   0.0% |
    collect:                                 0.730     0.730   0.0% |
    p1:                                      6.447     6.447   0.0% |
    p2:                                      2.192     2.192   0.0% |
    sum:                                     1.181     1.181   0.0% |
   splines:                                  4.781     4.781   0.0% |
 vbar:                                       0.131     0.131   0.0% |
LCAO initialization:                        88.075     1.079   0.0% |
 LCAO eigensolver:                          76.038     0.005   0.0% |
  Calculate projections:                     0.000     0.000   0.0% |
  DenseAtomicCorrection:                     0.000     0.000   0.0% |
  Distribute overlap matrix:                74.931    74.931   0.6% |
  Orbital Layouts:                           0.752     0.752   0.0% |
  Potential matrix:                          0.208     0.208   0.0% |
  Sum over cells:                            0.141     0.141   0.0% |
 LCAO to grid:                               8.534     8.534   0.1% |
 Set positions (LCAO WFS):                   2.424     1.637   0.0% |
  Basic WFS set positions:                   0.003     0.003   0.0% |
  Basis functions set positions:             0.000     0.000   0.0% |
  P tci:                                     0.000     0.000   0.0% |
  ST tci:                                    0.642     0.642   0.0% |
  mktci:                                     0.141     0.141   0.0% |
Redistribute:                                0.010     0.010   0.0% |
SCF-cycle:                               11682.085   156.097   1.2% |
 Davidson:                               10573.153  3544.769  27.3% |----------|
  Apply hamiltonian:                       219.359   219.359   1.7% ||
  Subspace diag:                           935.574     0.037   0.0% |
   calc_h_matrix:                          458.023   257.233   2.0% ||
    Apply hamiltonian:                     200.790   200.790   1.5% ||
   diagonalize:                             24.052    24.052   0.2% |
   rotate_psi:                             453.462   453.462   3.5% ||
  calc. matrices:                         4853.518  1716.819  13.2% |----|
   Apply hamiltonian:                     3136.699  3136.699  24.2% |---------|
  diagonalize:                             144.930   144.930   1.1% |
  rotate_psi:                              875.003   875.003   6.7% |--|
 Density:                                   24.930     0.006   0.0% |
  Atomic density matrices:                   1.430     1.430   0.0% |
  Mix:                                       4.201     4.201   0.0% |
  Multipole moments:                         0.110     0.110   0.0% |
  Pseudo density:                           19.182    11.942   0.1% |
   Symmetrize density:                       7.240     7.240   0.1% |
 Hamiltonian:                              820.770     0.035   0.0% |
  Atomic:                                    0.068     0.067   0.0% |
   XC Correction:                            0.001     0.001   0.0% |
  Calculate atomic Hamiltonians:             0.094     0.094   0.0% |
  Communicate:                              49.413    49.413   0.4% |
  Hartree integrate/restrict:                2.348     2.348   0.0% |
  Poisson:                                  43.693     1.775   0.0% |
   Communicate from 1D:                      3.239     3.239   0.0% |
   Communicate from 2D:                      7.293     7.293   0.1% |
   Communicate to 1D:                        1.994     1.994   0.0% |
   Communicate to 2D:                        8.054     8.054   0.1% |
   FFT 1D:                                  10.971    10.971   0.1% |
   FFT 2D:                                  10.367    10.367   0.1% |
  XC 3D grid:                              724.466   191.367   1.5% ||
   VdW-DF integral:                        533.099    31.250   0.2% |
    Convolution:                            51.792    51.792   0.4% |
    FFT:                                    37.120    37.120   0.3% |
    gather:                                179.768   179.768   1.4% ||
    hmm1:                                   10.330    10.330   0.1% |
    hmm2:                                   21.284    21.284   0.2% |
    iFFT:                                   35.190    35.190   0.3% |
    potential:                             166.363     3.890   0.0% |
     collect:                               11.196    11.196   0.1% |
     p1:                                    99.509    99.509   0.8% |
     p2:                                    33.616    33.616   0.3% |
     sum:                                   18.152    18.152   0.1% |
    splines:                                 0.002     0.002   0.0% |
  vbar:                                      0.654     0.654   0.0% |
 Orthonormalize:                           107.134     0.004   0.0% |
  calc_s_matrix:                             7.036     7.036   0.1% |
  inverse-cholesky:                         86.397    86.397   0.7% |
  projections:                               0.001     0.001   0.0% |
  rotate_psi_s:                             13.697    13.697   0.1% |
Set symmetry:                                0.003     0.003   0.0% |
Other:                                     761.056   761.056   5.9% |-|
-------------------------------------------------------------------
Total:                                             12981.121 100.0%

Memory usage: 1.63 GiB
Date: Thu Sep 28 06:29:48 2023
