
  ___ ___ ___ _ _ _  
 |   |   |_  | | | | 
 | | | | | . | | | | 
 |__ |  _|___|_____|  22.8.0
 |___|_|             

User:   s204775@c026.nifl.fysik.dtu.dk
Date:   Thu Sep 28 03:00:15 2023
Arch:   x86_64
Pid:    254738
CWD:    /home/cat/s204775/projects/Bachelor_project/C_missing_features
Python: 3.10.4
gpaw:   /home/modules/software/GPAW/22.8.0-intel-2022a/lib/python3.10/site-packages/gpaw
_gpaw:  /home/modules/software/GPAW/22.8.0-intel-2022a/lib/python3.10/site-packages/
        _gpaw.cpython-310-x86_64-linux-gnu.so
ase:    /home/modules/software/ASE/3.22.1-intel-2022a/lib/python3.10/site-packages/ase (version 3.22.1)
numpy:  /home/modules/software/SciPy-bundle/2022.05-intel-2022a/lib/python3.10/site-packages/numpy (version 1.22.3)
scipy:  /home/modules/software/SciPy-bundle/2022.05-intel-2022a/lib/python3.10/site-packages/scipy (version 1.8.1)
libxc:  5.2.3
units:  Angstrom and eV
cores: 40
OpenMP: False
OMP_NUM_THREADS: 1

Input parameters:
  basis: dzp
  h: 0.18
  kpts: {size: (4, 4, 1)}
  xc: BEEF-vdW

System changes: positions, numbers, cell, pbc, initial_charges, initial_magmoms 

Initialize ...

species:
  Pt:
    name: Platinum
    id: 5ed695806aff0c961dba1a84acd7f4b2
    Z: 78.0
    valence: 16
    core: 62
    charge: 0.0
    file: /home/modules/software/GPAW-setups/0.9.20000/Pt.PBE.gz
    compensation charges: {type: gauss,
                           rc: 0.41,
                           lmax: 2}
    cutoffs: {filter: 2.26,
              core: 2.26}
    valence states:
      #              energy  rcut
      - 6s(1.00)    -5.628   1.307
      - 5p(6.00)   -56.051   1.371
      - 6p(0.00)    -0.845   1.371
      - 5d(9.00)    -6.153   1.307
      -  s          21.583   1.307
      -  d          21.058   1.307
  
    # LCAO basis set for Pt:
    #   Name: dzp
    #   File: /home/modules/software/GPAW-setups/0.9.20000/Pt.dzp.basis.gz
    #   Number of radial functions: 9
    #   Number of spherical harmonics: 27
    #     l=0, rc=8.5938 Bohr: 6s-sz confined orbital
    #     l=1, rc=3.5781 Bohr: 5p-sz confined orbital
    #     l=1, rc=13.6250 Bohr: 6p-sz confined orbital
    #     l=2, rc=6.0938 Bohr: 5d-sz confined orbital
    #     l=0, rc=5.0625 Bohr: 6s-dz split-valence wave
    #     l=1, rc=2.4219 Bohr: 5p-dz split-valence wave
    #     l=1, rc=8.3281 Bohr: 6p-dz split-valence wave
    #     l=2, rc=3.6406 Bohr: 5d-dz split-valence wave
    #     l=1, rc=8.5938 Bohr: p-type Gaussian polarization
    #   Number of RI-basis functions 0

  C:
    name: Carbon
    id: 4aa54d4b901d75f77cc0ea3eec22967b
    Z: 6.0
    valence: 4
    core: 2
    charge: 0.0
    file: /home/modules/software/GPAW-setups/0.9.20000/C.PBE.gz
    compensation charges: {type: gauss,
                           rc: 0.20,
                           lmax: 2}
    cutoffs: {filter: 1.14,
              core: 1.14}
    valence states:
      #              energy  rcut
      - 2s(2.00)   -13.751   0.635
      - 2p(2.00)    -5.284   0.635
      -  s          13.461   0.635
      -  p          21.927   0.635
      -  d           0.000   0.635
  
    # LCAO basis set for C:
    #   Name: dzp
    #   File: /home/modules/software/GPAW-setups/0.9.20000/C.dzp.basis.gz
    #   Number of radial functions: 5
    #   Number of spherical harmonics: 13
    #     l=0, rc=5.5469 Bohr: 2s-sz confined orbital
    #     l=1, rc=6.6719 Bohr: 2p-sz confined orbital
    #     l=0, rc=3.0312 Bohr: 2s-dz split-valence wave
    #     l=1, rc=3.7500 Bohr: 2p-dz split-valence wave
    #     l=2, rc=6.6719 Bohr: d-type Gaussian polarization
    #   Number of RI-basis functions 0

Reference energy: -18014540.687744  # eV

Spin-paired calculation

Convergence criteria:
 Maximum [total energy] change in last 3 cyles: 0.0005 eV / electron
 Maximum integral of absolute [dens]ity change: 0.0001 electrons / valence electron
 Maximum integral of absolute [eigenst]ate change: 4e-08 eV^2 / valence electron
 Maximum number of scf [iter]ations: 333
 (Square brackets indicate name in SCF output, whereas a 'c' in
 the SCF output indicates the quantity has converged.)

Symmetries present (total): 1

  ( 1  0  0)
  ( 0  1  0)
  ( 0  0  1)

16 k-points: 4 x 4 x 1 Monkhorst-Pack grid
8 k-points in the irreducible part of the Brillouin zone
       k-points in crystal coordinates                weights
   0:     0.12500000   -0.37500000    0.00000000          2/16
   1:     0.12500000   -0.12500000    0.00000000          2/16
   2:     0.12500000    0.12500000    0.00000000          2/16
   3:     0.12500000    0.37500000    0.00000000          2/16
   4:     0.37500000   -0.37500000    0.00000000          2/16
   5:     0.37500000   -0.12500000    0.00000000          2/16
   6:     0.37500000    0.12500000    0.00000000          2/16
   7:     0.37500000    0.37500000    0.00000000          2/16

Wave functions: Uniform real-space grid
  Kinetic energy operator: 8*3+1=25 point O(h^6) finite-difference Laplacian
  ScaLapack parameters: grid=1x1, blocksize=None
  Wavefunction extrapolation:
    Improved wavefunction reuse through dual PAW basis 

Occupation numbers: Fermi-Dirac:
  width: 0.1000  # eV
 

Eigensolver
   Davidson(niter=2) 

Densities:
  Coarse grid: 40*40*148 grid
  Fine grid: 80*80*296 grid
  Total Charge: 0.000000 

Density mixing:
  Method: separate
  Backend: pulay
  Linear mixing parameter: 0.05
  old densities: 5
  Damping of long wavelength oscillations: 50 

Hamiltonian:
  XC and Coulomb potentials evaluated on a 80*80*296 grid
  Using the BEEF-vdW Exchange-Correlation functional
  Interpolation: tri-quintic (5. degree polynomial)
  Poisson solver: FastPoissonSolver using
    Stencil: 8*3+1=25 point O(h^6) finite-difference Laplacian
    FFT axes: [0, 1]
    FST axes: [2]
 

XC parameters: BEEF-vdW with 2 nearest neighbor stencil

Memory estimate:
  Process memory now: 215.33 MiB
  Calculator: 598.52 MiB
    Density: 61.09 MiB
      Arrays: 9.35 MiB
      Localized functions: 48.20 MiB
      Mixer: 3.54 MiB
    Hamiltonian: 9.11 MiB
      Arrays: 6.12 MiB
      XC: 0.00 MiB
      Poisson: 0.00 MiB
      vbar: 2.99 MiB
    Wavefunctions: 528.33 MiB
      Arrays psit_nG: 249.22 MiB
      Eigensolver: 271.68 MiB
      Projections: 0.71 MiB
      Projectors: 6.72 MiB

Total number of cores used: 40
Parallelization over k-points: 8
Domain decomposition: 1 x 1 x 5

Number of atoms: 37
Number of atomic orbitals: 985
Number of bands in calculation: 352
Number of valence electrons: 580
Bands to converge: occupied

... initialized

Initializing position-dependent things.

Density initialized from atomic densities
Creating initial wave functions:
  352 bands from LCAO basis set

                                            
                                            
                                            
                                            
                                            
          Pt     Pt C   Pt                  
                                            
           PPt    PPt    PPt                
              Pt     Pt     Pt              
             Pt     Pt     Pt               
              PPt    PPt    PPt             
                                            
                Pt     Pt     Pt            
                  Pt     Pt     Pt          
          Pt     Pt     Pt                  
            Pt     Pt     Pt                
              Pt     Pt     Pt              
                                            
                                            
                                            
                                            

Positions:
   0 Pt     0.000000    0.000000    9.999999    ( 0.0000,  0.0000,  0.0000)
   1 Pt     1.419843    0.819746   12.318592    ( 0.0000,  0.0000,  0.0000)
   2 Pt    -0.000000    1.640639   14.624752    ( 0.0000,  0.0000,  0.0000)
   3 Pt     0.000000    0.000000   16.964617    ( 0.0000,  0.0000,  0.0000)
   4 Pt    -1.419843    2.459239    9.999999    ( 0.0000,  0.0000,  0.0000)
   5 Pt     0.000000    3.278986   12.318592    ( 0.0000,  0.0000,  0.0000)
   6 Pt    -1.421365    4.097854   14.620818    ( 0.0000,  0.0000,  0.0000)
   7 Pt    -1.420304    2.459321   16.958214    ( 0.0000,  0.0000,  0.0000)
   8 Pt    -2.839685    4.918479    9.999999    ( 0.0000,  0.0000,  0.0000)
   9 Pt    -1.419843    5.738225   12.318592    ( 0.0000,  0.0000,  0.0000)
  10 Pt    -2.838693    6.557399   14.624752    ( 0.0000,  0.0000,  0.0000)
  11 Pt    -2.839845    4.918039   16.958214    ( 0.0000,  0.0000,  0.0000)
  12 Pt     2.839685    0.000000    9.999999    ( 0.0000,  0.0000,  0.0000)
  13 Pt     4.259528    0.819746   12.318592    ( 0.0000,  0.0000,  0.0000)
  14 Pt     2.839698    1.639501   14.619309    ( 0.0000,  0.0000,  0.0000)
  15 Pt     2.839987    0.000358   16.958214    ( 0.0000,  0.0000,  0.0000)
  16 Pt     1.419843    2.459239    9.999999    ( 0.0000,  0.0000,  0.0000)
  17 Pt     2.839685    3.278986   12.318592    ( 0.0000,  0.0000,  0.0000)
  18 Pt     1.421365    4.097854   14.620818    ( 0.0000,  0.0000,  0.0000)
  19 Pt     1.420304    2.459321   16.958214    ( 0.0000,  0.0000,  0.0000)
  20 Pt     0.000000    4.918479    9.999999    ( 0.0000,  0.0000,  0.0000)
  21 Pt     1.419843    5.738225   12.318592    ( 0.0000,  0.0000,  0.0000)
  22 Pt    -0.000000    6.559730   14.620818    ( 0.0000,  0.0000,  0.0000)
  23 Pt    -0.000000    4.918479   16.949331    ( 0.0000,  0.0000,  0.0000)
  24 Pt     5.679370    0.000000    9.999999    ( 0.0000,  0.0000,  0.0000)
  25 Pt     7.099213    0.819746   12.318592    ( 0.0000,  0.0000,  0.0000)
  26 Pt     5.679357    1.639501   14.619309    ( 0.0000,  0.0000,  0.0000)
  27 Pt     5.679069    0.000358   16.958214    ( 0.0000,  0.0000,  0.0000)
  28 Pt     4.259528    2.459239    9.999999    ( 0.0000,  0.0000,  0.0000)
  29 Pt     5.679370    3.278986   12.318592    ( 0.0000,  0.0000,  0.0000)
  30 Pt     4.259528    4.098717   14.619309    ( 0.0000,  0.0000,  0.0000)
  31 Pt     4.259528    2.459239   16.950151    ( 0.0000,  0.0000,  0.0000)
  32 Pt     2.839685    4.918479    9.999999    ( 0.0000,  0.0000,  0.0000)
  33 Pt     4.259528    5.738225   12.318592    ( 0.0000,  0.0000,  0.0000)
  34 Pt     2.838693    6.557399   14.624752    ( 0.0000,  0.0000,  0.0000)
  35 Pt     2.839845    4.918039   16.958214    ( 0.0000,  0.0000,  0.0000)
  36 C      1.420304    4.098915   17.778010    ( 0.0000,  0.0000,  0.0000)

Unit cell:
           periodic     x           y           z      points  spacing
  1. axis:    yes    8.519055    0.000000    0.000000    40     0.1844
  2. axis:    yes   -4.259528    7.377718    0.000000    40     0.1844
  3. axis:    no     0.000000    0.000000   26.955778   148     0.1821

  Lengths:   8.519055   8.519055  26.955778
  Angles:   90.000000  90.000000 120.000000

Effective grid spacing dv^(1/3) = 0.1927

     iter     time        total  log10-change:
                         energy  eigst   dens
iter:   1 03:01:55 -11907.036717
iter:   2 03:02:35 -11923.657180  -0.72  -1.37
iter:   3 03:03:15 -11901.746748  -1.42  -1.30
iter:   4 03:03:55 -11896.932672  -1.39  -1.46
iter:   5 03:04:35 -11896.528216  -1.33  -1.60
iter:   6 03:05:15 -11894.902792  -1.93  -1.74
iter:   7 03:05:55 -11894.450496  -1.90  -1.86
iter:   8 03:06:35 -11894.750868  -2.21  -2.08
iter:   9 03:07:15 -11894.572315  -3.11  -2.17
iter:  10 03:07:55 -11894.631787c -3.08  -2.23
iter:  11 03:08:35 -11894.862862  -3.04  -2.26
iter:  12 03:09:16 -11894.498293  -2.38  -2.23
iter:  13 03:09:56 -11894.485023  -3.00  -2.66
iter:  14 03:10:36 -11894.473125c -3.40  -2.77
iter:  15 03:11:16 -11894.475459c -3.62  -2.96
iter:  16 03:11:56 -11894.475240c -4.11  -3.32
iter:  17 03:12:36 -11894.475992c -4.59  -3.39
iter:  18 03:13:16 -11894.474271c -4.99  -3.41
iter:  19 03:13:56 -11894.478379c -4.96  -3.52
iter:  20 03:14:36 -11894.474277c -5.39  -3.34
iter:  21 03:15:16 -11894.474181c -5.88  -3.60
iter:  22 03:15:56 -11894.474282c -6.10  -3.70
iter:  23 03:16:36 -11894.474168c -5.64  -3.78
iter:  24 03:17:16 -11894.474385c -5.80  -3.89
iter:  25 03:17:56 -11894.474306c -6.50  -4.14c
iter:  26 03:18:36 -11894.474468c -6.65  -4.17c
iter:  27 03:19:16 -11894.474399c -6.41  -4.14c
iter:  28 03:19:56 -11894.474384c -6.80  -4.49c
iter:  29 03:20:37 -11894.474434c -7.20  -4.58c
iter:  30 03:21:17 -11894.474365c -7.36  -4.65c
iter:  31 03:21:57 -11894.474415c -7.66c -4.67c

Converged after 31 iterations.

Dipole moment: (-4.241038, -7.304578, 0.010749) |e|*Ang

Energy contributions relative to reference atoms: (reference = -18014540.687744)

Kinetic:       +839.737893
Potential:     -854.761820
External:        +0.000000
XC:            -11858.873345
Entropy (-ST):   -2.215298
Local:          -19.469494
--------------------------
Free energy:   -11895.582065
Extrapolated:  -11894.474415

Showing only first 2 kpts
 Kpt  Band  Eigenvalues  Occupancy
  0   288     -5.85234    1.22085
  0   289     -5.82463    1.08577
  0   290     -5.77831    0.85540
  0   291     -5.76266    0.77981

  1   288     -6.06156    1.85397
  1   289     -5.98374    1.70719
  1   290     -5.95576    1.63014
  1   291     -5.93538    1.56471


Fermi level: -5.80743

No gap

Forces in eV/Ang:
  0 Pt   -0.00767    0.00445   -0.12682
  1 Pt    0.01130    0.02706    0.11448
  2 Pt    0.00716   -0.04870   -0.00147
  3 Pt    0.02913   -0.01657   -0.02399
  4 Pt    0.01119    0.01943   -0.12565
  5 Pt   -0.03301   -0.01804    0.10189
  6 Pt   -0.03232    0.03007   -0.01410
  7 Pt   -0.46021   -0.26139   -0.10220
  8 Pt    0.00065   -0.01826   -0.10237
  9 Pt    0.01297   -0.00749    0.14743
 10 Pt   -0.00571    0.00327    0.00860
 11 Pt    0.00821    0.02005   -0.01267
 12 Pt    0.01614    0.00858   -0.10237
 13 Pt    0.05985    0.01758   -0.03186
 14 Pt   -0.00093   -0.03473   -0.00411
 15 Pt   -0.01345   -0.01698   -0.01273
 16 Pt    0.00931    0.01927   -0.11981
 17 Pt    0.01415   -0.00815    0.05918
 18 Pt    0.00510   -0.00311   -0.72437
 19 Pt    0.00670   -2.87766   -0.35365
 20 Pt    0.01162   -0.00670   -0.08168
 21 Pt   -0.00087    0.03757    0.10196
 22 Pt   -0.04222    0.01298   -0.01419
 23 Pt   -2.44820    1.41247   -0.33364
 24 Pt   -0.01123   -0.01940   -0.12561
 25 Pt   -0.07481    0.04325   -0.02567
 26 Pt   -0.00201    0.00115   -0.02200
 27 Pt   -0.00381    0.52953   -0.10223
 28 Pt   -0.02224    0.01285   -0.09019
 29 Pt    0.01475   -0.06065   -0.03198
 30 Pt    0.02960    0.01814   -0.00408
 31 Pt    0.45765   -0.26433   -0.09894
 32 Pt   -0.01203   -0.01768   -0.11980
 33 Pt   -0.01776   -0.02330    0.11449
 34 Pt    0.04575    0.01818   -0.00153
 35 Pt    2.50454    1.43722   -0.35880
 36 C    -0.07820    0.03715    2.66863

      Step     Time          Energy         fmax
BFGS:    0 03:22:17   -11894.474415        2.9098
System changes: positions 

Initializing position-dependent things.

Density initialized from wave functions
                                            
                                            
                                            
                                            
                                            
                    C                       
          Pt     Pt     Pt                  
            Pt     Pt     Pt                
           Pt Pt  Pt Pt  Pt Pt              
             Pt     Pt     Pt               
                                            
              PPt    PPt    PPt             
                                            
                Pt     Pt     Pt            
                  Pt     Pt     Pt          
          Pt     Pt     Pt                  
            Pt     Pt     Pt                
              Pt     Pt     Pt              
                                            
                                            
                                            
                                            

Positions:
   0 Pt     0.000000    0.000000    9.999999    ( 0.0000,  0.0000,  0.0000)
   1 Pt     1.419843    0.819746   12.318592    ( 0.0000,  0.0000,  0.0000)
   2 Pt     0.000102    1.639943   14.624731    ( 0.0000,  0.0000,  0.0000)
   3 Pt     0.000416   -0.000237   16.964274    ( 0.0000,  0.0000,  0.0000)
   4 Pt    -1.419843    2.459239    9.999999    ( 0.0000,  0.0000,  0.0000)
   5 Pt     0.000000    3.278986   12.318592    ( 0.0000,  0.0000,  0.0000)
   6 Pt    -1.421826    4.098283   14.620617    ( 0.0000,  0.0000,  0.0000)
   7 Pt    -1.426878    2.455587   16.956754    ( 0.0000,  0.0000,  0.0000)
   8 Pt    -2.839685    4.918479    9.999999    ( 0.0000,  0.0000,  0.0000)
   9 Pt    -1.419843    5.738225   12.318592    ( 0.0000,  0.0000,  0.0000)
  10 Pt    -2.838774    6.557446   14.624875    ( 0.0000,  0.0000,  0.0000)
  11 Pt    -2.839728    4.918325   16.958033    ( 0.0000,  0.0000,  0.0000)
  12 Pt     2.839685    0.000000    9.999999    ( 0.0000,  0.0000,  0.0000)
  13 Pt     4.259528    0.819746   12.318592    ( 0.0000,  0.0000,  0.0000)
  14 Pt     2.839685    1.639005   14.619250    ( 0.0000,  0.0000,  0.0000)
  15 Pt     2.839794    0.000116   16.958032    ( 0.0000,  0.0000,  0.0000)
  16 Pt     1.419843    2.459239    9.999999    ( 0.0000,  0.0000,  0.0000)
  17 Pt     2.839685    3.278986   12.318592    ( 0.0000,  0.0000,  0.0000)
  18 Pt     1.421438    4.097809   14.610470    ( 0.0000,  0.0000,  0.0000)
  19 Pt     1.420399    2.418212   16.953162    ( 0.0000,  0.0000,  0.0000)
  20 Pt     0.000000    4.918479    9.999999    ( 0.0000,  0.0000,  0.0000)
  21 Pt     1.419843    5.738225   12.318592    ( 0.0000,  0.0000,  0.0000)
  22 Pt    -0.000603    6.559915   14.620616    ( 0.0000,  0.0000,  0.0000)
  23 Pt    -0.034974    4.938657   16.944564    ( 0.0000,  0.0000,  0.0000)
  24 Pt     5.679370    0.000000    9.999999    ( 0.0000,  0.0000,  0.0000)
  25 Pt     7.099213    0.819746   12.318592    ( 0.0000,  0.0000,  0.0000)
  26 Pt     5.679328    1.639517   14.618994    ( 0.0000,  0.0000,  0.0000)
  27 Pt     5.679015    0.007923   16.956753    ( 0.0000,  0.0000,  0.0000)
  28 Pt     4.259528    2.459239    9.999999    ( 0.0000,  0.0000,  0.0000)
  29 Pt     5.679370    3.278986   12.318592    ( 0.0000,  0.0000,  0.0000)
  30 Pt     4.259951    4.098976   14.619250    ( 0.0000,  0.0000,  0.0000)
  31 Pt     4.266066    2.455463   16.948737    ( 0.0000,  0.0000,  0.0000)
  32 Pt     2.839685    4.918479    9.999999    ( 0.0000,  0.0000,  0.0000)
  33 Pt     4.259528    5.738225   12.318592    ( 0.0000,  0.0000,  0.0000)
  34 Pt     2.839346    6.557659   14.624730    ( 0.0000,  0.0000,  0.0000)
  35 Pt     2.875624    4.938570   16.953088    ( 0.0000,  0.0000,  0.0000)
  36 C      1.419187    4.099445   17.816134    ( 0.0000,  0.0000,  0.0000)

Unit cell:
           periodic     x           y           z      points  spacing
  1. axis:    yes    8.519055    0.000000    0.000000    40     0.1844
  2. axis:    yes   -4.259528    7.377718    0.000000    40     0.1844
  3. axis:    no     0.000000    0.000000   26.955778   148     0.1821

  Lengths:   8.519055   8.519055  26.955778
  Angles:   90.000000  90.000000 120.000000

Effective grid spacing dv^(1/3) = 0.1927

     iter     time        total  log10-change:
                         energy  eigst   dens
iter:   1 03:23:56 -11897.223713  -1.46
iter:   2 03:24:36 -11910.687286  -1.65  -2.05
iter:   3 03:25:17 -11895.157330  -2.07  -1.61
iter:   4 03:25:58 -11895.309857  -2.40  -2.50
iter:   5 03:26:39 -11894.827660  -3.13  -2.31
iter:   6 03:27:20 -11894.814464  -3.79  -2.94
iter:   7 03:28:00 -11894.802946c -4.01  -3.01
iter:   8 03:28:41 -11894.799165c -4.18  -3.13
iter:   9 03:29:22 -11894.797946c -4.18  -3.28
iter:  10 03:30:02 -11894.796171c -4.54  -3.24
iter:  11 03:30:43 -11894.795424c -4.87  -3.51
iter:  12 03:31:24 -11894.795147c -5.22  -3.64
iter:  13 03:32:05 -11894.795600c -5.39  -3.69
iter:  14 03:32:45 -11894.794867c -5.55  -3.70
iter:  15 03:33:26 -11894.795198c -5.81  -3.83
iter:  16 03:34:07 -11894.794912c -5.66  -3.87
iter:  17 03:34:48 -11894.795064c -5.96  -3.84
iter:  18 03:35:28 -11894.795007c -6.03  -3.90
iter:  19 03:36:09 -11894.795022c -6.06  -4.12c
iter:  20 03:36:50 -11894.795169c -6.26  -4.17c
iter:  21 03:37:31 -11894.795092c -7.19  -4.43c
iter:  22 03:38:11 -11894.795149c -7.12  -4.57c
iter:  23 03:38:52 -11894.795109c -6.99  -4.58c
iter:  24 03:39:33 -11894.795112c -7.53c -4.70c

Converged after 24 iterations.

Dipole moment: (-3.721204, -7.595742, -0.006929) |e|*Ang

Energy contributions relative to reference atoms: (reference = -18014540.687744)

Kinetic:       +825.252326
Potential:     -842.404486
External:        +0.000000
XC:            -11857.160382
Entropy (-ST):   -2.226012
Local:          -19.369564
--------------------------
Free energy:   -11895.908118
Extrapolated:  -11894.795112

Showing only first 2 kpts
 Kpt  Band  Eigenvalues  Occupancy
  0   288     -5.86478    1.20968
  0   289     -5.84178    1.09752
  0   290     -5.79993    0.88901
  0   291     -5.77775    0.78127

  1   288     -6.07044    1.84578
  1   289     -5.99613    1.70114
  1   290     -5.97000    1.62850
  1   291     -5.94848    1.55896


Fermi level: -5.82222

No gap

Forces in eV/Ang:
  0 Pt   -0.00782    0.00453   -0.12940
  1 Pt    0.01186    0.02476    0.10831
  2 Pt   -0.01193   -0.03705   -0.04020
  3 Pt    0.00727   -0.00375    0.01522
  4 Pt    0.01116    0.01882   -0.12658
  5 Pt   -0.04117   -0.02318    0.08502
  6 Pt   -0.03300    0.00847   -0.05106
  7 Pt   -0.35947   -0.20059   -0.07579
  8 Pt    0.00086   -0.01781   -0.10446
  9 Pt    0.01096   -0.00632    0.14122
 10 Pt   -0.00444    0.00257   -0.02317
 11 Pt    0.00716   -0.00542    0.02525
 12 Pt    0.01585    0.00818   -0.10447
 13 Pt    0.05591    0.01586   -0.01144
 14 Pt    0.01791   -0.02608   -0.04094
 15 Pt    0.00803   -0.00316    0.02514
 16 Pt    0.00896    0.01842   -0.12331
 17 Pt    0.02262   -0.01304    0.04065
 18 Pt   -0.00198    0.00109   -0.43681
 19 Pt   -0.00213   -1.11637    0.16606
 20 Pt    0.01008   -0.00580   -0.08538
 21 Pt   -0.00050    0.04721    0.08505
 22 Pt   -0.02384    0.02434   -0.05110
 23 Pt   -0.94957    0.54809    0.16832
 24 Pt   -0.01072   -0.01906   -0.12656
 25 Pt   -0.07156    0.04134   -0.00376
 26 Pt   -0.00122    0.00070   -0.05697
 27 Pt   -0.00609    0.41158   -0.07578
 28 Pt   -0.02156    0.01245   -0.08996
 29 Pt    0.01424   -0.05636   -0.01150
 30 Pt    0.03167   -0.00260   -0.04117
 31 Pt    0.34731   -0.20062   -0.06806
 32 Pt   -0.01147   -0.01696   -0.12330
 33 Pt   -0.01548   -0.02263    0.10830
 34 Pt    0.02608    0.02903   -0.04046
 35 Pt    0.96680    0.56051    0.16513
 36 C    -0.02413    0.01229    0.97674

BFGS:    1 03:39:53   -11894.795112        1.1297
System changes: positions 

Initializing position-dependent things.

Density initialized from wave functions
                                            
                                            
                                            
                                            
                                            
                    C                       
          Pt     Pt     Pt                  
            Pt     Pt     Pt                
           Pt     Pt     Pt                 
             PPt    PPt    PPt              
                                            
              PPt    PPt    PPt             
                                            
                Pt     Pt     Pt            
                  Pt     Pt     Pt          
          Pt     Pt     Pt                  
            Pt     Pt     Pt                
              Pt     Pt     Pt              
                                            
                                            
                                            
                                            

Positions:
   0 Pt     0.000000    0.000000    9.999999    ( 0.0000,  0.0000,  0.0000)
   1 Pt     1.419843    0.819746   12.318592    ( 0.0000,  0.0000,  0.0000)
   2 Pt    -0.000172    1.639055   14.623794    ( 0.0000,  0.0000,  0.0000)
   3 Pt     0.000600   -0.000333   16.964616    ( 0.0000,  0.0000,  0.0000)
   4 Pt    -1.419843    2.459239    9.999999    ( 0.0000,  0.0000,  0.0000)
   5 Pt     0.000000    3.278986   12.318592    ( 0.0000,  0.0000,  0.0000)
   6 Pt    -1.422612    4.098496   14.619420    ( 0.0000,  0.0000,  0.0000)
   7 Pt    -1.435489    2.450780   16.954936    ( 0.0000,  0.0000,  0.0000)
   8 Pt    -2.839685    4.918479    9.999999    ( 0.0000,  0.0000,  0.0000)
   9 Pt    -1.419843    5.738225   12.318592    ( 0.0000,  0.0000,  0.0000)
  10 Pt    -2.838881    6.557507   14.624339    ( 0.0000,  0.0000,  0.0000)
  11 Pt    -2.839557    4.918209   16.958615    ( 0.0000,  0.0000,  0.0000)
  12 Pt     2.839685    0.000000    9.999999    ( 0.0000,  0.0000,  0.0000)
  13 Pt     4.259528    0.819746   12.318592    ( 0.0000,  0.0000,  0.0000)
  14 Pt     2.840102    1.638379   14.618294    ( 0.0000,  0.0000,  0.0000)
  15 Pt     2.839975    0.000034   16.958611    ( 0.0000,  0.0000,  0.0000)
  16 Pt     1.419843    2.459239    9.999999    ( 0.0000,  0.0000,  0.0000)
  17 Pt     2.839685    3.278986   12.318592    ( 0.0000,  0.0000,  0.0000)
  18 Pt     1.421394    4.097833   14.599923    ( 0.0000,  0.0000,  0.0000)
  19 Pt     1.420353    2.390735   16.956852    ( 0.0000,  0.0000,  0.0000)
  20 Pt     0.000000    4.918479    9.999999    ( 0.0000,  0.0000,  0.0000)
  21 Pt     1.419843    5.738225   12.318592    ( 0.0000,  0.0000,  0.0000)
  22 Pt    -0.001180    6.560489   14.619418    ( 0.0000,  0.0000,  0.0000)
  23 Pt    -0.058346    4.952147   16.948318    ( 0.0000,  0.0000,  0.0000)
  24 Pt     5.679370    0.000000    9.999999    ( 0.0000,  0.0000,  0.0000)
  25 Pt     7.099213    0.819746   12.318592    ( 0.0000,  0.0000,  0.0000)
  26 Pt     5.679299    1.639534   14.617655    ( 0.0000,  0.0000,  0.0000)
  27 Pt     5.678871    0.017784   16.954935    ( 0.0000,  0.0000,  0.0000)
  28 Pt     4.259528    2.459239    9.999999    ( 0.0000,  0.0000,  0.0000)
  29 Pt     5.679370    3.278986   12.318592    ( 0.0000,  0.0000,  0.0000)
  30 Pt     4.260704    4.098925   14.618289    ( 0.0000,  0.0000,  0.0000)
  31 Pt     4.274392    2.450654   16.947101    ( 0.0000,  0.0000,  0.0000)
  32 Pt     2.839685    4.918479    9.999999    ( 0.0000,  0.0000,  0.0000)
  33 Pt     4.259528    5.738225   12.318592    ( 0.0000,  0.0000,  0.0000)
  34 Pt     2.839977    6.558344   14.623786    ( 0.0000,  0.0000,  0.0000)
  35 Pt     2.899426    4.952362   16.956754    ( 0.0000,  0.0000,  0.0000)
  36 C      1.418584    4.099750   17.840250    ( 0.0000,  0.0000,  0.0000)

Unit cell:
           periodic     x           y           z      points  spacing
  1. axis:    yes    8.519055    0.000000    0.000000    40     0.1844
  2. axis:    yes   -4.259528    7.377718    0.000000    40     0.1844
  3. axis:    no     0.000000    0.000000   26.955778   148     0.1821

  Lengths:   8.519055   8.519055  26.955778
  Angles:   90.000000  90.000000 120.000000

Effective grid spacing dv^(1/3) = 0.1927

     iter     time        total  log10-change:
                         energy  eigst   dens
iter:   1 03:41:30 -11896.084356  -1.82
iter:   2 03:42:11 -11905.280338  -1.87  -2.17
iter:   3 03:42:52 -11895.009055  -2.32  -1.69
iter:   4 03:43:32 -11895.136151  -2.72  -2.69
iter:   5 03:44:13 -11894.887531c -3.45  -2.46
iter:   6 03:44:54 -11894.883152c -4.08  -3.18
iter:   7 03:45:34 -11894.879102c -4.37  -3.25
iter:   8 03:46:15 -11894.878461c -4.52  -3.36
iter:   9 03:46:56 -11894.877057c -4.57  -3.44
iter:  10 03:47:36 -11894.876392c -5.00  -3.43
iter:  11 03:48:17 -11894.876138c -5.25  -3.72
iter:  12 03:48:58 -11894.875968c -5.66  -3.78
iter:  13 03:49:38 -11894.876153c -5.88  -3.88
iter:  14 03:50:19 -11894.875767c -5.83  -3.88
iter:  15 03:51:00 -11894.875972c -6.28  -4.03c
iter:  16 03:51:40 -11894.875731c -6.17  -4.03c
iter:  17 03:52:21 -11894.875798c -6.19  -4.01c
iter:  18 03:53:01 -11894.875802c -6.39  -4.11c
iter:  19 03:53:42 -11894.875785c -6.59  -4.44c
iter:  20 03:54:23 -11894.875845c -6.83  -4.40c
iter:  21 03:55:03 -11894.875812c -7.70c -4.71c

Converged after 21 iterations.

Dipole moment: (-3.029235, -7.982187, -0.017697) |e|*Ang

Energy contributions relative to reference atoms: (reference = -18014540.687744)

Kinetic:       +819.756055
Potential:     -837.868711
External:        +0.000000
XC:            -11856.305466
Entropy (-ST):   -2.232598
Local:          -19.341390
--------------------------
Free energy:   -11895.992111
Extrapolated:  -11894.875812

Showing only first 2 kpts
 Kpt  Band  Eigenvalues  Occupancy
  0   288     -5.87078    1.20363
  0   289     -5.85034    1.10397
  0   290     -5.81121    0.90894
  0   291     -5.78460    0.77933

  1   288     -6.07375    1.84005
  1   289     -6.00059    1.69398
  1   290     -5.97590    1.62436
  1   291     -5.95250    1.54774


Fermi level: -5.82947

No gap

Forces in eV/Ang:
  0 Pt   -0.00817    0.00473   -0.12350
  1 Pt    0.01231    0.02216    0.09649
  2 Pt   -0.01063   -0.01750   -0.03764
  3 Pt   -0.00526    0.00347    0.02480
  4 Pt    0.01222    0.01898   -0.11781
  5 Pt   -0.05125   -0.02966    0.06027
  6 Pt   -0.01631    0.00003   -0.04514
  7 Pt   -0.24632   -0.13286   -0.06616
  8 Pt    0.00097   -0.01771   -0.09819
  9 Pt    0.00838   -0.00483    0.12876
 10 Pt   -0.00309    0.00178   -0.02797
 11 Pt    0.00619   -0.01832    0.03341
 12 Pt    0.01582    0.00803   -0.09820
 13 Pt    0.05314    0.01462   -0.01043
 14 Pt    0.01637   -0.00901   -0.03469
 15 Pt    0.01873    0.00412    0.03330
 16 Pt    0.00876    0.01829   -0.12025
 17 Pt    0.03289   -0.01899    0.01528
 18 Pt   -0.01086    0.00626   -0.19126
 19 Pt   -0.00550   -0.19747    0.35770
 20 Pt    0.00941   -0.00542   -0.08274
 21 Pt    0.00007    0.05917    0.06027
 22 Pt   -0.00818    0.01411   -0.04516
 23 Pt   -0.17924    0.10357    0.36735
 24 Pt   -0.01033   -0.02006   -0.11780
 25 Pt   -0.06914    0.03995   -0.00178
 26 Pt   -0.00095    0.00054   -0.08569
 27 Pt   -0.00815    0.27963   -0.06614
 28 Pt   -0.02219    0.01281   -0.08068
 29 Pt    0.01393   -0.05334   -0.01048
 30 Pt    0.01612   -0.00979   -0.03491
 31 Pt    0.22527   -0.13012   -0.04817
 32 Pt   -0.01146   -0.01671   -0.12024
 33 Pt   -0.01300   -0.02172    0.09647
 34 Pt    0.00981    0.01813   -0.03790
 35 Pt    0.16773    0.10326    0.35768
 36 C     0.01138   -0.00547    0.14643

BFGS:    2 03:55:24   -11894.875812        0.4217
System changes: positions 

Initializing position-dependent things.

Density initialized from wave functions
                                            
                                            
                                            
                                            
                                            
                    C                       
          Pt     Pt     Pt                  
            Pt     Pt     Pt                
           Pt     Pt     Pt                 
             PPt    PPt    PPt              
                                            
              PPt    PPt    PPt             
                                            
                Pt     Pt     Pt            
                  Pt     Pt     Pt          
          Pt     Pt     Pt                  
            Pt     Pt     Pt                
              Pt     Pt     Pt              
                                            
                                            
                                            
                                            

Positions:
   0 Pt     0.000000    0.000000    9.999999    ( 0.0000,  0.0000,  0.0000)
   1 Pt     1.419843    0.819746   12.318592    ( 0.0000,  0.0000,  0.0000)
   2 Pt    -0.000422    1.638535   14.622901    ( 0.0000,  0.0000,  0.0000)
   3 Pt     0.000546   -0.000291   16.965143    ( 0.0000,  0.0000,  0.0000)
   4 Pt    -1.419843    2.459239    9.999999    ( 0.0000,  0.0000,  0.0000)
   5 Pt     0.000000    3.278986   12.318592    ( 0.0000,  0.0000,  0.0000)
   6 Pt    -1.423082    4.098549   14.618330    ( 0.0000,  0.0000,  0.0000)
   7 Pt    -1.442001    2.447232   16.953285    ( 0.0000,  0.0000,  0.0000)
   8 Pt    -2.839685    4.918479    9.999999    ( 0.0000,  0.0000,  0.0000)
   9 Pt    -1.419843    5.738225   12.318592    ( 0.0000,  0.0000,  0.0000)
  10 Pt    -2.838962    6.557554   14.623709    ( 0.0000,  0.0000,  0.0000)
  11 Pt    -2.839403    4.917845   16.959356    ( 0.0000,  0.0000,  0.0000)
  12 Pt     2.839685    0.000000    9.999999    ( 0.0000,  0.0000,  0.0000)
  13 Pt     4.259528    0.819746   12.318592    ( 0.0000,  0.0000,  0.0000)
  14 Pt     2.840491    1.638077   14.617453    ( 0.0000,  0.0000,  0.0000)
  15 Pt     2.840361    0.000090   16.959350    ( 0.0000,  0.0000,  0.0000)
  16 Pt     1.419843    2.459239    9.999999    ( 0.0000,  0.0000,  0.0000)
  17 Pt     2.839685    3.278986   12.318592    ( 0.0000,  0.0000,  0.0000)
  18 Pt     1.421179    4.097956   14.593997    ( 0.0000,  0.0000,  0.0000)
  19 Pt     1.420242    2.380599   16.964229    ( 0.0000,  0.0000,  0.0000)
  20 Pt     0.000000    4.918479    9.999999    ( 0.0000,  0.0000,  0.0000)
  21 Pt     1.419843    5.738225   12.318592    ( 0.0000,  0.0000,  0.0000)
  22 Pt    -0.001462    6.560869   14.618327    ( 0.0000,  0.0000,  0.0000)
  23 Pt    -0.067186    4.957251   16.955903    ( 0.0000,  0.0000,  0.0000)
  24 Pt     5.679370    0.000000    9.999999    ( 0.0000,  0.0000,  0.0000)
  25 Pt     7.099213    0.819746   12.318592    ( 0.0000,  0.0000,  0.0000)
  26 Pt     5.679274    1.639548   14.615753    ( 0.0000,  0.0000,  0.0000)
  27 Pt     5.678686    0.025195   16.953285    ( 0.0000,  0.0000,  0.0000)
  28 Pt     4.259528    2.459239    9.999999    ( 0.0000,  0.0000,  0.0000)
  29 Pt     5.679370    3.278986   12.318592    ( 0.0000,  0.0000,  0.0000)
  30 Pt     4.261163    4.098736   14.617443    ( 0.0000,  0.0000,  0.0000)
  31 Pt     4.280446    2.447157   16.945831    ( 0.0000,  0.0000,  0.0000)
  32 Pt     2.839685    4.918479    9.999999    ( 0.0000,  0.0000,  0.0000)
  33 Pt     4.259528    5.738225   12.318592    ( 0.0000,  0.0000,  0.0000)
  34 Pt     2.840302    6.558825   14.622887    ( 0.0000,  0.0000,  0.0000)
  35 Pt     2.908148    4.957526   16.964124    ( 0.0000,  0.0000,  0.0000)
  36 C      1.418658    4.099718   17.848700    ( 0.0000,  0.0000,  0.0000)

Unit cell:
           periodic     x           y           z      points  spacing
  1. axis:    yes    8.519055    0.000000    0.000000    40     0.1844
  2. axis:    yes   -4.259528    7.377718    0.000000    40     0.1844
  3. axis:    no     0.000000    0.000000   26.955778   148     0.1821

  Lengths:   8.519055   8.519055  26.955778
  Angles:   90.000000  90.000000 120.000000

Effective grid spacing dv^(1/3) = 0.1927

     iter     time        total  log10-change:
                         energy  eigst   dens
iter:   1 03:57:02 -11895.184107  -2.51
iter:   2 03:57:42 -11898.520196  -2.39  -2.44
iter:   3 03:58:23 -11894.910843  -2.86  -1.88
iter:   4 03:59:04 -11894.909963  -3.52  -3.05
iter:   5 03:59:44 -11894.895336c -4.28  -3.03
iter:   6 04:00:25 -11894.894147c -4.70  -3.48
iter:   7 04:01:06 -11894.893401c -4.99  -3.64
iter:   8 04:01:47 -11894.892836c -5.00  -3.77
iter:   9 04:02:27 -11894.893433c -5.67  -3.73
iter:  10 04:03:08 -11894.892754c -6.03  -3.80
iter:  11 04:03:49 -11894.892734c -6.21  -4.05c
iter:  12 04:04:30 -11894.892694c -6.42  -4.15c
iter:  13 04:05:11 -11894.892651c -6.71  -4.15c
iter:  14 04:05:51 -11894.892637c -6.72  -4.27c
iter:  15 04:06:32 -11894.892424c -6.57  -4.34c
iter:  16 04:07:13 -11894.892577c -7.10  -4.05c
iter:  17 04:07:54 -11894.892550c -7.13  -4.60c
iter:  18 04:08:34 -11894.892553c -7.44c -4.83c

Converged after 18 iterations.

Dipole moment: (-2.491382, -8.282087, -0.021700) |e|*Ang

Energy contributions relative to reference atoms: (reference = -18014540.687744)

Kinetic:       +817.852713
Potential:     -836.287858
External:        +0.000000
XC:            -11856.007633
Entropy (-ST):   -2.234430
Local:          -19.332561
--------------------------
Free energy:   -11896.009769
Extrapolated:  -11894.892553

Showing only first 2 kpts
 Kpt  Band  Eigenvalues  Occupancy
  0   288     -5.87366    1.20378
  0   289     -5.85342    1.10505
  0   290     -5.81442    0.91067
  0   291     -5.78710    0.77764

  1   288     -6.07588    1.83899
  1   289     -6.00207    1.69040
  1   290     -5.97801    1.62207
  1   291     -5.95272    1.53842


Fermi level: -5.83233

No gap

Forces in eV/Ang:
  0 Pt   -0.00844    0.00489   -0.12355
  1 Pt    0.01271    0.02158    0.09165
  2 Pt    0.00136   -0.00486   -0.02030
  3 Pt   -0.00728    0.00455    0.02890
  4 Pt    0.01287    0.01919   -0.11529
  5 Pt   -0.05654   -0.03319    0.04637
  6 Pt    0.00005    0.00414   -0.02508
  7 Pt   -0.17276   -0.08908   -0.05476
  8 Pt    0.00109   -0.01776   -0.09804
  9 Pt    0.00744   -0.00429    0.12315
 10 Pt   -0.00226    0.00129   -0.02242
 11 Pt    0.00468   -0.01822    0.03689
 12 Pt    0.01592    0.00795   -0.09805
 13 Pt    0.05038    0.01331   -0.01561
 14 Pt    0.00366    0.00252   -0.01517
 15 Pt    0.01794    0.00533    0.03682
 16 Pt    0.00868    0.01778   -0.12043
 17 Pt    0.03813   -0.02202    0.00201
 18 Pt   -0.01498    0.00865   -0.07367
 19 Pt   -0.00768    0.06412    0.36741
 20 Pt    0.00871   -0.00501   -0.08340
 21 Pt    0.00047    0.06551    0.04635
 22 Pt   -0.00356   -0.00211   -0.02509
 23 Pt    0.03419   -0.01963    0.39009
 24 Pt   -0.01018   -0.02073   -0.11528
 25 Pt   -0.06655    0.03847   -0.00682
 26 Pt   -0.00130    0.00074   -0.10100
 27 Pt   -0.00925    0.19404   -0.05475
 28 Pt   -0.02266    0.01308   -0.07802
 29 Pt    0.01370   -0.05030   -0.01567
 30 Pt   -0.00025   -0.00452   -0.01532
 31 Pt    0.14811   -0.08555   -0.02637
 32 Pt   -0.01106   -0.01639   -0.12043
 33 Pt   -0.01229   -0.02177    0.09161
 34 Pt    0.00489    0.00139   -0.02049
 35 Pt   -0.05970   -0.02556    0.36736
 36 C     0.01810   -0.00947   -0.05667

BFGS:    3 04:08:54   -11894.892553        0.3921
System changes: positions 

Initializing position-dependent things.

Density initialized from wave functions
                                            
                                            
                                            
                                            
                                            
                    C                       
          Pt     Pt     Pt                  
            Pt     Pt     Pt                
           Pt     Pt     Pt                 
             PPt    PPt    PPt              
                                            
              PPt    PPt    PPt             
                                            
                Pt     Pt     Pt            
                  Pt     Pt     Pt          
          Pt     Pt     Pt                  
            Pt     Pt     Pt                
              Pt     Pt     Pt              
                                            
                                            
                                            
                                            

Positions:
   0 Pt     0.000000    0.000000    9.999999    ( 0.0000,  0.0000,  0.0000)
   1 Pt     1.419843    0.819746   12.318592    ( 0.0000,  0.0000,  0.0000)
   2 Pt    -0.000549    1.637986   14.621735    ( 0.0000,  0.0000,  0.0000)
   3 Pt     0.000350   -0.000161   16.966265    ( 0.0000,  0.0000,  0.0000)
   4 Pt    -1.419843    2.459239    9.999999    ( 0.0000,  0.0000,  0.0000)
   5 Pt     0.000000    3.278986   12.318592    ( 0.0000,  0.0000,  0.0000)
   6 Pt    -1.423446    4.098735   14.616885    ( 0.0000,  0.0000,  0.0000)
   7 Pt    -1.451652    2.442096   16.950578    ( 0.0000,  0.0000,  0.0000)
   8 Pt    -2.839685    4.918479    9.999999    ( 0.0000,  0.0000,  0.0000)
   9 Pt    -1.419843    5.738225   12.318592    ( 0.0000,  0.0000,  0.0000)
  10 Pt    -2.839086    6.557625   14.622680    ( 0.0000,  0.0000,  0.0000)
  11 Pt    -2.839163    4.917132   16.960853    ( 0.0000,  0.0000,  0.0000)
  12 Pt     2.839685    0.000000    9.999999    ( 0.0000,  0.0000,  0.0000)
  13 Pt     4.259528    0.819746   12.318592    ( 0.0000,  0.0000,  0.0000)
  14 Pt     2.840855    1.637892   14.616456    ( 0.0000,  0.0000,  0.0000)
  15 Pt     2.841090    0.000251   16.960843    ( 0.0000,  0.0000,  0.0000)
  16 Pt     1.419843    2.459239    9.999999    ( 0.0000,  0.0000,  0.0000)
  17 Pt     2.839685    3.278986   12.318592    ( 0.0000,  0.0000,  0.0000)
  18 Pt     1.420639    4.098268   14.587079    ( 0.0000,  0.0000,  0.0000)
  19 Pt     1.419965    2.372078   16.978786    ( 0.0000,  0.0000,  0.0000)
  20 Pt     0.000000    4.918479    9.999999    ( 0.0000,  0.0000,  0.0000)
  21 Pt     1.419843    5.738225   12.318592    ( 0.0000,  0.0000,  0.0000)
  22 Pt    -0.001804    6.561091   14.616882    ( 0.0000,  0.0000,  0.0000)
  23 Pt    -0.075124    4.961836   16.971228    ( 0.0000,  0.0000,  0.0000)
  24 Pt     5.679370    0.000000    9.999999    ( 0.0000,  0.0000,  0.0000)
  25 Pt     7.099213    0.819746   12.318592    ( 0.0000,  0.0000,  0.0000)
  26 Pt     5.679220    1.639579   14.611715    ( 0.0000,  0.0000,  0.0000)
  27 Pt     5.678307    0.036117   16.950578    ( 0.0000,  0.0000,  0.0000)
  28 Pt     4.259528    2.459239    9.999999    ( 0.0000,  0.0000,  0.0000)
  29 Pt     5.679370    3.278986   12.318592    ( 0.0000,  0.0000,  0.0000)
  30 Pt     4.261510    4.098509   14.616438    ( 0.0000,  0.0000,  0.0000)
  31 Pt     4.289121    2.442146   16.944151    ( 0.0000,  0.0000,  0.0000)
  32 Pt     2.839685    4.918479    9.999999    ( 0.0000,  0.0000,  0.0000)
  33 Pt     4.259528    5.738225   12.318592    ( 0.0000,  0.0000,  0.0000)
  34 Pt     2.840713    6.559216   14.621712    ( 0.0000,  0.0000,  0.0000)
  35 Pt     2.915388    4.962026   16.978670    ( 0.0000,  0.0000,  0.0000)
  36 C      1.419095    4.099489   17.856006    ( 0.0000,  0.0000,  0.0000)

Unit cell:
           periodic     x           y           z      points  spacing
  1. axis:    yes    8.519055    0.000000    0.000000    40     0.1844
  2. axis:    yes   -4.259528    7.377718    0.000000    40     0.1844
  3. axis:    no     0.000000    0.000000   26.955778   148     0.1821

  Lengths:   8.519055   8.519055  26.955778
  Angles:   90.000000  90.000000 120.000000

Effective grid spacing dv^(1/3) = 0.1927

     iter     time        total  log10-change:
                         energy  eigst   dens
iter:   1 04:10:32 -11895.269143  -2.31
iter:   2 04:11:13 -11899.508448  -2.26  -2.38
iter:   3 04:11:54 -11894.947328  -2.78  -1.83
iter:   4 04:12:35 -11894.917140  -3.46  -2.83
iter:   5 04:13:16 -11894.911187c -4.19  -3.11
iter:   6 04:13:57 -11894.909574c -4.43  -3.35
iter:   7 04:14:37 -11894.908931c -4.69  -3.53
iter:   8 04:15:18 -11894.908234c -5.11  -3.63
iter:   9 04:15:59 -11894.908361c -5.54  -3.62
iter:  10 04:16:40 -11894.907924c -5.98  -3.80
iter:  11 04:17:21 -11894.907756c -6.16  -3.95
iter:  12 04:18:02 -11894.907633c -6.02  -4.05c
iter:  13 04:18:43 -11894.907554c -6.36  -4.12c
iter:  14 04:19:24 -11894.907803c -6.61  -4.12c
iter:  15 04:20:05 -11894.907549c -7.08  -4.11c
iter:  16 04:20:46 -11894.907692c -6.58  -4.26c
iter:  17 04:21:26 -11894.907695c -6.86  -4.41c
iter:  18 04:22:07 -11894.907651c -7.07  -4.42c
iter:  19 04:22:48 -11894.907624c -7.24  -4.64c
iter:  20 04:23:29 -11894.907566c -7.38  -4.78c
iter:  21 04:24:10 -11894.907636c -8.05c -4.84c

Converged after 21 iterations.

Dipole moment: (-1.673876, -8.735225, -0.023193) |e|*Ang

Energy contributions relative to reference atoms: (reference = -18014540.687744)

Kinetic:       +816.250243
Potential:     -834.958779
External:        +0.000000
XC:            -11855.753398
Entropy (-ST):   -2.235151
Local:          -19.328127
--------------------------
Free energy:   -11896.025211
Extrapolated:  -11894.907636

Showing only first 2 kpts
 Kpt  Band  Eigenvalues  Occupancy
  0   288     -5.87558    1.20786
  0   289     -5.85430    1.10418
  0   290     -5.81423    0.90450
  0   291     -5.78766    0.77522

  1   288     -6.07763    1.84000
  1   289     -6.00176    1.68679
  1   290     -5.97824    1.61953
  1   291     -5.94957    1.52332


Fermi level: -5.83339

No gap

Forces in eV/Ang:
  0 Pt   -0.00908    0.00526   -0.12536
  1 Pt    0.01334    0.02118    0.08255
  2 Pt    0.02351    0.01546    0.01672
  3 Pt   -0.00579    0.00354    0.01749
  4 Pt    0.01460    0.02005   -0.11366
  5 Pt   -0.06448   -0.03865    0.02562
  6 Pt    0.02742    0.01366    0.01568
  7 Pt   -0.06348   -0.02356   -0.04853
  8 Pt    0.00129   -0.01835   -0.09966
  9 Pt    0.00628   -0.00362    0.11277
 10 Pt   -0.00102    0.00056   -0.00760
 11 Pt    0.00113   -0.01172    0.02482
 12 Pt    0.01654    0.00808   -0.09967
 13 Pt    0.04598    0.01115   -0.03148
 14 Pt   -0.02012    0.02128    0.02388
 15 Pt    0.01062    0.00505    0.02479
 16 Pt    0.00874    0.01725   -0.12333
 17 Pt    0.04580   -0.02645   -0.01689
 18 Pt   -0.01793    0.01036    0.06837
 19 Pt   -0.01223    0.24168    0.29568
 20 Pt    0.00804   -0.00462   -0.08699
 21 Pt    0.00122    0.07511    0.02558
 22 Pt    0.00187   -0.03056    0.01567
 23 Pt    0.18824   -0.10856    0.32971
 24 Pt   -0.01007   -0.02266   -0.11365
 25 Pt   -0.06228    0.03602   -0.02309
 26 Pt   -0.00201    0.00115   -0.11519
 27 Pt   -0.01133    0.06667   -0.04855
 28 Pt   -0.02417    0.01396   -0.07646
 29 Pt    0.01339   -0.04543   -0.03156
 30 Pt   -0.02843    0.00676    0.02384
 31 Pt    0.03750   -0.02165   -0.01112
 32 Pt   -0.01057   -0.01618   -0.12333
 33 Pt   -0.01162   -0.02212    0.08249
 34 Pt   -0.00159   -0.02801    0.01664
 35 Pt   -0.21536   -0.11012    0.29561
 36 C     0.00888   -0.00437   -0.18427

BFGS:    4 04:24:31   -11894.907636        0.3949
System changes: positions 

Initializing position-dependent things.

Density initialized from wave functions
                                            
                                            
                                            
                                            
                                            
                    C                       
          Pt     Pt     Pt                  
            Pt     Pt     Pt                
           Pt     Pt     Pt                 
             PPt    PPt    PPt              
                                            
              PPt    PPt    PPt             
                                            
                Pt     Pt     Pt            
                  Pt     Pt     Pt          
          Pt     Pt     Pt                  
            Pt     Pt     Pt                
              Pt     Pt     Pt              
                                            
                                            
                                            
                                            

Positions:
   0 Pt     0.000000    0.000000    9.999999    ( 0.0000,  0.0000,  0.0000)
   1 Pt     1.419843    0.819746   12.318592    ( 0.0000,  0.0000,  0.0000)
   2 Pt    -0.000152    1.637929   14.621328    ( 0.0000,  0.0000,  0.0000)
   3 Pt     0.000120   -0.000014   16.967300    ( 0.0000,  0.0000,  0.0000)
   4 Pt    -1.419843    2.459239    9.999999    ( 0.0000,  0.0000,  0.0000)
   5 Pt     0.000000    3.278986   12.318592    ( 0.0000,  0.0000,  0.0000)
   6 Pt    -1.423136    4.099143   14.616270    ( 0.0000,  0.0000,  0.0000)
   7 Pt    -1.459375    2.438188   16.947769    ( 0.0000,  0.0000,  0.0000)
   8 Pt    -2.839685    4.918479    9.999999    ( 0.0000,  0.0000,  0.0000)
   9 Pt    -1.419843    5.738225   12.318592    ( 0.0000,  0.0000,  0.0000)
  10 Pt    -2.839188    6.557683   14.621868    ( 0.0000,  0.0000,  0.0000)
  11 Pt    -2.838984    4.916447   16.962284    ( 0.0000,  0.0000,  0.0000)
  12 Pt     2.839685    0.000000    9.999999    ( 0.0000,  0.0000,  0.0000)
  13 Pt     4.259528    0.819746   12.318592    ( 0.0000,  0.0000,  0.0000)
  14 Pt     2.840682    1.638193   14.616300    ( 0.0000,  0.0000,  0.0000)
  15 Pt     2.841765    0.000451   16.962271    ( 0.0000,  0.0000,  0.0000)
  16 Pt     1.419843    2.459239    9.999999    ( 0.0000,  0.0000,  0.0000)
  17 Pt     2.839685    3.278986   12.318592    ( 0.0000,  0.0000,  0.0000)
  18 Pt     1.419933    4.098675   14.583664    ( 0.0000,  0.0000,  0.0000)
  19 Pt     1.419537    2.370203   16.994006    ( 0.0000,  0.0000,  0.0000)
  20 Pt     0.000000    4.918479    9.999999    ( 0.0000,  0.0000,  0.0000)
  21 Pt     1.419843    5.738225   12.318592    ( 0.0000,  0.0000,  0.0000)
  22 Pt    -0.002003    6.560620   14.616266    ( 0.0000,  0.0000,  0.0000)
  23 Pt    -0.077476    4.963198   16.987615    ( 0.0000,  0.0000,  0.0000)
  24 Pt     5.679370    0.000000    9.999999    ( 0.0000,  0.0000,  0.0000)
  25 Pt     7.099213    0.819746   12.318592    ( 0.0000,  0.0000,  0.0000)
  26 Pt     5.679143    1.639622   14.606768    ( 0.0000,  0.0000,  0.0000)
  27 Pt     5.677828    0.044755   16.947769    ( 0.0000,  0.0000,  0.0000)
  28 Pt     4.259528    2.459239    9.999999    ( 0.0000,  0.0000,  0.0000)
  29 Pt     5.679370    3.278986   12.318592    ( 0.0000,  0.0000,  0.0000)
  30 Pt     4.261167    4.098505   14.616277    ( 0.0000,  0.0000,  0.0000)
  31 Pt     4.295691    2.438351   16.942748    ( 0.0000,  0.0000,  0.0000)
  32 Pt     2.839685    4.918479    9.999999    ( 0.0000,  0.0000,  0.0000)
  33 Pt     4.259528    5.738225   12.318592    ( 0.0000,  0.0000,  0.0000)
  34 Pt     2.840962    6.558907   14.621297    ( 0.0000,  0.0000,  0.0000)
  35 Pt     2.916800    4.963339   16.993880    ( 0.0000,  0.0000,  0.0000)
  36 C      1.419497    4.099286   17.858086    ( 0.0000,  0.0000,  0.0000)

Unit cell:
           periodic     x           y           z      points  spacing
  1. axis:    yes    8.519055    0.000000    0.000000    40     0.1844
  2. axis:    yes   -4.259528    7.377718    0.000000    40     0.1844
  3. axis:    no     0.000000    0.000000   26.955778   148     0.1821

  Lengths:   8.519055   8.519055  26.955778
  Angles:   90.000000  90.000000 120.000000

Effective grid spacing dv^(1/3) = 0.1927

     iter     time        total  log10-change:
                         energy  eigst   dens
iter:   1 04:26:08 -11894.970232  -2.49
iter:   2 04:26:49 -11894.939586  -3.38  -2.84
iter:   3 04:27:30 -11894.999069c -3.85  -2.96
iter:   4 04:28:11 -11894.926454c -4.17  -2.68
iter:   5 04:28:52 -11894.920612c -4.79  -3.12
iter:   6 04:29:33 -11894.919953c -4.81  -3.52
iter:   7 04:30:14 -11894.919832c -5.21  -3.64
iter:   8 04:30:55 -11894.919504c -5.76  -3.70
iter:   9 04:31:36 -11894.919077c -5.49  -3.81
iter:  10 04:32:17 -11894.919935c -5.96  -3.90
iter:  11 04:32:58 -11894.918987c -6.12  -3.74
iter:  12 04:33:38 -11894.919083c -6.83  -4.21c
iter:  13 04:34:19 -11894.919125c -6.74  -4.28c
iter:  14 04:35:00 -11894.919087c -6.50  -4.27c
iter:  15 04:35:41 -11894.919052c -7.03  -4.49c
iter:  16 04:36:22 -11894.918970c -7.22  -4.58c
iter:  17 04:37:03 -11894.919069c -7.71c -4.54c

Converged after 17 iterations.

Dipole moment: (-0.991434, -9.113109, -0.023740) |e|*Ang

Energy contributions relative to reference atoms: (reference = -18014540.687744)

Kinetic:       +815.612535
Potential:     -834.418012
External:        +0.000000
XC:            -11855.666512
Entropy (-ST):   -2.233997
Local:          -19.330081
--------------------------
Free energy:   -11896.036067
Extrapolated:  -11894.919069

Showing only first 2 kpts
 Kpt  Band  Eigenvalues  Occupancy
  0   288     -5.87697    1.21409
  0   289     -5.85378    1.10119
  0   290     -5.81174    0.89175
  0   291     -5.78731    0.77319

  1   288     -6.07963    1.84280
  1   289     -6.00132    1.68541
  1   290     -5.97816    1.61904
  1   291     -5.94935    1.52220


Fermi level: -5.83347

No gap

Forces in eV/Ang:
  0 Pt   -0.01026    0.00594   -0.12547
  1 Pt    0.01402    0.02117    0.08041
  2 Pt    0.03887    0.02545    0.04721
  3 Pt   -0.00212    0.00131    0.01193
  4 Pt    0.01586    0.02077   -0.11191
  5 Pt   -0.06878   -0.04189    0.01583
  6 Pt    0.04176    0.02291    0.04894
  7 Pt    0.02224    0.02572   -0.02850
  8 Pt    0.00146   -0.01963   -0.09973
  9 Pt    0.00547   -0.00316    0.10948
 10 Pt    0.00026   -0.00018    0.00481
 11 Pt   -0.00258   -0.00246    0.01855
 12 Pt    0.01773    0.00856   -0.09974
 13 Pt    0.03804    0.00696   -0.04377
 14 Pt   -0.03750    0.02977    0.05395
 15 Pt    0.00081    0.00355    0.01856
 16 Pt    0.00884    0.01693   -0.12447
 17 Pt    0.04962   -0.02867   -0.02393
 18 Pt   -0.01575    0.00911    0.14844
 19 Pt   -0.00709    0.21395    0.19348
 20 Pt    0.00770   -0.00443   -0.08868
 21 Pt    0.00187    0.08044    0.01578
 22 Pt    0.00101   -0.04759    0.04893
 23 Pt    0.17754   -0.10240    0.21549
 24 Pt   -0.01006   -0.02411   -0.11191
 25 Pt   -0.05446    0.03153   -0.03629
 26 Pt   -0.00239    0.00137   -0.11327
 27 Pt   -0.01113   -0.03217   -0.02853
 28 Pt   -0.02534    0.01463   -0.07489
 29 Pt    0.01307   -0.03646   -0.04386
 30 Pt   -0.04452    0.01761    0.05401
 31 Pt   -0.04687    0.02709    0.00742
 32 Pt   -0.01024   -0.01611   -0.12447
 33 Pt   -0.01127   -0.02270    0.08034
 34 Pt   -0.00254   -0.04635    0.04720
 35 Pt   -0.18842   -0.10044    0.19325
 36 C    -0.00055    0.00072   -0.13708

BFGS:    5 04:37:23   -11894.919069        0.2974
System changes: positions 

Initializing position-dependent things.

Density initialized from wave functions
                                            
                                            
                                            
                                            
                                            
                    C                       
          Pt     Pt     Pt                  
            Pt     Pt     Pt                
           Pt     Pt     Pt                 
             PPt    PPt    PPt              
                                            
              PPt    PPt    PPt             
                                            
                Pt     Pt     Pt            
                  Pt     Pt     Pt          
          Pt     Pt     Pt                  
            Pt     Pt     Pt                
              Pt     Pt     Pt              
                                            
                                            
                                            
                                            

Positions:
   0 Pt     0.000000    0.000000    9.999999    ( 0.0000,  0.0000,  0.0000)
   1 Pt     1.419843    0.819746   12.318592    ( 0.0000,  0.0000,  0.0000)
   2 Pt     0.001009    1.638414   14.622052    ( 0.0000,  0.0000,  0.0000)
   3 Pt    -0.000097    0.000126   16.968392    ( 0.0000,  0.0000,  0.0000)
   4 Pt    -1.419843    2.459239    9.999999    ( 0.0000,  0.0000,  0.0000)
   5 Pt     0.000000    3.278986   12.318592    ( 0.0000,  0.0000,  0.0000)
   6 Pt    -1.422005    4.099981   14.616863    ( 0.0000,  0.0000,  0.0000)
   7 Pt    -1.465096    2.435602   16.944945    ( 0.0000,  0.0000,  0.0000)
   8 Pt    -2.839685    4.918479    9.999999    ( 0.0000,  0.0000,  0.0000)
   9 Pt    -1.419843    5.738225   12.318592    ( 0.0000,  0.0000,  0.0000)
  10 Pt    -2.839264    6.557725   14.621327    ( 0.0000,  0.0000,  0.0000)
  11 Pt    -2.838902    4.915864   16.963840    ( 0.0000,  0.0000,  0.0000)
  12 Pt     2.839685    0.000000    9.999999    ( 0.0000,  0.0000,  0.0000)
  13 Pt     4.259528    0.819746   12.318592    ( 0.0000,  0.0000,  0.0000)
  14 Pt     2.839727    1.639060   14.617362    ( 0.0000,  0.0000,  0.0000)
  15 Pt     2.842304    0.000682   16.963825    ( 0.0000,  0.0000,  0.0000)
  16 Pt     1.419843    2.459239    9.999999    ( 0.0000,  0.0000,  0.0000)
  17 Pt     2.839685    3.278986   12.318592    ( 0.0000,  0.0000,  0.0000)
  18 Pt     1.419044    4.099188   14.584016    ( 0.0000,  0.0000,  0.0000)
  19 Pt     1.419082    2.372488   17.010235    ( 0.0000,  0.0000,  0.0000)
  20 Pt     0.000000    4.918479    9.999999    ( 0.0000,  0.0000,  0.0000)
  21 Pt     1.419843    5.738225   12.318592    ( 0.0000,  0.0000,  0.0000)
  22 Pt    -0.002165    6.559222   14.616858    ( 0.0000,  0.0000,  0.0000)
  23 Pt    -0.076164    4.962446   17.005142    ( 0.0000,  0.0000,  0.0000)
  24 Pt     5.679370    0.000000    9.999999    ( 0.0000,  0.0000,  0.0000)
  25 Pt     7.099213    0.819746   12.318592    ( 0.0000,  0.0000,  0.0000)
  26 Pt     5.679030    1.639687   14.600371    ( 0.0000,  0.0000,  0.0000)
  27 Pt     5.677207    0.050998   16.944944    ( 0.0000,  0.0000,  0.0000)
  28 Pt     4.259528    2.459239    9.999999    ( 0.0000,  0.0000,  0.0000)
  29 Pt     5.679370    3.278986   12.318592    ( 0.0000,  0.0000,  0.0000)
  30 Pt     4.259943    4.098896   14.617335    ( 0.0000,  0.0000,  0.0000)
  31 Pt     4.299956    2.435888   16.941791    ( 0.0000,  0.0000,  0.0000)
  32 Pt     2.839685    4.918479    9.999999    ( 0.0000,  0.0000,  0.0000)
  33 Pt     4.259528    5.738225   12.318592    ( 0.0000,  0.0000,  0.0000)
  34 Pt     2.841124    6.557665   14.622014    ( 0.0000,  0.0000,  0.0000)
  35 Pt     2.914605    4.962602   17.010096    ( 0.0000,  0.0000,  0.0000)
  36 C      1.419789    4.099150   17.857514    ( 0.0000,  0.0000,  0.0000)

Unit cell:
           periodic     x           y           z      points  spacing
  1. axis:    yes    8.519055    0.000000    0.000000    40     0.1844
  2. axis:    yes   -4.259528    7.377718    0.000000    40     0.1844
  3. axis:    no     0.000000    0.000000   26.955778   148     0.1821

  Lengths:   8.519055   8.519055  26.955778
  Angles:   90.000000  90.000000 120.000000

Effective grid spacing dv^(1/3) = 0.1927

     iter     time        total  log10-change:
                         energy  eigst   dens
iter:   1 04:39:00 -11895.047417  -2.47
iter:   2 04:39:41 -11896.075240  -2.74  -2.62
iter:   3 04:40:22 -11894.995517  -3.11  -2.13
iter:   4 04:41:03 -11894.933117  -4.05  -2.76
iter:   5 04:41:44 -11894.929663c -4.39  -3.30
iter:   6 04:42:24 -11894.929328c -4.80  -3.45
iter:   7 04:43:05 -11894.928751c -5.32  -3.67
iter:   8 04:43:46 -11894.928947c -5.71  -3.76
iter:   9 04:44:27 -11894.928372c -5.54  -3.76
iter:  10 04:45:08 -11894.928302c -6.03  -4.08c
iter:  11 04:45:48 -11894.928078c -6.27  -4.12c
iter:  12 04:46:29 -11894.928149c -6.80  -4.11c
iter:  13 04:47:10 -11894.928174c -6.65  -4.40c
iter:  14 04:47:51 -11894.928145c -6.83  -4.55c
iter:  15 04:48:31 -11894.928216c -7.28  -4.58c
iter:  16 04:49:12 -11894.928209c -7.59c -4.78c

Converged after 16 iterations.

Dipole moment: (-0.440319, -9.421171, -0.022242) |e|*Ang

Energy contributions relative to reference atoms: (reference = -18014540.687744)

Kinetic:       +815.629279
Potential:     -834.423980
External:        +0.000000
XC:            -11855.681049
Entropy (-ST):   -2.231550
Local:          -19.336684
--------------------------
Free energy:   -11896.043983
Extrapolated:  -11894.928209

Showing only first 2 kpts
 Kpt  Band  Eigenvalues  Occupancy
  0   288     -5.87628    1.22040
  0   289     -5.85081    1.09645
  0   290     -5.80636    0.87516
  0   291     -5.78484    0.77103

  1   288     -6.08003    1.84627
  1   289     -5.99937    1.68557
  1   290     -5.97649    1.62009
  1   291     -5.94788    1.52419


Fermi level: -5.83146

No gap

Forces in eV/Ang:
  0 Pt   -0.01163    0.00673   -0.12379
  1 Pt    0.01474    0.02315    0.08267
  2 Pt    0.04358    0.02916    0.07483
  3 Pt    0.00368   -0.00210   -0.00402
  4 Pt    0.01675    0.02127   -0.10938
  5 Pt   -0.06948   -0.04271    0.01600
  6 Pt    0.04409    0.02651    0.07652
  7 Pt    0.07827    0.05695   -0.02205
  8 Pt    0.00161   -0.02120   -0.09798
  9 Pt    0.00657   -0.00379    0.11092
 10 Pt    0.00104   -0.00063    0.02281
 11 Pt   -0.00542    0.00957    0.00289
 12 Pt    0.01916    0.00922   -0.09799
 13 Pt    0.02834    0.00182   -0.05515
 14 Pt   -0.04478    0.03138    0.07706
 15 Pt   -0.01099   -0.00005    0.00292
 16 Pt    0.00894    0.01616   -0.12300
 17 Pt    0.04957   -0.02864   -0.02063
 18 Pt   -0.00998    0.00579    0.18087
 19 Pt    0.00301    0.06516    0.07745
 20 Pt    0.00710   -0.00408   -0.08778
 21 Pt    0.00222    0.08146    0.01594
 22 Pt   -0.00094   -0.05140    0.07651
 23 Pt    0.07092   -0.04089    0.08487
 24 Pt   -0.01005   -0.02514   -0.10938
 25 Pt   -0.04504    0.02611   -0.04924
 26 Pt   -0.00146    0.00083   -0.07834
 27 Pt   -0.01015   -0.09627   -0.02209
 28 Pt   -0.02624    0.01515   -0.07254
 29 Pt    0.01267   -0.02550   -0.05526
 30 Pt   -0.04956    0.02313    0.07715
 31 Pt   -0.09830    0.05679    0.00773
 32 Pt   -0.00953   -0.01581   -0.12300
 33 Pt   -0.01262   -0.02432    0.08259
 34 Pt   -0.00339   -0.05231    0.07487
 35 Pt   -0.05424   -0.03463    0.07699
 36 C    -0.00521    0.00331    0.03463

BFGS:    6 04:49:33   -11894.928209        0.1812
System changes: positions 

Initializing position-dependent things.

Density initialized from wave functions
                                            
                                            
                                            
                                            
                                            
                    C                       
          Pt     Pt     Pt                  
            Pt     Pt     Pt                
           Pt     Pt     Pt                 
             PPt    PPt    PPt              
                                            
              PPt    PPt    PPt             
                                            
                Pt     Pt     Pt            
                  Pt     Pt     Pt          
          Pt     Pt     Pt                  
            Pt     Pt     Pt                
              Pt     Pt     Pt              
                                            
                                            
                                            
                                            

Positions:
   0 Pt     0.000000    0.000000    9.999999    ( 0.0000,  0.0000,  0.0000)
   1 Pt     1.419843    0.819746   12.318592    ( 0.0000,  0.0000,  0.0000)
   2 Pt     0.002327    1.639172   14.623783    ( 0.0000,  0.0000,  0.0000)
   3 Pt    -0.000125    0.000149   16.968787    ( 0.0000,  0.0000,  0.0000)
   4 Pt    -1.419843    2.459239    9.999999    ( 0.0000,  0.0000,  0.0000)
   5 Pt     0.000000    3.278986   12.318592    ( 0.0000,  0.0000,  0.0000)
   6 Pt    -1.420691    4.100842   14.618562    ( 0.0000,  0.0000,  0.0000)
   7 Pt    -1.466215    2.435498   16.943235    ( 0.0000,  0.0000,  0.0000)
   8 Pt    -2.839685    4.918479    9.999999    ( 0.0000,  0.0000,  0.0000)
   9 Pt    -1.419843    5.738225   12.318592    ( 0.0000,  0.0000,  0.0000)
  10 Pt    -2.839278    6.557732   14.621525    ( 0.0000,  0.0000,  0.0000)
  11 Pt    -2.838966    4.915786   16.964576    ( 0.0000,  0.0000,  0.0000)
  12 Pt     2.839685    0.000000    9.999999    ( 0.0000,  0.0000,  0.0000)
  13 Pt     4.259528    0.819746   12.318592    ( 0.0000,  0.0000,  0.0000)
  14 Pt     2.838478    1.640030   14.619278    ( 0.0000,  0.0000,  0.0000)
  15 Pt     2.842336    0.000783   16.964560    ( 0.0000,  0.0000,  0.0000)
  16 Pt     1.419843    2.459239    9.999999    ( 0.0000,  0.0000,  0.0000)
  17 Pt     2.839685    3.278986   12.318592    ( 0.0000,  0.0000,  0.0000)
  18 Pt     1.418464    4.099524   14.587565    ( 0.0000,  0.0000,  0.0000)
  19 Pt     1.418948    2.374797   17.019033    ( 0.0000,  0.0000,  0.0000)
  20 Pt     0.000000    4.918479    9.999999    ( 0.0000,  0.0000,  0.0000)
  21 Pt     1.419843    5.738225   12.318592    ( 0.0000,  0.0000,  0.0000)
  22 Pt    -0.002254    6.557655   14.618556    ( 0.0000,  0.0000,  0.0000)
  23 Pt    -0.074171    4.961298   17.014648    ( 0.0000,  0.0000,  0.0000)
  24 Pt     5.679370    0.000000    9.999999    ( 0.0000,  0.0000,  0.0000)
  25 Pt     7.099213    0.819746   12.318592    ( 0.0000,  0.0000,  0.0000)
  26 Pt     5.678955    1.639730   14.596090    ( 0.0000,  0.0000,  0.0000)
  27 Pt     5.676738    0.052017   16.943234    ( 0.0000,  0.0000,  0.0000)
  28 Pt     4.259528    2.459239    9.999999    ( 0.0000,  0.0000,  0.0000)
  29 Pt     5.679370    3.278986   12.318592    ( 0.0000,  0.0000,  0.0000)
  30 Pt     4.258480    4.099493   14.619252    ( 0.0000,  0.0000,  0.0000)
  31 Pt     4.300049    2.435835   16.941471    ( 0.0000,  0.0000,  0.0000)
  32 Pt     2.839685    4.918479    9.999999    ( 0.0000,  0.0000,  0.0000)
  33 Pt     4.259528    5.738225   12.318592    ( 0.0000,  0.0000,  0.0000)
  34 Pt     2.841128    6.556147   14.623743    ( 0.0000,  0.0000,  0.0000)
  35 Pt     2.912556    4.961578   17.018879    ( 0.0000,  0.0000,  0.0000)
  36 C      1.419848    4.099139   17.857890    ( 0.0000,  0.0000,  0.0000)

Unit cell:
           periodic     x           y           z      points  spacing
  1. axis:    yes    8.519055    0.000000    0.000000    40     0.1844
  2. axis:    yes   -4.259528    7.377718    0.000000    40     0.1844
  3. axis:    no     0.000000    0.000000   26.955778   148     0.1821

  Lengths:   8.519055   8.519055  26.955778
  Angles:   90.000000  90.000000 120.000000

Effective grid spacing dv^(1/3) = 0.1927

     iter     time        total  log10-change:
                         energy  eigst   dens
iter:   1 04:51:11 -11894.979396  -2.92
iter:   2 04:51:53 -11895.355890  -3.16  -2.84
iter:   3 04:52:34 -11894.965306  -3.51  -2.34
iter:   4 04:53:15 -11894.934385  -4.45  -2.90
iter:   5 04:53:56 -11894.932947c -4.73  -3.56
iter:   6 04:54:37 -11894.933107c -5.44  -3.74
iter:   7 04:55:19 -11894.932918c -5.89  -3.95
iter:   8 04:56:00 -11894.933007c -6.26  -3.99
iter:   9 04:56:41 -11894.932613c -6.09  -3.99
iter:  10 04:57:22 -11894.932886c -6.54  -4.29c
iter:  11 04:58:03 -11894.932605c -6.71  -4.10c
iter:  12 04:58:44 -11894.932607c -7.12  -4.55c
iter:  13 04:59:26 -11894.932646c -7.66c -4.63c

Converged after 13 iterations.

Dipole moment: (-0.281104, -9.516016, -0.020736) |e|*Ang

Energy contributions relative to reference atoms: (reference = -18014540.687744)

Kinetic:       +815.191429
Potential:     -834.006989
External:        +0.000000
XC:            -11855.661872
Entropy (-ST):   -2.229799
Local:          -19.340314
--------------------------
Free energy:   -11896.047545
Extrapolated:  -11894.932646

Showing only first 2 kpts
 Kpt  Band  Eigenvalues  Occupancy
  0   288     -5.87588    1.22323
  0   289     -5.84943    1.09449
  0   290     -5.80348    0.86585
  0   291     -5.78348    0.76924

  1   288     -6.08024    1.84796
  1   289     -5.99901    1.68722
  1   290     -5.97566    1.62057
  1   291     -5.94698    1.52449


Fermi level: -5.83047

No gap

Forces in eV/Ang:
  0 Pt   -0.01291    0.00747   -0.12329
  1 Pt    0.01517    0.02446    0.09467
  2 Pt    0.03942    0.02492    0.07377
  3 Pt    0.00529   -0.00301   -0.01194
  4 Pt    0.01723    0.02161   -0.11095
  5 Pt   -0.06561   -0.04131    0.03117
  6 Pt    0.03432    0.02614    0.07484
  7 Pt    0.08333    0.05691   -0.01966
  8 Pt    0.00162   -0.02284   -0.09759
  9 Pt    0.00668   -0.00385    0.12198
 10 Pt    0.00175   -0.00102    0.02468
 11 Pt   -0.00486    0.01628   -0.00666
 12 Pt    0.02059    0.01004   -0.09760
 13 Pt    0.01545   -0.00533   -0.05082
 14 Pt   -0.04258    0.02512    0.07018
 15 Pt   -0.01652   -0.00388   -0.00663
 16 Pt    0.00914    0.01587   -0.12395
 17 Pt    0.04509   -0.02606   -0.00291
 18 Pt   -0.00320    0.00187    0.16198
 19 Pt    0.00606   -0.04613    0.01794
 20 Pt    0.00699   -0.00402   -0.08886
 21 Pt    0.00294    0.07740    0.03111
 22 Pt   -0.00550   -0.04276    0.07483
 23 Pt   -0.02201    0.01272    0.02018
 24 Pt   -0.01010   -0.02573   -0.11095
 25 Pt   -0.03244    0.01884   -0.04598
 26 Pt   -0.00114    0.00066   -0.04472
 27 Pt   -0.00760   -0.10058   -0.01970
 28 Pt   -0.02683    0.01549   -0.07458
 29 Pt    0.01243   -0.01076   -0.05092
 30 Pt   -0.04304    0.02434    0.07025
 31 Pt   -0.09842    0.05686    0.00256
 32 Pt   -0.00918   -0.01583   -0.12395
 33 Pt   -0.01353   -0.02535    0.09458
 34 Pt   -0.00180   -0.04657    0.07379
 35 Pt    0.04375    0.01832    0.01732
 36 C    -0.00491    0.00313    0.14690

BFGS:    7 04:59:45   -11894.932646        0.1620
System changes: positions 

Initializing position-dependent things.

Density initialized from wave functions
                                            
                                            
                                            
                                            
                                            
                    C                       
          Pt     Pt     Pt                  
            Pt     Pt     Pt                
           Pt     Pt     Pt                 
             PPt    PPt    PPt              
                                            
              PPt    PPt    PPt             
                                            
                Pt     Pt     Pt            
                  Pt     Pt     Pt          
          Pt     Pt     Pt                  
            Pt     Pt     Pt                
              Pt     Pt     Pt              
                                            
                                            
                                            
                                            

Positions:
   0 Pt     0.000000    0.000000    9.999999    ( 0.0000,  0.0000,  0.0000)
   1 Pt     1.419843    0.819746   12.318592    ( 0.0000,  0.0000,  0.0000)
   2 Pt     0.004301    1.640352   14.626808    ( 0.0000,  0.0000,  0.0000)
   3 Pt    -0.000049    0.000112   16.968894    ( 0.0000,  0.0000,  0.0000)
   4 Pt    -1.419843    2.459239    9.999999    ( 0.0000,  0.0000,  0.0000)
   5 Pt     0.000000    3.278986   12.318592    ( 0.0000,  0.0000,  0.0000)
   6 Pt    -1.418839    4.102145   14.621577    ( 0.0000,  0.0000,  0.0000)
   7 Pt    -1.465562    2.436536   16.941282    ( 0.0000,  0.0000,  0.0000)
   8 Pt    -2.839685    4.918479    9.999999    ( 0.0000,  0.0000,  0.0000)
   9 Pt    -1.419843    5.738225   12.318592    ( 0.0000,  0.0000,  0.0000)
  10 Pt    -2.839254    6.557717   14.622186    ( 0.0000,  0.0000,  0.0000)
  11 Pt    -2.839116    4.916054   16.965091    ( 0.0000,  0.0000,  0.0000)
  12 Pt     2.839685    0.000000    9.999999    ( 0.0000,  0.0000,  0.0000)
  13 Pt     4.259528    0.819746   12.318592    ( 0.0000,  0.0000,  0.0000)
  14 Pt     2.836496    1.641398   14.622379    ( 0.0000,  0.0000,  0.0000)
  15 Pt     2.842027    0.000786   16.965075    ( 0.0000,  0.0000,  0.0000)
  16 Pt     1.419843    2.459239    9.999999    ( 0.0000,  0.0000,  0.0000)
  17 Pt     2.839685    3.278986   12.318592    ( 0.0000,  0.0000,  0.0000)
  18 Pt     1.417890    4.099856   14.594038    ( 0.0000,  0.0000,  0.0000)
  19 Pt     1.418942    2.376054   17.027378    ( 0.0000,  0.0000,  0.0000)
  20 Pt     0.000000    4.918479    9.999999    ( 0.0000,  0.0000,  0.0000)
  21 Pt     1.419843    5.738225   12.318592    ( 0.0000,  0.0000,  0.0000)
  22 Pt    -0.002458    6.555401   14.621572    ( 0.0000,  0.0000,  0.0000)
  23 Pt    -0.072760    4.960487   17.023696    ( 0.0000,  0.0000,  0.0000)
  24 Pt     5.679370    0.000000    9.999999    ( 0.0000,  0.0000,  0.0000)
  25 Pt     7.099213    0.819746   12.318592    ( 0.0000,  0.0000,  0.0000)
  26 Pt     5.678863    1.639782   14.591381    ( 0.0000,  0.0000,  0.0000)
  27 Pt     5.676167    0.050932   16.941279    ( 0.0000,  0.0000,  0.0000)
  28 Pt     4.259528    2.459239    9.999999    ( 0.0000,  0.0000,  0.0000)
  29 Pt     5.679370    3.278986   12.318592    ( 0.0000,  0.0000,  0.0000)
  30 Pt     4.256306    4.100525   14.622354    ( 0.0000,  0.0000,  0.0000)
  31 Pt     4.298169    2.436921   16.941215    ( 0.0000,  0.0000,  0.0000)
  32 Pt     2.839685    4.918479    9.999999    ( 0.0000,  0.0000,  0.0000)
  33 Pt     4.259528    5.738225   12.318592    ( 0.0000,  0.0000,  0.0000)
  34 Pt     2.841097    6.553850   14.626766    ( 0.0000,  0.0000,  0.0000)
  35 Pt     2.911494    4.960978   17.027198    ( 0.0000,  0.0000,  0.0000)
  36 C      1.419821    4.099182   17.861135    ( 0.0000,  0.0000,  0.0000)

Unit cell:
           periodic     x           y           z      points  spacing
  1. axis:    yes    8.519055    0.000000    0.000000    40     0.1844
  2. axis:    yes   -4.259528    7.377718    0.000000    40     0.1844
  3. axis:    no     0.000000    0.000000   26.955778   148     0.1821

  Lengths:   8.519055   8.519055  26.955778
  Angles:   90.000000  90.000000 120.000000

Effective grid spacing dv^(1/3) = 0.1927

     iter     time        total  log10-change:
                         energy  eigst   dens
iter:   1 05:01:23 -11895.026731  -2.84
iter:   2 05:02:04 -11895.955332  -2.82  -2.69
iter:   3 05:02:45 -11894.966435  -3.25  -2.15
iter:   4 05:03:25 -11894.938951  -4.16  -2.97
iter:   5 05:04:06 -11894.938215c -4.56  -3.56
iter:   6 05:04:47 -11894.937884c -5.48  -3.52
iter:   7 05:05:28 -11894.937583c -5.91  -3.86
iter:   8 05:06:08 -11894.937665c -5.98  -3.92
iter:   9 05:06:49 -11894.937554c -5.84  -4.00
iter:  10 05:07:30 -11894.937343c -6.38  -4.14c
iter:  11 05:08:10 -11894.937473c -7.03  -4.31c
iter:  12 05:08:51 -11894.937363c -7.06  -4.23c
iter:  13 05:09:32 -11894.937340c -7.04  -4.51c
iter:  14 05:10:12 -11894.937383c -7.33  -4.73c
iter:  15 05:10:53 -11894.937354c -7.59c -4.84c

Converged after 15 iterations.

Dipole moment: (-0.252286, -9.543476, -0.020008) |e|*Ang

Energy contributions relative to reference atoms: (reference = -18014540.687744)

Kinetic:       +814.885965
Potential:     -833.742228
External:        +0.000000
XC:            -11855.620900
Entropy (-ST):   -2.228392
Local:          -19.345994
--------------------------
Free energy:   -11896.051550
Extrapolated:  -11894.937354

Showing only first 2 kpts
 Kpt  Band  Eigenvalues  Occupancy
  0   288     -5.87621    1.22479
  0   289     -5.84920    1.09339
  0   290     -5.80193    0.85828
  0   291     -5.78300    0.76704

  1   288     -6.08066    1.84856
  1   289     -6.00003    1.68993
  1   290     -5.97573    1.62081
  1   291     -5.94677    1.52375


Fermi level: -5.83047

No gap

Forces in eV/Ang:
  0 Pt   -0.01450    0.00839   -0.12166
  1 Pt    0.01506    0.02757    0.10184
  2 Pt    0.02230    0.01796    0.06294
  3 Pt    0.00450   -0.00248   -0.00358
  4 Pt    0.01678    0.02130   -0.11145
  5 Pt   -0.06134   -0.03815    0.04706
  6 Pt    0.01733    0.01650    0.06177
  7 Pt    0.06317    0.04458   -0.01015
  8 Pt    0.00160   -0.02482   -0.09607
  9 Pt    0.00969   -0.00560    0.12967
 10 Pt    0.00091   -0.00052    0.02102
 11 Pt   -0.00426    0.01628    0.00212
 12 Pt    0.02230    0.01104   -0.09608
 13 Pt    0.00828   -0.00947   -0.05079
 14 Pt   -0.02914    0.01528    0.05373
 15 Pt   -0.01624   -0.00434    0.00214
 16 Pt    0.00923    0.01589   -0.12329
 17 Pt    0.03982   -0.02301    0.01317
 18 Pt    0.00367   -0.00210    0.13339
 19 Pt    0.00603   -0.09859    0.00900
 20 Pt    0.00730   -0.00420   -0.08820
 21 Pt    0.00234    0.07213    0.04700
 22 Pt   -0.00564   -0.02323    0.06175
 23 Pt   -0.07428    0.04292    0.00505
 24 Pt   -0.01006   -0.02518   -0.11145
 25 Pt   -0.02523    0.01467   -0.04682
 26 Pt   -0.00054    0.00032    0.00121
 27 Pt   -0.00700   -0.07693   -0.01019
 28 Pt   -0.02640    0.01524   -0.07522
 29 Pt    0.01243   -0.00248   -0.05088
 30 Pt   -0.02776    0.01761    0.05373
 31 Pt   -0.07542    0.04357    0.00406
 32 Pt   -0.00915   -0.01593   -0.12329
 33 Pt   -0.01628   -0.02681    0.10175
 34 Pt   -0.00435   -0.02825    0.06292
 35 Pt    0.08903    0.04446    0.00837
 36 C    -0.00325    0.00226    0.20984

BFGS:    8 05:11:13   -11894.937354        0.2099
System changes: positions 

Initializing position-dependent things.

Density initialized from wave functions
                                            
                                            
                                            
                                            
                                            
                    C                       
          Pt     Pt     Pt                  
            Pt     Pt     Pt                
           Pt     Pt     Pt                 
             PPt    PPt    PPt              
                                            
              PPt    PPt    PPt             
                                            
                Pt     Pt     Pt            
                  Pt     Pt     Pt          
          Pt     Pt     Pt                  
            Pt     Pt     Pt                
              Pt     Pt     Pt              
                                            
                                            
                                            
                                            

Positions:
   0 Pt     0.000000    0.000000    9.999999    ( 0.0000,  0.0000,  0.0000)
   1 Pt     1.419843    0.819746   12.318592    ( 0.0000,  0.0000,  0.0000)
   2 Pt     0.010528    1.644170   14.637061    ( 0.0000,  0.0000,  0.0000)
   3 Pt     0.000198    0.000000   16.969719    ( 0.0000,  0.0000,  0.0000)
   4 Pt    -1.419843    2.459239    9.999999    ( 0.0000,  0.0000,  0.0000)
   5 Pt     0.000000    3.278986   12.318592    ( 0.0000,  0.0000,  0.0000)
   6 Pt    -1.413095    4.106372   14.631663    ( 0.0000,  0.0000,  0.0000)
   7 Pt    -1.464932    2.439253   16.934572    ( 0.0000,  0.0000,  0.0000)
   8 Pt    -2.839685    4.918479    9.999999    ( 0.0000,  0.0000,  0.0000)
   9 Pt    -1.419843    5.738225   12.318592    ( 0.0000,  0.0000,  0.0000)
  10 Pt    -2.839214    6.557690   14.624333    ( 0.0000,  0.0000,  0.0000)
  11 Pt    -2.839609    4.917006   16.967424    ( 0.0000,  0.0000,  0.0000)
  12 Pt     2.839685    0.000000    9.999999    ( 0.0000,  0.0000,  0.0000)
  13 Pt     4.259528    0.819746   12.318592    ( 0.0000,  0.0000,  0.0000)
  14 Pt     2.830074    1.645775   14.632624    ( 0.0000,  0.0000,  0.0000)
  15 Pt     2.840945    0.000765   16.967407    ( 0.0000,  0.0000,  0.0000)
  16 Pt     1.419843    2.459239    9.999999    ( 0.0000,  0.0000,  0.0000)
  17 Pt     2.839685    3.278986   12.318592    ( 0.0000,  0.0000,  0.0000)
  18 Pt     1.416160    4.100858   14.615036    ( 0.0000,  0.0000,  0.0000)
  19 Pt     1.418922    2.375872   17.057323    ( 0.0000,  0.0000,  0.0000)
  20 Pt     0.000000    4.918479    9.999999    ( 0.0000,  0.0000,  0.0000)
  21 Pt     1.419843    5.738225   12.318592    ( 0.0000,  0.0000,  0.0000)
  22 Pt    -0.003250    6.548318   14.631655    ( 0.0000,  0.0000,  0.0000)
  23 Pt    -0.072067    4.960100   17.055871    ( 0.0000,  0.0000,  0.0000)
  24 Pt     5.679370    0.000000    9.999999    ( 0.0000,  0.0000,  0.0000)
  25 Pt     7.099213    0.819746   12.318592    ( 0.0000,  0.0000,  0.0000)
  26 Pt     5.678562    1.639955   14.576607    ( 0.0000,  0.0000,  0.0000)
  27 Pt     5.674131    0.049025   16.934562    ( 0.0000,  0.0000,  0.0000)
  28 Pt     4.259528    2.459239    9.999999    ( 0.0000,  0.0000,  0.0000)
  29 Pt     5.679370    3.278986   12.318592    ( 0.0000,  0.0000,  0.0000)
  30 Pt     4.249313    4.103897   14.632599    ( 0.0000,  0.0000,  0.0000)
  31 Pt     4.293241    2.439770   16.940228    ( 0.0000,  0.0000,  0.0000)
  32 Pt     2.839685    4.918479    9.999999    ( 0.0000,  0.0000,  0.0000)
  33 Pt     4.259528    5.738225   12.318592    ( 0.0000,  0.0000,  0.0000)
  34 Pt     2.840915    6.546561   14.637010    ( 0.0000,  0.0000,  0.0000)
  35 Pt     2.911746    4.961166   17.057049    ( 0.0000,  0.0000,  0.0000)
  36 C      1.419782    4.099304   17.877767    ( 0.0000,  0.0000,  0.0000)

Unit cell:
           periodic     x           y           z      points  spacing
  1. axis:    yes    8.519055    0.000000    0.000000    40     0.1844
  2. axis:    yes   -4.259528    7.377718    0.000000    40     0.1844
[...]
  11 Pt    -2.842530    4.919996   16.972146    ( 0.0000,  0.0000,  0.0000)
  12 Pt     2.839685    0.000000    9.999999    ( 0.0000,  0.0000,  0.0000)
  13 Pt     4.259528    0.819746   12.318592    ( 0.0000,  0.0000,  0.0000)
  14 Pt     2.829028    1.643824   14.633621    ( 0.0000,  0.0000,  0.0000)
  15 Pt     2.836911    0.001839   16.972142    ( 0.0000,  0.0000,  0.0000)
  16 Pt     1.419843    2.459239    9.999999    ( 0.0000,  0.0000,  0.0000)
  17 Pt     2.839685    3.278986   12.318592    ( 0.0000,  0.0000,  0.0000)
  18 Pt     1.419670    4.098848   14.633245    ( 0.0000,  0.0000,  0.0000)
  19 Pt     1.415191    2.378869   17.069549    ( 0.0000,  0.0000,  0.0000)
  20 Pt     0.000000    4.918479    9.999999    ( 0.0000,  0.0000,  0.0000)
  21 Pt     1.419843    5.738225   12.318592    ( 0.0000,  0.0000,  0.0000)
  22 Pt    -0.005559    6.551492   14.635061    ( 0.0000,  0.0000,  0.0000)
  23 Pt    -0.075522    4.962140   17.068127    ( 0.0000,  0.0000,  0.0000)
  24 Pt     5.679370    0.000000    9.999999    ( 0.0000,  0.0000,  0.0000)
  25 Pt     7.099213    0.819746   12.318592    ( 0.0000,  0.0000,  0.0000)
  26 Pt     5.676878    1.640936   14.596090    ( 0.0000,  0.0000,  0.0000)
  27 Pt     5.672574    0.044412   16.941639    ( 0.0000,  0.0000,  0.0000)
  28 Pt     4.259528    2.459239    9.999999    ( 0.0000,  0.0000,  0.0000)
  29 Pt     5.679370    3.278986   12.318592    ( 0.0000,  0.0000,  0.0000)
  30 Pt     4.250497    4.105786   14.633582    ( 0.0000,  0.0000,  0.0000)
  31 Pt     4.287546    2.443080   16.943458    ( 0.0000,  0.0000,  0.0000)
  32 Pt     2.839685    4.918479    9.999999    ( 0.0000,  0.0000,  0.0000)
  33 Pt     4.259528    5.738225   12.318592    ( 0.0000,  0.0000,  0.0000)
  34 Pt     2.838446    6.549597   14.639985    ( 0.0000,  0.0000,  0.0000)
  35 Pt     2.907190    4.962823   17.069363    ( 0.0000,  0.0000,  0.0000)
  36 C      1.417307    4.100579   17.920714    ( 0.0000,  0.0000,  0.0000)

Unit cell:
           periodic     x           y           z      points  spacing
  1. axis:    yes    8.519055    0.000000    0.000000    40     0.1844
  2. axis:    yes   -4.259528    7.377718    0.000000    40     0.1844
  3. axis:    no     0.000000    0.000000   26.955778   148     0.1821

  Lengths:   8.519055   8.519055  26.955778
  Angles:   90.000000  90.000000 120.000000

Effective grid spacing dv^(1/3) = 0.1927

     iter     time        total  log10-change:
                         energy  eigst   dens
iter:   1 06:24:13 -11894.959964  -3.62
iter:   2 06:24:54 -11895.015875  -4.03  -3.25
iter:   3 06:25:35 -11894.955607c -4.48  -2.72
iter:   4 06:26:15 -11894.953973c -5.47  -3.68
iter:   5 06:26:56 -11894.953902c -5.85  -3.94
iter:   6 06:27:37 -11894.953941c -6.02  -4.09c
iter:   7 06:28:18 -11894.953915c -6.43  -4.24c
iter:   8 06:28:59 -11894.953822c -6.67  -4.29c
iter:   9 06:29:39 -11894.953956c -6.93  -4.24c
iter:  10 06:30:20 -11894.953819c -7.15  -4.29c
iter:  11 06:31:01 -11894.953830c -7.66c -4.66c

Converged after 11 iterations.

Dipole moment: (-0.422157, -9.480983, -0.023888) |e|*Ang

Energy contributions relative to reference atoms: (reference = -18014540.687744)

Kinetic:       +807.207175
Potential:     -827.138973
External:        +0.000000
XC:            -11854.555190
Entropy (-ST):   -2.227306
Local:          -19.353190
--------------------------
Free energy:   -11896.067483
Extrapolated:  -11894.953830

Showing only first 2 kpts
 Kpt  Band  Eigenvalues  Occupancy
  0   288     -5.88310    1.22492
  0   289     -5.85553    1.09073
  0   290     -5.80857    0.85720
  0   291     -5.78731    0.75501

  1   288     -6.08685    1.84761
  1   289     -6.01415    1.70847
  1   290     -5.98229    1.61986
  1   291     -5.95328    1.52250


Fermi level: -5.83733

No gap

Forces in eV/Ang:
  0 Pt   -0.01623    0.00938   -0.12447
  1 Pt    0.00833    0.04302    0.15456
  2 Pt    0.00807    0.01067    0.01010
  3 Pt   -0.00419    0.00210   -0.00782
  4 Pt    0.01101    0.01773   -0.12186
  5 Pt   -0.02705   -0.01205    0.16921
  6 Pt    0.01637    0.00608    0.01100
  7 Pt   -0.01020    0.00150    0.00875
  8 Pt    0.00254   -0.02834   -0.10072
  9 Pt    0.02298   -0.01327    0.18755
 10 Pt   -0.00372    0.00216    0.00873
 11 Pt   -0.00888    0.00439   -0.00445
 12 Pt    0.02582    0.01198   -0.10073
 13 Pt    0.00264   -0.01367    0.01302
 14 Pt   -0.00885    0.01104    0.01251
 15 Pt   -0.00807    0.00533   -0.00443
 16 Pt    0.00966    0.01550   -0.12202
 17 Pt    0.00349   -0.00205    0.11952
 18 Pt   -0.01160    0.00672   -0.03098
 19 Pt   -0.00641    0.00273   -0.01521
 20 Pt    0.00863   -0.00497   -0.08690
 21 Pt   -0.00311    0.02943    0.16912
 22 Pt    0.00294   -0.01720    0.01102
 23 Pt   -0.00735    0.00418   -0.01535
 24 Pt   -0.00985   -0.01841   -0.12186
 25 Pt   -0.02158    0.01256    0.01788
 26 Pt   -0.00434    0.00252   -0.03593
 27 Pt   -0.00635    0.00816    0.00876
 28 Pt   -0.02033    0.01173   -0.08533
 29 Pt    0.01327    0.00450    0.01293
 30 Pt   -0.01405    0.00223    0.01266
 31 Pt   -0.00450    0.00265    0.00435
 32 Pt   -0.00860   -0.01611   -0.12202
 33 Pt   -0.03302   -0.02868    0.15445
 34 Pt   -0.00520   -0.01241    0.01022
 35 Pt   -0.00549    0.00428   -0.01512
 36 C    -0.01898    0.01159    0.04894

BFGS:   16 06:31:21   -11894.953830        0.0538
System changes: positions 

Initializing position-dependent things.

Density initialized from wave functions
                                            
                                            
                                            
                                            
                                            
                    C                       
          Pt     Pt     Pt                  
            Pt     Pt     Pt                
           Pt     Pt     Pt                 
             PPt    PPt    PPt              
                                            
              PPt    PPt    PPt             
                                            
                Pt     Pt     Pt            
                  Pt     Pt     Pt          
          Pt     Pt     Pt                  
            Pt     Pt     Pt                
              Pt     Pt     Pt              
                                            
                                            
                                            
                                            

Positions:
   0 Pt     0.000000    0.000000    9.999999    ( 0.0000,  0.0000,  0.0000)
   1 Pt     1.419843    0.819746   12.318592    ( 0.0000,  0.0000,  0.0000)
   2 Pt     0.006537    1.645142   14.640440    ( 0.0000,  0.0000,  0.0000)
   3 Pt    -0.001755    0.001142   16.973292    ( 0.0000,  0.0000,  0.0000)
   4 Pt    -1.419843    2.459239    9.999999    ( 0.0000,  0.0000,  0.0000)
   5 Pt     0.000000    3.278986   12.318592    ( 0.0000,  0.0000,  0.0000)
   6 Pt    -1.416835    4.107035   14.635561    ( 0.0000,  0.0000,  0.0000)
   7 Pt    -1.461825    2.443243   16.942702    ( 0.0000,  0.0000,  0.0000)
   8 Pt    -2.839685    4.918479    9.999999    ( 0.0000,  0.0000,  0.0000)
   9 Pt    -1.419843    5.738225   12.318592    ( 0.0000,  0.0000,  0.0000)
  10 Pt    -2.840744    6.558586   14.624830    ( 0.0000,  0.0000,  0.0000)
  11 Pt    -2.843073    4.920384   16.972564    ( 0.0000,  0.0000,  0.0000)
  12 Pt     2.839685    0.000000    9.999999    ( 0.0000,  0.0000,  0.0000)
  13 Pt     4.259528    0.819746   12.318592    ( 0.0000,  0.0000,  0.0000)
  14 Pt     2.828687    1.643924   14.633968    ( 0.0000,  0.0000,  0.0000)
  15 Pt     2.836310    0.002113   16.972562    ( 0.0000,  0.0000,  0.0000)
  16 Pt     1.419843    2.459239    9.999999    ( 0.0000,  0.0000,  0.0000)
  17 Pt     2.839685    3.278986   12.318592    ( 0.0000,  0.0000,  0.0000)
  18 Pt     1.419624    4.098877   14.633933    ( 0.0000,  0.0000,  0.0000)
  19 Pt     1.414672    2.380057   17.070611    ( 0.0000,  0.0000,  0.0000)
  20 Pt     0.000000    4.918479    9.999999    ( 0.0000,  0.0000,  0.0000)
  21 Pt     1.419843    5.738225   12.318592    ( 0.0000,  0.0000,  0.0000)
  22 Pt    -0.005693    6.551244   14.635550    ( 0.0000,  0.0000,  0.0000)
  23 Pt    -0.075280    4.962004   17.069213    ( 0.0000,  0.0000,  0.0000)
  24 Pt     5.679370    0.000000    9.999999    ( 0.0000,  0.0000,  0.0000)
  25 Pt     7.099213    0.819746   12.318592    ( 0.0000,  0.0000,  0.0000)
  26 Pt     5.676590    1.641104   14.596933    ( 0.0000,  0.0000,  0.0000)
  27 Pt     5.672255    0.044381   16.942680    ( 0.0000,  0.0000,  0.0000)
  28 Pt     4.259528    2.459239    9.999999    ( 0.0000,  0.0000,  0.0000)
  29 Pt     5.679370    3.278986   12.318592    ( 0.0000,  0.0000,  0.0000)
  30 Pt     4.250239    4.106035   14.633932    ( 0.0000,  0.0000,  0.0000)
  31 Pt     4.287049    2.443371   16.943970    ( 0.0000,  0.0000,  0.0000)
  32 Pt     2.839685    4.918479    9.999999    ( 0.0000,  0.0000,  0.0000)
  33 Pt     4.259528    5.738225   12.318592    ( 0.0000,  0.0000,  0.0000)
  34 Pt     2.838088    6.549538   14.640401    ( 0.0000,  0.0000,  0.0000)
  35 Pt     2.905891    4.962672   17.070438    ( 0.0000,  0.0000,  0.0000)
  36 C      1.416561    4.101013   17.924851    ( 0.0000,  0.0000,  0.0000)

Unit cell:
           periodic     x           y           z      points  spacing
  1. axis:    yes    8.519055    0.000000    0.000000    40     0.1844
  2. axis:    yes   -4.259528    7.377718    0.000000    40     0.1844
  3. axis:    no     0.000000    0.000000   26.955778   148     0.1821

  Lengths:   8.519055   8.519055  26.955778
  Angles:   90.000000  90.000000 120.000000

Effective grid spacing dv^(1/3) = 0.1927

     iter     time        total  log10-change:
                         energy  eigst   dens
iter:   1 06:32:59 -11894.954841  -4.18
iter:   2 06:33:39 -11894.955027  -4.84  -3.54
iter:   3 06:34:20 -11894.955488c -5.60  -3.74
iter:   4 06:35:01 -11894.954014c -6.18  -3.63
iter:   5 06:35:41 -11894.954020c -6.70  -4.23c
iter:   6 06:36:22 -11894.954044c -6.37  -4.39c
iter:   7 06:37:03 -11894.954025c -6.87  -4.58c
iter:   8 06:37:43 -11894.954018c -7.58c -4.67c

Converged after 8 iterations.

Dipole moment: (-0.391766, -9.498753, -0.024013) |e|*Ang

Energy contributions relative to reference atoms: (reference = -18014540.687744)

Kinetic:       +806.861794
Potential:     -826.844832
External:        +0.000000
XC:            -11854.502872
Entropy (-ST):   -2.227487
Local:          -19.354363
--------------------------
Free energy:   -11896.067761
Extrapolated:  -11894.954018

Showing only first 2 kpts
 Kpt  Band  Eigenvalues  Occupancy
  0   288     -5.88320    1.22480
  0   289     -5.85557    1.09034
  0   290     -5.80908    0.85907
  0   291     -5.78739    0.75476

  1   288     -6.08693    1.84755
  1   289     -6.01455    1.70914
  1   290     -5.98230    1.61951
  1   291     -5.95340    1.52246


Fermi level: -5.83746

No gap

Forces in eV/Ang:
  0 Pt   -0.01617    0.00935   -0.12271
  1 Pt    0.00826    0.04216    0.15552
  2 Pt    0.00395    0.00746    0.00807
  3 Pt   -0.00748    0.00407   -0.00683
  4 Pt    0.01103    0.01773   -0.12034
  5 Pt   -0.02762   -0.01253    0.16975
  6 Pt    0.00918    0.00272    0.00867
  7 Pt   -0.01407   -0.00137    0.00502
  8 Pt    0.00271   -0.02843   -0.09901
  9 Pt    0.02124   -0.01226    0.18856
 10 Pt   -0.00247    0.00147    0.00275
 11 Pt   -0.00772    0.00118   -0.00449
 12 Pt    0.02598    0.01188   -0.09902
 13 Pt    0.00064   -0.01467    0.01499
 14 Pt   -0.00519    0.00892    0.00989
 15 Pt   -0.00475    0.00595   -0.00451
 16 Pt    0.00966    0.01535   -0.12029
 17 Pt    0.00417   -0.00243    0.12040
 18 Pt   -0.00997    0.00576   -0.03470
 19 Pt   -0.00679   -0.00066   -0.01322
 20 Pt    0.00858   -0.00494   -0.08538
 21 Pt   -0.00298    0.03016    0.16967
 22 Pt    0.00226   -0.00930    0.00869
 23 Pt   -0.01314    0.00749   -0.01426
 24 Pt   -0.00984   -0.01842   -0.12034
 25 Pt   -0.02040    0.01188    0.02002
 26 Pt   -0.00341    0.00199   -0.03012
 27 Pt   -0.00582    0.01292    0.00504
 28 Pt   -0.02024    0.01168   -0.08370
 29 Pt    0.01315    0.00673    0.01490
 30 Pt   -0.01038    0.00009    0.01001
 31 Pt    0.00029   -0.00014    0.00242
 32 Pt   -0.00846   -0.01602   -0.12029
 33 Pt   -0.03231   -0.02819    0.15541
 34 Pt   -0.00451   -0.00722    0.00816
 35 Pt   -0.00260    0.00636   -0.01323
 36 C    -0.01834    0.01134    0.04324

BFGS:   17 06:38:03   -11894.954018        0.0483
Timing:                                      incl.     excl.
-------------------------------------------------------------------
Density initialized from wave functions:    14.758    14.757   0.1% |
 Symmetrize density:                         0.001     0.001   0.0% |
Forces:                                    362.565   362.565   2.8% ||
Hamiltonian:                                64.238     0.003   0.0% |
 Atomic:                                     0.005     0.005   0.0% |
  XC Correction:                             0.000     0.000   0.0% |
 Calculate atomic Hamiltonians:              0.007     0.007   0.0% |
 Communicate:                                4.562     4.562   0.0% |
 Hartree integrate/restrict:                 0.184     0.184   0.0% |
 Initialize Hamiltonian:                     0.001     0.001   0.0% |
 Poisson:                                    3.163     0.121   0.0% |
  Communicate from 1D:                       0.249     0.249   0.0% |
  Communicate from 2D:                       0.525     0.525   0.0% |
  Communicate to 1D:                         0.142     0.142   0.0% |
  Communicate to 2D:                         0.577     0.577   0.0% |
  FFT 1D:                                    0.791     0.791   0.0% |
  FFT 2D:                                    0.758     0.758   0.0% |
 XC 3D grid:                                56.269    13.835   0.1% |
  VdW-DF integral:                          42.434     2.293   0.0% |
   Convolution:                              3.723     3.723   0.0% |
   FFT:                                      2.711     2.711   0.0% |
   gather:                                  12.604    12.604   0.1% |
   hmm1:                                     0.767     0.767   0.0% |
   hmm2:                                     1.616     1.616   0.0% |
   iFFT:                                     2.528     2.528   0.0% |
   potential:                               12.060     0.276   0.0% |
    collect:                                 0.809     0.809   0.0% |
    p1:                                      7.217     7.217   0.1% |
    p2:                                      2.471     2.471   0.0% |
    sum:                                     1.287     1.287   0.0% |
   splines:                                  4.133     4.133   0.0% |
 vbar:                                       0.043     0.043   0.0% |
LCAO initialization:                        43.564     1.073   0.0% |
 LCAO eigensolver:                          30.360     0.005   0.0% |
  Calculate projections:                     0.000     0.000   0.0% |
  DenseAtomicCorrection:                     0.000     0.000   0.0% |
  Distribute overlap matrix:                29.418    29.418   0.2% |
  Orbital Layouts:                           0.754     0.754   0.0% |
  Potential matrix:                          0.041     0.041   0.0% |
  Sum over cells:                            0.141     0.141   0.0% |
 LCAO to grid:                              10.231    10.231   0.1% |
 Set positions (LCAO WFS):                   1.900     1.334   0.0% |
  Basic WFS set positions:                   0.001     0.001   0.0% |
  Basis functions set positions:             0.000     0.000   0.0% |
  P tci:                                     0.001     0.001   0.0% |
  ST tci:                                    0.462     0.462   0.0% |
  mktci:                                     0.102     0.102   0.0% |
Redistribute:                                0.011     0.011   0.0% |
SCF-cycle:                               11726.044   177.041   1.4% ||
 Davidson:                               10527.872  3325.117  25.4% |---------|
  Apply hamiltonian:                       234.234   234.234   1.8% ||
  Subspace diag:                          1042.787     0.038   0.0% |
   calc_h_matrix:                          522.670   278.586   2.1% ||
    Apply hamiltonian:                     244.084   244.084   1.9% ||
   diagonalize:                             22.473    22.473   0.2% |
   rotate_psi:                             497.607   497.607   3.8% |-|
  calc. matrices:                         4824.489  1866.269  14.3% |-----|
   Apply hamiltonian:                     2958.220  2958.220  22.6% |--------|
  diagonalize:                             155.184   155.184   1.2% |
  rotate_psi:                              946.062   946.062   7.2% |--|
 Density:                                   19.198     0.007   0.0% |
  Atomic density matrices:                   1.660     1.660   0.0% |
  Mix:                                       4.399     4.399   0.0% |
  Multipole moments:                         0.112     0.112   0.0% |
  Pseudo density:                           13.021    13.012   0.1% |
   Symmetrize density:                       0.009     0.009   0.0% |
 Hamiltonian:                              897.766     0.039   0.0% |
  Atomic:                                    0.072     0.071   0.0% |
   XC Correction:                            0.001     0.001   0.0% |
  Calculate atomic Hamiltonians:             0.098     0.098   0.0% |
  Communicate:                              67.912    67.912   0.5% |
  Hartree integrate/restrict:                2.768     2.768   0.0% |
  Poisson:                                  47.204     1.803   0.0% |
   Communicate from 1D:                      3.596     3.596   0.0% |
   Communicate from 2D:                      7.944     7.944   0.1% |
   Communicate to 1D:                        2.171     2.171   0.0% |
   Communicate to 2D:                        8.549     8.549   0.1% |
   FFT 1D:                                  11.788    11.788   0.1% |
   FFT 2D:                                  11.352    11.352   0.1% |
  XC 3D grid:                              779.095   206.557   1.6% ||
   VdW-DF integral:                        572.538    34.095   0.3% |
    Convolution:                            55.675    55.675   0.4% |
    FFT:                                    40.440    40.440   0.3% |
    gather:                                188.923   188.923   1.4% ||
    hmm1:                                   11.358    11.358   0.1% |
    hmm2:                                   23.949    23.949   0.2% |
    iFFT:                                   37.777    37.777   0.3% |
    potential:                             180.319     4.170   0.0% |
     collect:                               11.973    11.973   0.1% |
     p1:                                   107.710   107.710   0.8% |
     p2:                                    36.893    36.893   0.3% |
     sum:                                   19.574    19.574   0.1% |
    splines:                                 0.002     0.002   0.0% |
  vbar:                                      0.579     0.579   0.0% |
 Orthonormalize:                           104.167     0.004   0.0% |
  calc_s_matrix:                             7.902     7.902   0.1% |
  inverse-cholesky:                         80.794    80.794   0.6% |
  projections:                               0.001     0.001   0.0% |
  rotate_psi_s:                             15.465    15.465   0.1% |
Set symmetry:                                0.001     0.001   0.0% |
Other:                                     856.509   856.509   6.6% |--|
-------------------------------------------------------------------
Total:                                             13067.689 100.0%

Memory usage: 1.63 GiB
Date: Thu Sep 28 06:38:03 2023
