
  ___ ___ ___ _ _ _  
 |   |   |_  | | | | 
 | | | | | . | | | | 
 |__ |  _|___|_____|  22.8.0
 |___|_|             

User:   s204775@c106.nifl.fysik.dtu.dk
Date:   Thu Sep 28 03:54:07 2023
Arch:   x86_64
Pid:    39888
CWD:    /home/cat/s204775/projects/Bachelor_project/C_missing_features
Python: 3.10.4
gpaw:   /home/modules/software/GPAW/22.8.0-intel-2022a/lib/python3.10/site-packages/gpaw
_gpaw:  /home/modules/software/GPAW/22.8.0-intel-2022a/lib/python3.10/site-packages/
        _gpaw.cpython-310-x86_64-linux-gnu.so
ase:    /home/modules/software/ASE/3.22.1-intel-2022a/lib/python3.10/site-packages/ase (version 3.22.1)
numpy:  /home/modules/software/SciPy-bundle/2022.05-intel-2022a/lib/python3.10/site-packages/numpy (version 1.22.3)
scipy:  /home/modules/software/SciPy-bundle/2022.05-intel-2022a/lib/python3.10/site-packages/scipy (version 1.8.1)
libxc:  5.2.3
units:  Angstrom and eV
cores: 40
OpenMP: False
OMP_NUM_THREADS: 1

Input parameters:
  basis: dzp
  h: 0.18
  kpts: {size: (4, 4, 1)}
  xc: BEEF-vdW

System changes: positions, numbers, cell, pbc, initial_charges, initial_magmoms 

Initialize ...

species:
  Rh:
    name: Rhodium
    id: 4e1d209aee696a641de1ffa1459b299f
    Z: 45.0
    valence: 15
    core: 30
    charge: 0.0
    file: /home/modules/software/GPAW-setups/0.9.20000/Rh.PBE.gz
    compensation charges: {type: gauss,
                           rc: 0.38,
                           lmax: 2}
    cutoffs: {filter: 2.48,
              core: 2.35}
    valence states:
      #              energy  rcut
      - 5s(1.00)    -4.297   1.270
      - 4p(6.00)   -50.429   1.381
      - 5p(0.00)    -0.852   1.381
      - 4d(8.00)    -5.942   1.244
      -  s          22.915   1.270
      -  d          21.270   1.244
  
    # LCAO basis set for Rh:
    #   Name: dzp
    #   File: /home/modules/software/GPAW-setups/0.9.20000/Rh.dzp.basis.gz
    #   Number of radial functions: 9
    #   Number of spherical harmonics: 27
    #     l=0, rc=9.5469 Bohr: 5s-sz confined orbital
    #     l=1, rc=3.6250 Bohr: 4p-sz confined orbital
    #     l=1, rc=14.0938 Bohr: 5p-sz confined orbital
    #     l=2, rc=5.9844 Bohr: 4d-sz confined orbital
    #     l=0, rc=5.7031 Bohr: 5s-dz split-valence wave
    #     l=1, rc=2.4531 Bohr: 4p-dz split-valence wave
    #     l=1, rc=8.7031 Bohr: 5p-dz split-valence wave
    #     l=2, rc=3.5625 Bohr: 4d-dz split-valence wave
    #     l=1, rc=9.5469 Bohr: p-type Gaussian polarization
    #   Number of RI-basis functions 0

  C:
    name: Carbon
    id: 4aa54d4b901d75f77cc0ea3eec22967b
    Z: 6.0
    valence: 4
    core: 2
    charge: 0.0
    file: /home/modules/software/GPAW-setups/0.9.20000/C.PBE.gz
    compensation charges: {type: gauss,
                           rc: 0.20,
                           lmax: 2}
    cutoffs: {filter: 1.14,
              core: 1.14}
    valence states:
      #              energy  rcut
      - 2s(2.00)   -13.751   0.635
      - 2p(2.00)    -5.284   0.635
      -  s          13.461   0.635
      -  p          21.927   0.635
      -  d           0.000   0.635
  
    # LCAO basis set for C:
    #   Name: dzp
    #   File: /home/modules/software/GPAW-setups/0.9.20000/C.dzp.basis.gz
    #   Number of radial functions: 5
    #   Number of spherical harmonics: 13
    #     l=0, rc=5.5469 Bohr: 2s-sz confined orbital
    #     l=1, rc=6.6719 Bohr: 2p-sz confined orbital
    #     l=0, rc=3.0312 Bohr: 2s-dz split-valence wave
    #     l=1, rc=3.7500 Bohr: 2p-dz split-valence wave
    #     l=2, rc=6.6719 Bohr: d-type Gaussian polarization
    #   Number of RI-basis functions 0

Reference energy: -4685874.920122  # eV

Spin-paired calculation

Convergence criteria:
 Maximum [total energy] change in last 3 cyles: 0.0005 eV / electron
 Maximum integral of absolute [dens]ity change: 0.0001 electrons / valence electron
 Maximum integral of absolute [eigenst]ate change: 4e-08 eV^2 / valence electron
 Maximum number of scf [iter]ations: 333
 (Square brackets indicate name in SCF output, whereas a 'c' in
 the SCF output indicates the quantity has converged.)

Symmetries present (total): 1

  ( 1  0  0)
  ( 0  1  0)
  ( 0  0  1)

16 k-points: 4 x 4 x 1 Monkhorst-Pack grid
8 k-points in the irreducible part of the Brillouin zone
       k-points in crystal coordinates                weights
   0:     0.12500000   -0.37500000    0.00000000          2/16
   1:     0.12500000   -0.12500000    0.00000000          2/16
   2:     0.12500000    0.12500000    0.00000000          2/16
   3:     0.12500000    0.37500000    0.00000000          2/16
   4:     0.37500000   -0.37500000    0.00000000          2/16
   5:     0.37500000   -0.12500000    0.00000000          2/16
   6:     0.37500000    0.12500000    0.00000000          2/16
   7:     0.37500000    0.37500000    0.00000000          2/16

Wave functions: Uniform real-space grid
  Kinetic energy operator: 8*3+1=25 point O(h^6) finite-difference Laplacian
  ScaLapack parameters: grid=1x1, blocksize=None
  Wavefunction extrapolation:
    Improved wavefunction reuse through dual PAW basis 

Occupation numbers: Fermi-Dirac:
  width: 0.1000  # eV
 

Eigensolver
   Davidson(niter=2) 

Densities:
  Coarse grid: 40*40*148 grid
  Fine grid: 80*80*296 grid
  Total Charge: 0.000000 

Density mixing:
  Method: separate
  Backend: pulay
  Linear mixing parameter: 0.05
  old densities: 5
  Damping of long wavelength oscillations: 50 

Hamiltonian:
  XC and Coulomb potentials evaluated on a 80*80*296 grid
  Using the BEEF-vdW Exchange-Correlation functional
  Interpolation: tri-quintic (5. degree polynomial)
  Poisson solver: FastPoissonSolver using
    Stencil: 8*3+1=25 point O(h^6) finite-difference Laplacian
    FFT axes: [0, 1]
    FST axes: [2]
 

XC parameters: BEEF-vdW with 2 nearest neighbor stencil

Memory estimate:
  Process memory now: 212.99 MiB
  Calculator: 575.45 MiB
    Density: 65.97 MiB
      Arrays: 9.35 MiB
      Localized functions: 53.08 MiB
      Mixer: 3.54 MiB
    Hamiltonian: 10.34 MiB
      Arrays: 6.12 MiB
      XC: 0.00 MiB
      Poisson: 0.00 MiB
      vbar: 4.23 MiB
    Wavefunctions: 499.14 MiB
      Arrays psit_nG: 234.35 MiB
      Eigensolver: 254.62 MiB
      Projections: 0.67 MiB
      Projectors: 9.50 MiB

Total number of cores used: 40
Parallelization over k-points: 8
Domain decomposition: 1 x 1 x 5

Number of atoms: 37
Number of atomic orbitals: 985
Number of bands in calculation: 331
Number of valence electrons: 544
Bands to converge: occupied

... initialized

Initializing position-dependent things.

Density initialized from atomic densities
Creating initial wave functions:
  331 bands from LCAO basis set

                                           
                                           
                                           
                                           
                                           
          Rh    Rh C   Rh                  
                                           
           RRh   RRh    RRh                
              Rh    Rh     Rh              
             Rh    Rh     Rh               
              RRh   RRh    RRh             
                                           
                Rh    Rh     Rh            
                 Rh     Rh     Rh          
          Rh    Rh     Rh                  
            Rh    Rh     Rh                
              Rh    Rh     Rh              
                                           
                                           
                                           
                                           

Positions:
   0 Rh     0.000000    0.000000    9.999999    ( 0.0000,  0.0000,  0.0000)
   1 Rh     1.374814    0.793749   12.245061    ( 0.0000,  0.0000,  0.0000)
   2 Rh     0.000000    1.586401   14.446843    ( 0.0000,  0.0000,  0.0000)
   3 Rh    -0.000000    0.000000   16.662155    ( 0.0000,  0.0000,  0.0000)
   4 Rh    -1.374814    2.381247    9.999999    ( 0.0000,  0.0000,  0.0000)
   5 Rh    -0.000000    3.174997   12.245061    ( 0.0000,  0.0000,  0.0000)
   6 Rh    -1.374325    3.969028   14.447533    ( 0.0000,  0.0000,  0.0000)
   7 Rh    -1.373523    2.379417   16.659614    ( 0.0000,  0.0000,  0.0000)
   8 Rh    -2.749628    4.762495    9.999999    ( 0.0000,  0.0000,  0.0000)
   9 Rh    -1.374814    5.556244   12.245061    ( 0.0000,  0.0000,  0.0000)
  10 Rh    -2.750578    6.350542   14.446843    ( 0.0000,  0.0000,  0.0000)
  11 Rh    -2.750567    4.764528   16.659614    ( 0.0000,  0.0000,  0.0000)
  12 Rh     2.749628    0.000000    9.999999    ( 0.0000,  0.0000,  0.0000)
  13 Rh     4.124441    0.793749   12.245061    ( 0.0000,  0.0000,  0.0000)
  14 Rh     2.749543    1.587450   14.446652    ( 0.0000,  0.0000,  0.0000)
  15 Rh     2.747397   -0.000203   16.659614    ( 0.0000,  0.0000,  0.0000)
  16 Rh     1.374814    2.381247    9.999999    ( 0.0000,  0.0000,  0.0000)
  17 Rh     2.749628    3.174997   12.245061    ( 0.0000,  0.0000,  0.0000)
  18 Rh     1.374325    3.969028   14.447533    ( 0.0000,  0.0000,  0.0000)
  19 Rh     1.373523    2.379417   16.659614    ( 0.0000,  0.0000,  0.0000)
  20 Rh    -0.000000    4.762495    9.999999    ( 0.0000,  0.0000,  0.0000)
  21 Rh     1.374814    5.556244   12.245061    ( 0.0000,  0.0000,  0.0000)
  22 Rh    -0.000000    6.349429   14.447533    ( 0.0000,  0.0000,  0.0000)
  23 Rh    -0.000000    4.762495   16.661084    ( 0.0000,  0.0000,  0.0000)
  24 Rh     5.499255    0.000000    9.999999    ( 0.0000,  0.0000,  0.0000)
  25 Rh     6.874069    0.793749   12.245061    ( 0.0000,  0.0000,  0.0000)
  26 Rh     5.499340    1.587450   14.446652    ( 0.0000,  0.0000,  0.0000)
  27 Rh     5.501486   -0.000203   16.659614    ( 0.0000,  0.0000,  0.0000)
  28 Rh     4.124441    2.381247    9.999999    ( 0.0000,  0.0000,  0.0000)
  29 Rh     5.499255    3.174997   12.245061    ( 0.0000,  0.0000,  0.0000)
  30 Rh     4.124441    3.968843   14.446652    ( 0.0000,  0.0000,  0.0000)
  31 Rh     4.124441    2.381247   16.660091    ( 0.0000,  0.0000,  0.0000)
  32 Rh     2.749628    4.762495    9.999999    ( 0.0000,  0.0000,  0.0000)
  33 Rh     4.124441    5.556244   12.245061    ( 0.0000,  0.0000,  0.0000)
  34 Rh     2.750578    6.350542   14.446843    ( 0.0000,  0.0000,  0.0000)
  35 Rh     2.750567    4.764528   16.659614    ( 0.0000,  0.0000,  0.0000)
  36 C      1.373523    3.967458   17.453635    ( 0.0000,  0.0000,  0.0000)

Unit cell:
           periodic     x           y           z      points  spacing
  1. axis:    yes    8.248883    0.000000    0.000000    40     0.1786
  2. axis:    yes   -4.124441    7.143742    0.000000    40     0.1786
  3. axis:    no     0.000000    0.000000   26.735183   148     0.1806

  Lengths:   8.248883   8.248883  26.735183
  Angles:   90.000000  90.000000 120.000000

Effective grid spacing dv^(1/3) = 0.1881

     iter     time        total  log10-change:
                         energy  eigst   dens
iter:   1 03:56:18 -5171.952798
iter:   2 03:57:05 -5262.375574  -0.53  -1.35
iter:   3 03:57:53 -5168.471000  -1.24  -1.08
iter:   4 03:58:41 -5167.291614  -1.52  -1.41
iter:   5 03:59:28 -5160.491123  -1.48  -1.42
iter:   6 04:00:16 -5157.560569  -1.19  -1.59
iter:   7 04:01:03 -5157.869305  -1.81  -1.88
iter:   8 04:01:51 -5158.315180  -2.47  -1.94
iter:   9 04:02:38 -5157.494418  -2.43  -1.92
iter:  10 04:03:26 -5157.567810  -2.61  -2.07
iter:  11 04:04:13 -5157.154959  -2.95  -2.08
iter:  12 04:05:01 -5157.101474  -3.34  -2.21
iter:  13 04:05:48 -5157.079872c -2.96  -2.29
iter:  14 04:06:36 -5156.995905c -2.74  -2.41
iter:  15 04:07:23 -5156.973836c -3.58  -2.72
iter:  16 04:08:11 -5156.968760c -3.79  -3.00
iter:  17 04:08:58 -5156.964529c -4.46  -2.96
iter:  18 04:09:45 -5156.960927c -4.48  -3.13
iter:  19 04:10:33 -5156.961126c -4.71  -3.21
iter:  20 04:11:20 -5156.959183c -5.08  -3.32
iter:  21 04:12:07 -5156.960323c -4.98  -3.41
iter:  22 04:12:54 -5156.958779c -5.63  -3.53
iter:  23 04:13:42 -5156.959432c -5.65  -3.53
iter:  24 04:14:29 -5156.959797c -5.47  -3.60
iter:  25 04:15:16 -5156.959516c -5.88  -3.84
iter:  26 04:16:03 -5156.959540c -6.01  -3.87
iter:  27 04:16:51 -5156.959721c -6.34  -3.84
iter:  28 04:17:38 -5156.959522c -6.05  -4.01c
iter:  29 04:18:25 -5156.959473c -6.42  -4.27c
iter:  30 04:19:12 -5156.959695c -6.51  -4.34c
iter:  31 04:20:00 -5156.959501c -6.51  -4.49c
iter:  32 04:20:47 -5156.959538c -6.94  -4.65c
iter:  33 04:21:34 -5156.959564c -7.26  -4.56c
iter:  34 04:22:21 -5156.959535c -7.52c -4.70c

Converged after 34 iterations.

Dipole moment: (-3.926055, -6.770218, -0.049832) |e|*Ang

Energy contributions relative to reference atoms: (reference = -4685874.920122)

Kinetic:       +782.595317
Potential:     -802.477675
External:        +0.000000
XC:            -5125.317782
Entropy (-ST):   -2.237727
Local:          -10.640532
--------------------------
Free energy:   -5158.078398
Extrapolated:  -5156.959535

Showing only first 2 kpts
 Kpt  Band  Eigenvalues  Occupancy
  0   270     -5.34800    1.09245
  0   271     -5.30338    0.87033
  0   272     -5.27676    0.74241
  0   273     -5.26587    0.69232

  1   270     -5.40056    1.34122
  1   271     -5.38189    1.25630
  1   272     -5.34917    1.09821
  1   273     -5.34032    1.05423


Fermi level: -5.32946

No gap

Forces in eV/Ang:
  0 Rh   -0.00143    0.00085    0.17230
  1 Rh   -0.02424   -0.02937   -0.18557
  2 Rh   -0.07316    0.00540   -0.14970
  3 Rh   -0.01523    0.00724    0.14989
  4 Rh    0.00571   -0.00164    0.23298
  5 Rh   -0.02295   -0.01326   -0.20401
  6 Rh   -0.02717   -0.06680   -0.15236
  7 Rh   -0.52866   -0.30894   -0.05279
  8 Rh   -0.00478    0.00713    0.15603
  9 Rh   -0.01227    0.00724   -0.18844
 10 Rh   -0.00073    0.00056   -0.02681
 11 Rh   -0.00402   -0.00181    0.14101
 12 Rh   -0.00861    0.00056    0.15607
 13 Rh   -0.00011    0.00083   -0.34780
 14 Rh    0.07203    0.00871   -0.14149
 15 Rh    0.00025    0.00330    0.14143
 16 Rh   -0.00409   -0.01465    0.17769
 17 Rh    0.02026   -0.01171   -0.19807
 18 Rh    0.00631   -0.00286   -0.84956
 19 Rh    0.01565   -3.46155   -0.64263
 20 Rh   -0.00685    0.00399    0.18702
 21 Rh    0.00002    0.02656   -0.20415
 22 Rh    0.04453    0.05715   -0.15243
 23 Rh   -3.00996    1.74087   -0.63036
 24 Rh    0.00430   -0.00420    0.23326
 25 Rh    0.02473   -0.01441   -0.34903
 26 Rh    0.00004   -0.00015    0.08747
 27 Rh    0.00374    0.61097   -0.05278
 28 Rh   -0.00342    0.00202    0.24971
 29 Rh   -0.00089   -0.00023   -0.34715
 30 Rh    0.02786   -0.06640   -0.14058
 31 Rh    0.53059   -0.30575   -0.05081
 32 Rh    0.01067    0.01090    0.17752
 33 Rh    0.01328    0.03580   -0.18571
 34 Rh   -0.04148    0.06021   -0.14884
 35 Rh    2.96134    1.69474   -0.61854
 36 C     0.05211    0.01283    3.77088

      Step     Time          Energy         fmax
BFGS:    0 04:22:49    -5156.959535        3.7713
System changes: positions 

Initializing position-dependent things.

Density initialized from wave functions
                                           
                                           
                                           
                                           
                                           
                   C                       
          Rh    Rh     Rh                  
           RRh   RRh    RRh                
              Rh    Rh     Rh              
             Rh    Rh     Rh               
              RRh   RRh    RRh             
                                           
                Rh    Rh     Rh            
                 Rh     Rh     Rh          
          Rh    Rh     Rh                  
            Rh    Rh     Rh                
              Rh    Rh     Rh              
                                           
                                           
                                           
                                           

Positions:
   0 Rh     0.000000    0.000000    9.999999    ( 0.0000,  0.0000,  0.0000)
   1 Rh     1.374814    0.793749   12.245061    ( 0.0000,  0.0000,  0.0000)
   2 Rh    -0.001045    1.586478   14.444705    ( 0.0000,  0.0000,  0.0000)
   3 Rh    -0.000218    0.000103   16.664297    ( 0.0000,  0.0000,  0.0000)
   4 Rh    -1.374814    2.381247    9.999999    ( 0.0000,  0.0000,  0.0000)
   5 Rh    -0.000000    3.174997   12.245061    ( 0.0000,  0.0000,  0.0000)
   6 Rh    -1.374713    3.968074   14.445356    ( 0.0000,  0.0000,  0.0000)
   7 Rh    -1.381075    2.375003   16.658860    ( 0.0000,  0.0000,  0.0000)
   8 Rh    -2.749628    4.762495    9.999999    ( 0.0000,  0.0000,  0.0000)
   9 Rh    -1.374814    5.556244   12.245061    ( 0.0000,  0.0000,  0.0000)
  10 Rh    -2.750588    6.350550   14.446460    ( 0.0000,  0.0000,  0.0000)
  11 Rh    -2.750625    4.764502   16.661629    ( 0.0000,  0.0000,  0.0000)
  12 Rh     2.749628    0.000000    9.999999    ( 0.0000,  0.0000,  0.0000)
  13 Rh     4.124441    0.793749   12.245061    ( 0.0000,  0.0000,  0.0000)
  14 Rh     2.750572    1.587574   14.444631    ( 0.0000,  0.0000,  0.0000)
  15 Rh     2.747401   -0.000155   16.661635    ( 0.0000,  0.0000,  0.0000)
  16 Rh     1.374814    2.381247    9.999999    ( 0.0000,  0.0000,  0.0000)
  17 Rh     2.749628    3.174997   12.245061    ( 0.0000,  0.0000,  0.0000)
  18 Rh     1.374415    3.968987   14.435396    ( 0.0000,  0.0000,  0.0000)
  19 Rh     1.373747    2.329966   16.650434    ( 0.0000,  0.0000,  0.0000)
  20 Rh    -0.000000    4.762495    9.999999    ( 0.0000,  0.0000,  0.0000)
  21 Rh     1.374814    5.556244   12.245061    ( 0.0000,  0.0000,  0.0000)
  22 Rh     0.000636    6.350245   14.445355    ( 0.0000,  0.0000,  0.0000)
  23 Rh    -0.042999    4.787364   16.652079    ( 0.0000,  0.0000,  0.0000)
  24 Rh     5.499255    0.000000    9.999999    ( 0.0000,  0.0000,  0.0000)
  25 Rh     6.874069    0.793749   12.245061    ( 0.0000,  0.0000,  0.0000)
  26 Rh     5.499340    1.587447   14.447902    ( 0.0000,  0.0000,  0.0000)
  27 Rh     5.501539    0.008525   16.658860    ( 0.0000,  0.0000,  0.0000)
  28 Rh     4.124441    2.381247    9.999999    ( 0.0000,  0.0000,  0.0000)
  29 Rh     5.499255    3.174997   12.245061    ( 0.0000,  0.0000,  0.0000)
  30 Rh     4.124840    3.967894   14.444644    ( 0.0000,  0.0000,  0.0000)
  31 Rh     4.132021    2.376880   16.659365    ( 0.0000,  0.0000,  0.0000)
  32 Rh     2.749628    4.762495    9.999999    ( 0.0000,  0.0000,  0.0000)
  33 Rh     4.124441    5.556244   12.245061    ( 0.0000,  0.0000,  0.0000)
  34 Rh     2.749985    6.351402   14.444717    ( 0.0000,  0.0000,  0.0000)
  35 Rh     2.792872    4.788738   16.650778    ( 0.0000,  0.0000,  0.0000)
  36 C      1.374267    3.967642   17.507505    ( 0.0000,  0.0000,  0.0000)

Unit cell:
           periodic     x           y           z      points  spacing
  1. axis:    yes    8.248883    0.000000    0.000000    40     0.1786
  2. axis:    yes   -4.124441    7.143742    0.000000    40     0.1786
  3. axis:    no     0.000000    0.000000   26.735183   148     0.1806

  Lengths:   8.248883   8.248883  26.735183
  Angles:   90.000000  90.000000 120.000000

Effective grid spacing dv^(1/3) = 0.1881

     iter     time        total  log10-change:
                         energy  eigst   dens
iter:   1 04:24:40 -5163.408536  -1.15
iter:   2 04:25:28 -5255.594292  -0.87  -1.75
iter:   3 04:26:16 -5161.009787  -1.50  -1.19
iter:   4 04:27:04 -5158.266597  -1.90  -1.83
iter:   5 04:27:51 -5157.641760  -2.44  -2.13
iter:   6 04:28:39 -5157.521197  -3.18  -2.46
iter:   7 04:29:27 -5157.488181c -3.32  -2.75
iter:   8 04:30:15 -5157.485579c -3.70  -2.97
iter:   9 04:31:02 -5157.478603c -4.32  -2.93
iter:  10 04:31:50 -5157.484303c -4.22  -3.10
iter:  11 04:32:38 -5157.469684c -4.25  -2.99
iter:  12 04:33:26 -5157.473113c -4.33  -3.41
iter:  13 04:34:14 -5157.471970c -4.89  -3.39
iter:  14 04:35:01 -5157.471598c -5.22  -3.53
iter:  15 04:35:49 -5157.472922c -5.21  -3.42
iter:  16 04:36:37 -5157.472870c -5.34  -3.50
iter:  17 04:37:25 -5157.470717c -5.30  -3.55
iter:  18 04:38:13 -5157.471573c -5.83  -3.80
iter:  19 04:39:00 -5157.471290c -5.96  -3.94
iter:  20 04:39:48 -5157.471007c -5.85  -3.95
iter:  21 04:40:36 -5157.471903c -5.88  -4.04c
iter:  22 04:41:24 -5157.471497c -6.15  -3.74
iter:  23 04:42:12 -5157.471065c -6.40  -4.25c
iter:  24 04:42:59 -5157.471698c -6.50  -4.09c
iter:  25 04:43:47 -5157.471382c -6.69  -4.34c
iter:  26 04:44:35 -5157.471306c -6.90  -4.24c
iter:  27 04:45:23 -5157.471417c -7.51c -4.45c

Converged after 27 iterations.

Dipole moment: (-3.346401, -7.092287, -0.070680) |e|*Ang

Energy contributions relative to reference atoms: (reference = -4685874.920122)

Kinetic:       +765.601148
Potential:     -788.433495
External:        +0.000000
XC:            -5123.029752
Entropy (-ST):   -2.230069
Local:          -10.494284
--------------------------
Free energy:   -5158.586452
Extrapolated:  -5157.471417

Showing only first 2 kpts
 Kpt  Band  Eigenvalues  Occupancy
  0   270     -5.37317    1.12502
  0   271     -5.32196    0.87035
  0   272     -5.29373    0.73495
  0   273     -5.27984    0.67166

  1   270     -5.41738    1.33348
  1   271     -5.39798    1.24465
  1   272     -5.37147    1.11666
  1   273     -5.35995    1.05953


Fermi level: -5.34803

No gap

Forces in eV/Ang:
  0 Rh   -0.00039    0.00024    0.17727
  1 Rh   -0.02438   -0.03499   -0.19948
  2 Rh   -0.06528    0.02238   -0.13796
  3 Rh   -0.05715    0.03095    0.13952
  4 Rh    0.00834    0.00008    0.22340
  5 Rh   -0.04603   -0.02603   -0.23298
  6 Rh   -0.00834   -0.06973   -0.14245
  7 Rh   -0.39537   -0.23099   -0.05558
  8 Rh   -0.00388    0.00866    0.16019
  9 Rh   -0.01818    0.01061   -0.20279
 10 Rh   -0.00093    0.00039   -0.03923
 11 Rh   -0.00071   -0.05171    0.12995
 12 Rh   -0.00948   -0.00099    0.16024
 13 Rh   -0.00007    0.00153   -0.34647
 14 Rh    0.06563    0.02496   -0.13539
 15 Rh    0.04529    0.02493    0.13053
 16 Rh   -0.00415   -0.01544    0.17883
 17 Rh    0.04302   -0.02485   -0.22654
 18 Rh    0.00359   -0.00194   -0.53812
 19 Rh    0.02382   -1.23243    0.05835
 20 Rh   -0.00772    0.00447    0.18791
 21 Rh   -0.00046    0.05299   -0.23311
 22 Rh    0.05654    0.04207   -0.14263
 23 Rh   -1.08010    0.62241    0.07287
 24 Rh    0.00413   -0.00735    0.22342
 25 Rh    0.02439   -0.01415   -0.34826
 26 Rh    0.00127   -0.00078    0.01721
 27 Rh    0.00264    0.45720   -0.05544
 28 Rh   -0.00723    0.00420    0.24128
 29 Rh   -0.00141   -0.00064   -0.34607
 30 Rh    0.01052   -0.06848   -0.13395
 31 Rh    0.38232   -0.22044   -0.05338
 32 Rh    0.01132    0.01134    0.17878
 33 Rh    0.01806    0.03868   -0.19938
 34 Rh   -0.05193    0.04432   -0.13672
 35 Rh    1.07165    0.59001    0.06282
 36 C     0.01409    0.00383    1.52612

BFGS:    1 04:45:50    -5157.471417        1.5262
System changes: positions 

Initializing position-dependent things.

Density initialized from wave functions
                                           
                                           
                                           
                                           
                                           
                   C                       
          Rh    Rh     Rh                  
           RRh   RRh    RRh                
              Rh    Rh     Rh              
             Rh    Rh     Rh               
              RRh   RRh    RRh             
                                           
                Rh    Rh     Rh            
                 Rh     Rh     Rh          
          Rh    Rh     Rh                  
            Rh    Rh     Rh                
              Rh    Rh     Rh              
                                           
                                           
                                           
                                           

Positions:
   0 Rh     0.000000    0.000000    9.999999    ( 0.0000,  0.0000,  0.0000)
   1 Rh     1.374814    0.793749   12.245061    ( 0.0000,  0.0000,  0.0000)
   2 Rh    -0.002565    1.586992   14.441496    ( 0.0000,  0.0000,  0.0000)
   3 Rh    -0.001528    0.000813   16.667541    ( 0.0000,  0.0000,  0.0000)
   4 Rh    -1.374814    2.381247    9.999999    ( 0.0000,  0.0000,  0.0000)
   5 Rh    -0.000000    3.174997   12.245061    ( 0.0000,  0.0000,  0.0000)
   6 Rh    -1.374915    3.966455   14.442044    ( 0.0000,  0.0000,  0.0000)
   7 Rh    -1.390311    2.369607   16.657570    ( 0.0000,  0.0000,  0.0000)
   8 Rh    -2.749628    4.762495    9.999999    ( 0.0000,  0.0000,  0.0000)
   9 Rh    -1.374814    5.556244   12.245061    ( 0.0000,  0.0000,  0.0000)
  10 Rh    -2.750610    6.350559   14.445554    ( 0.0000,  0.0000,  0.0000)
  11 Rh    -2.750643    4.763321   16.664651    ( 0.0000,  0.0000,  0.0000)
  12 Rh     2.749628    0.000000    9.999999    ( 0.0000,  0.0000,  0.0000)
  13 Rh     4.124441    0.793749   12.245061    ( 0.0000,  0.0000,  0.0000)
  14 Rh     2.752099    1.588147   14.441484    ( 0.0000,  0.0000,  0.0000)
  15 Rh     2.748435    0.000415   16.664671    ( 0.0000,  0.0000,  0.0000)
  16 Rh     1.374814    2.381247    9.999999    ( 0.0000,  0.0000,  0.0000)
  17 Rh     2.749628    3.174997   12.245061    ( 0.0000,  0.0000,  0.0000)
  18 Rh     1.374500    3.968942   14.422774    ( 0.0000,  0.0000,  0.0000)
  19 Rh     1.374297    2.300457   16.651511    ( 0.0000,  0.0000,  0.0000)
  20 Rh    -0.000000    4.762495    9.999999    ( 0.0000,  0.0000,  0.0000)
  21 Rh     1.374814    5.556244   12.245061    ( 0.0000,  0.0000,  0.0000)
  22 Rh     0.001945    6.351228   14.442039    ( 0.0000,  0.0000,  0.0000)
  23 Rh    -0.068852    4.802264   16.653493    ( 0.0000,  0.0000,  0.0000)
  24 Rh     5.499255    0.000000    9.999999    ( 0.0000,  0.0000,  0.0000)
  25 Rh     6.874069    0.793749   12.245061    ( 0.0000,  0.0000,  0.0000)
  26 Rh     5.499369    1.587429   14.448329    ( 0.0000,  0.0000,  0.0000)
  27 Rh     5.501601    0.019206   16.657574    ( 0.0000,  0.0000,  0.0000)
  28 Rh     4.124441    2.381247    9.999999    ( 0.0000,  0.0000,  0.0000)
  29 Rh     5.499255    3.174997   12.245061    ( 0.0000,  0.0000,  0.0000)
  30 Rh     4.125091    3.966305   14.441530    ( 0.0000,  0.0000,  0.0000)
  31 Rh     4.140960    2.371726   16.658126    ( 0.0000,  0.0000,  0.0000)
  32 Rh     2.749628    4.762495    9.999999    ( 0.0000,  0.0000,  0.0000)
  33 Rh     4.124441    5.556244   12.245061    ( 0.0000,  0.0000,  0.0000)
  34 Rh     2.748783    6.352437   14.441537    ( 0.0000,  0.0000,  0.0000)
  35 Rh     2.818513    4.802881   16.651967    ( 0.0000,  0.0000,  0.0000)
  36 C      1.374610    3.967734   17.543842    ( 0.0000,  0.0000,  0.0000)

Unit cell:
           periodic     x           y           z      points  spacing
  1. axis:    yes    8.248883    0.000000    0.000000    40     0.1786
  2. axis:    yes   -4.124441    7.143742    0.000000    40     0.1786
  3. axis:    no     0.000000    0.000000   26.735183   148     0.1806

  Lengths:   8.248883   8.248883  26.735183
  Angles:   90.000000  90.000000 120.000000

Effective grid spacing dv^(1/3) = 0.1881

     iter     time        total  log10-change:
                         energy  eigst   dens
iter:   1 04:47:40 -5159.144299  -1.60
iter:   2 04:48:29 -5182.102323  -1.63  -2.08
iter:   3 04:49:17 -5157.747153  -2.02  -1.41
iter:   4 04:50:05 -5157.729459  -2.69  -2.64
iter:   5 04:50:54 -5157.662033c -3.35  -2.48
iter:   6 04:51:42 -5157.607569c -3.73  -2.71
iter:   7 04:52:30 -5157.598822c -3.98  -2.99
iter:   8 04:53:19 -5157.595724c -4.25  -3.25
iter:   9 04:54:07 -5157.600613c -4.82  -3.23
iter:  10 04:54:55 -5157.592396c -4.60  -3.15
iter:  11 04:55:44 -5157.597336c -4.52  -3.44
iter:  12 04:56:32 -5157.591389c -4.79  -3.31
iter:  13 04:57:20 -5157.592441c -5.39  -3.65
iter:  14 04:58:09 -5157.592109c -5.87  -3.75
iter:  15 04:58:57 -5157.593815c -5.62  -3.80
iter:  16 04:59:45 -5157.591693c -5.67  -3.51
iter:  17 05:00:34 -5157.592645c -5.89  -3.92
iter:  18 05:01:22 -5157.591741c -6.21  -3.92
iter:  19 05:02:10 -5157.592137c -6.59  -4.13c
iter:  20 05:02:58 -5157.591911c -6.43  -4.19c
iter:  21 05:03:48 -5157.592427c -6.15  -4.22c
iter:  22 05:04:36 -5157.591848c -6.52  -3.88
iter:  23 05:05:24 -5157.592094c -6.95  -4.50c
iter:  24 05:06:13 -5157.591778c -7.15  -4.57c
iter:  25 05:07:01 -5157.592068c -7.25  -4.38c
iter:  26 05:07:49 -5157.591948c -7.40  -4.67c
iter:  27 05:08:38 -5157.592000c -7.85c -4.76c

Converged after 27 iterations.

Dipole moment: (-2.556221, -7.530110, -0.084128) |e|*Ang

Energy contributions relative to reference atoms: (reference = -4685874.920122)

Kinetic:       +759.092906
Potential:     -783.179026
External:        +0.000000
XC:            -5121.936018
Entropy (-ST):   -2.223062
Local:          -10.458330
--------------------------
Free energy:   -5158.703531
Extrapolated:  -5157.592000

Showing only first 2 kpts
 Kpt  Band  Eigenvalues  Occupancy
  0   270     -5.38915    1.14121
  0   271     -5.33453    0.86981
  0   272     -5.30626    0.73426
  0   273     -5.28923    0.65705

  1   270     -5.42928    1.32998
  1   271     -5.40933    1.23837
  1   272     -5.38718    1.13155
  1   273     -5.37462    1.06939


Fermi level: -5.36072

No gap

Forces in eV/Ang:
  0 Rh    0.00138   -0.00079    0.17356
  1 Rh   -0.02447   -0.04023   -0.20863
  2 Rh   -0.03923    0.02997   -0.09257
  3 Rh   -0.07272    0.03977    0.12399
  4 Rh    0.01022    0.00091    0.21047
  5 Rh   -0.06352   -0.03565   -0.26293
  6 Rh    0.01011   -0.05198   -0.10019
  7 Rh   -0.25219   -0.14226   -0.03758
  8 Rh   -0.00327    0.01047    0.15573
  9 Rh   -0.02400    0.01393   -0.21198
 10 Rh   -0.00080    0.00029   -0.02211
 11 Rh    0.00045   -0.07202    0.11459
 12 Rh   -0.01073   -0.00242    0.15577
 13 Rh    0.00165    0.00324   -0.35060
 14 Rh    0.04169    0.03113   -0.09734
 15 Rh    0.06355    0.03390    0.11503
 16 Rh   -0.00396   -0.01585    0.17225
 17 Rh    0.06049   -0.03489   -0.25626
 18 Rh    0.00058   -0.00052   -0.24039
 19 Rh    0.01317   -0.19132    0.31898
 20 Rh   -0.00784    0.00452    0.18145
 21 Rh   -0.00083    0.07297   -0.26303
 22 Rh    0.05030    0.01709   -0.10029
 23 Rh   -0.16513    0.09342    0.33089
 24 Rh    0.00435   -0.00939    0.21039
 25 Rh    0.02226   -0.01296   -0.35264
 26 Rh    0.00176   -0.00107   -0.04413
 27 Rh   -0.00288    0.28934   -0.03757
 28 Rh   -0.00950    0.00551    0.22875
 29 Rh   -0.00207   -0.00293   -0.35023
 30 Rh   -0.00669   -0.05093   -0.09611
 31 Rh    0.23411   -0.13519   -0.03891
 32 Rh    0.01177    0.01136    0.17225
 33 Rh    0.02253    0.04134   -0.20844
 34 Rh   -0.04545    0.01796   -0.09149
 35 Rh    0.17442    0.08355    0.31780
 36 C    -0.00281    0.00433    0.45631

BFGS:    2 05:09:05    -5157.592000        0.4563
System changes: positions 

Initializing position-dependent things.

Density initialized from wave functions
                                           
                                           
                                           
                                           
                                           
                   C                       
          Rh    Rh     Rh                  
           RRh   RRh    RRh                
              Rh    Rh     Rh              
             Rh    Rh     Rh               
              RRh   RRh    RRh             
                                           
                Rh    Rh     Rh            
                 Rh     Rh     Rh          
          Rh    Rh     Rh                  
            Rh    Rh     Rh                
              Rh    Rh     Rh              
                                           
                                           
                                           
                                           

Positions:
   0 Rh     0.000000    0.000000    9.999999    ( 0.0000,  0.0000,  0.0000)
   1 Rh     1.374814    0.793749   12.245061    ( 0.0000,  0.0000,  0.0000)
   2 Rh    -0.003608    1.587662   14.439104    ( 0.0000,  0.0000,  0.0000)
   3 Rh    -0.003165    0.001706   16.670549    ( 0.0000,  0.0000,  0.0000)
   4 Rh    -1.374814    2.381247    9.999999    ( 0.0000,  0.0000,  0.0000)
   5 Rh    -0.000000    3.174997   12.245061    ( 0.0000,  0.0000,  0.0000)
   6 Rh    -1.374762    3.965150   14.439486    ( 0.0000,  0.0000,  0.0000)
   7 Rh    -1.396954    2.365825   16.656605    ( 0.0000,  0.0000,  0.0000)
   8 Rh    -2.749628    4.762495    9.999999    ( 0.0000,  0.0000,  0.0000)
   9 Rh    -1.374814    5.556244   12.245061    ( 0.0000,  0.0000,  0.0000)
  10 Rh    -2.750629    6.350566   14.444963    ( 0.0000,  0.0000,  0.0000)
  11 Rh    -2.750639    4.761724   16.667436    ( 0.0000,  0.0000,  0.0000)
  12 Rh     2.749628    0.000000    9.999999    ( 0.0000,  0.0000,  0.0000)
  13 Rh     4.124441    0.793749   12.245061    ( 0.0000,  0.0000,  0.0000)
  14 Rh     2.753192    1.588851   14.439013    ( 0.0000,  0.0000,  0.0000)
  15 Rh     2.749842    0.001170   16.667466    ( 0.0000,  0.0000,  0.0000)
  16 Rh     1.374814    2.381247    9.999999    ( 0.0000,  0.0000,  0.0000)
  17 Rh     2.749628    3.174997   12.245061    ( 0.0000,  0.0000,  0.0000)
  18 Rh     1.374528    3.968923   14.415672    ( 0.0000,  0.0000,  0.0000)
  19 Rh     1.374650    2.290485   16.657640    ( 0.0000,  0.0000,  0.0000)
  20 Rh    -0.000000    4.762495    9.999999    ( 0.0000,  0.0000,  0.0000)
  21 Rh     1.374814    5.556244   12.245061    ( 0.0000,  0.0000,  0.0000)
  22 Rh     0.003157    6.351746   14.439478    ( 0.0000,  0.0000,  0.0000)
  23 Rh    -0.077532    4.807235   16.659913    ( 0.0000,  0.0000,  0.0000)
  24 Rh     5.499255    0.000000    9.999999    ( 0.0000,  0.0000,  0.0000)
  25 Rh     6.874069    0.793749   12.245061    ( 0.0000,  0.0000,  0.0000)
  26 Rh     5.499408    1.587406   14.447577    ( 0.0000,  0.0000,  0.0000)
  27 Rh     5.501557    0.026843   16.656609    ( 0.0000,  0.0000,  0.0000)
  28 Rh     4.124441    2.381247    9.999999    ( 0.0000,  0.0000,  0.0000)
  29 Rh     5.499255    3.174997   12.245061    ( 0.0000,  0.0000,  0.0000)
  30 Rh     4.125013    3.965025   14.439089    ( 0.0000,  0.0000,  0.0000)
  31 Rh     4.147203    2.368122   16.657144    ( 0.0000,  0.0000,  0.0000)
  32 Rh     2.749628    4.762495    9.999999    ( 0.0000,  0.0000,  0.0000)
  33 Rh     4.124441    5.556244   12.245061    ( 0.0000,  0.0000,  0.0000)
  34 Rh     2.747684    6.352982   14.439172    ( 0.0000,  0.0000,  0.0000)
  35 Rh     2.827318    4.807515   16.658101    ( 0.0000,  0.0000,  0.0000)
  36 C      1.374632    3.967839   17.560220    ( 0.0000,  0.0000,  0.0000)

Unit cell:
           periodic     x           y           z      points  spacing
  1. axis:    yes    8.248883    0.000000    0.000000    40     0.1786
  2. axis:    yes   -4.124441    7.143742    0.000000    40     0.1786
  3. axis:    no     0.000000    0.000000   26.735183   148     0.1806

  Lengths:   8.248883   8.248883  26.735183
  Angles:   90.000000  90.000000 120.000000

Effective grid spacing dv^(1/3) = 0.1881

     iter     time        total  log10-change:
                         energy  eigst   dens
iter:   1 05:10:56 -5157.892532  -2.35
iter:   2 05:11:45 -5163.117510  -2.33  -2.41
iter:   3 05:12:34 -5157.634513  -2.71  -1.70
iter:   4 05:13:23 -5157.621526  -3.63  -2.99
iter:   5 05:14:11 -5157.622549c -4.20  -3.13
iter:   6 05:15:00 -5157.615973c -4.51  -3.29
iter:   7 05:15:49 -5157.616848c -4.78  -3.27
iter:   8 05:16:38 -5157.616847c -4.80  -3.57
iter:   9 05:17:26 -5157.615851c -5.48  -3.32
iter:  10 05:18:15 -5157.614858c -5.49  -3.53
iter:  11 05:19:04 -5157.615162c -5.28  -3.84
iter:  12 05:19:52 -5157.614212c -5.66  -3.95
iter:  13 05:20:41 -5157.614873c -6.31  -3.98
iter:  14 05:21:30 -5157.614578c -6.68  -4.08c
iter:  15 05:22:18 -5157.614768c -6.76  -4.12c
iter:  16 05:23:07 -5157.614580c -6.46  -3.93
iter:  17 05:23:56 -5157.614642c -6.47  -4.35c
iter:  18 05:24:44 -5157.614409c -6.92  -4.30c
iter:  19 05:25:33 -5157.614658c -7.34  -4.46c
iter:  20 05:26:22 -5157.614493c -7.18  -4.44c
iter:  21 05:27:10 -5157.614583c -6.93  -4.37c
iter:  22 05:27:59 -5157.614535c -7.26  -4.23c
iter:  23 05:28:48 -5157.614548c -7.84c -4.90c

Converged after 23 iterations.

Dipole moment: (-1.930446, -7.875705, -0.090559) |e|*Ang

Energy contributions relative to reference atoms: (reference = -4685874.920122)

Kinetic:       +756.680468
Potential:     -781.203859
External:        +0.000000
XC:            -5121.525154
Entropy (-ST):   -2.219330
Local:          -10.456339
--------------------------
Free energy:   -5158.724213
Extrapolated:  -5157.614548

Showing only first 2 kpts
 Kpt  Band  Eigenvalues  Occupancy
  0   270     -5.39451    1.14518
  0   271     -5.33904    0.86959
  0   272     -5.31063    0.73342
  0   273     -5.29269    0.65226

  1   270     -5.43412    1.33127
  1   271     -5.41381    1.23803
  1   272     -5.39335    1.13947
  1   273     -5.38000    1.07354


Fermi level: -5.36527

No gap

Forces in eV/Ang:
  0 Rh    0.00284   -0.00164    0.17561
  1 Rh   -0.02475   -0.04339   -0.21311
  2 Rh   -0.01332    0.02531   -0.04515
  3 Rh   -0.06530    0.03584    0.10187
  4 Rh    0.01073    0.00105    0.20949
  5 Rh   -0.07001   -0.03939   -0.28118
  6 Rh    0.01799   -0.02690   -0.05346
  7 Rh   -0.15910   -0.08166   -0.02455
  8 Rh   -0.00307    0.01192    0.15741
  9 Rh   -0.02756    0.01597   -0.21631
 10 Rh   -0.00065    0.00029    0.00762
 11 Rh    0.00044   -0.06627    0.09292
 12 Rh   -0.01189   -0.00332    0.15744
 13 Rh    0.00254    0.00403   -0.35676
 14 Rh    0.01663    0.02571   -0.05319
 15 Rh    0.05840    0.03123    0.09318
 16 Rh   -0.00376   -0.01620    0.17313
 17 Rh    0.06690   -0.03854   -0.27447
 18 Rh    0.00028   -0.00047   -0.07918
 19 Rh    0.00582    0.13376    0.34473
 20 Rh   -0.00806    0.00464    0.18261
 21 Rh   -0.00080    0.08045   -0.28124
 22 Rh    0.03240   -0.00236   -0.05345
 23 Rh    0.10760   -0.06385    0.35887
 24 Rh    0.00449   -0.00990    0.20939
 25 Rh    0.02136   -0.01251   -0.35866
 26 Rh    0.00168   -0.00102   -0.07170
 27 Rh   -0.00901    0.17846   -0.02454
 28 Rh   -0.01012    0.00586    0.22772
 29 Rh   -0.00238   -0.00407   -0.35636
 30 Rh   -0.01435   -0.02685   -0.05248
 31 Rh    0.14598   -0.08453   -0.02819
 32 Rh    0.01218    0.01136    0.17314
 33 Rh    0.02511    0.04313   -0.21291
 34 Rh   -0.02855   -0.00190   -0.04447
 35 Rh   -0.10904   -0.07155    0.34267
 36 C    -0.00787    0.00615    0.13843

BFGS:    3 05:29:15    -5157.614548        0.3801
System changes: positions 

Initializing position-dependent things.

Density initialized from wave functions
                                           
                                           
                                           
                                           
                                           
                   C                       
          Rh    Rh     Rh                  
           RRh   RRh    RRh                
              Rh    Rh     Rh              
             Rh    Rh     Rh               
              RRh   RRh    RRh             
                                           
                Rh    Rh     Rh            
                 Rh     Rh     Rh          
          Rh    Rh     Rh                  
            Rh    Rh     Rh                
              Rh    Rh     Rh              
                                           
                                           
                                           
                                           

Positions:
   0 Rh     0.000000    0.000000    9.999999    ( 0.0000,  0.0000,  0.0000)
   1 Rh     1.374814    0.793749   12.245061    ( 0.0000,  0.0000,  0.0000)
   2 Rh    -0.004442    1.588542   14.436880    ( 0.0000,  0.0000,  0.0000)
   3 Rh    -0.005399    0.002930   16.674328    ( 0.0000,  0.0000,  0.0000)
   4 Rh    -1.374814    2.381247    9.999999    ( 0.0000,  0.0000,  0.0000)
   5 Rh    -0.000000    3.174997   12.245061    ( 0.0000,  0.0000,  0.0000)
   6 Rh    -1.374308    3.963897   14.436997    ( 0.0000,  0.0000,  0.0000)
   7 Rh    -1.403972    2.362025   16.655564    ( 0.0000,  0.0000,  0.0000)
   8 Rh    -2.749628    4.762495    9.999999    ( 0.0000,  0.0000,  0.0000)
   9 Rh    -1.374814    5.556244   12.245061    ( 0.0000,  0.0000,  0.0000)
  10 Rh    -2.750653    6.350576   14.444844    ( 0.0000,  0.0000,  0.0000)
  11 Rh    -2.750629    4.759496   16.670905    ( 0.0000,  0.0000,  0.0000)
  12 Rh     2.749628    0.000000    9.999999    ( 0.0000,  0.0000,  0.0000)
  13 Rh     4.124441    0.793749   12.245061    ( 0.0000,  0.0000,  0.0000)
  14 Rh     2.754120    1.589758   14.436578    ( 0.0000,  0.0000,  0.0000)
  15 Rh     2.751804    0.002223   16.670946    ( 0.0000,  0.0000,  0.0000)
  16 Rh     1.374814    2.381247    9.999999    ( 0.0000,  0.0000,  0.0000)
  17 Rh     2.749628    3.174997   12.245061    ( 0.0000,  0.0000,  0.0000)
  18 Rh     1.374552    3.968901   14.410006    ( 0.0000,  0.0000,  0.0000)
  19 Rh     1.374961    2.286658   16.667835    ( 0.0000,  0.0000,  0.0000)
  20 Rh    -0.000000    4.762495    9.999999    ( 0.0000,  0.0000,  0.0000)
  21 Rh     1.374814    5.556244   12.245061    ( 0.0000,  0.0000,  0.0000)
  22 Rh     0.004475    6.351973   14.436989    ( 0.0000,  0.0000,  0.0000)
  23 Rh    -0.081074    4.809224   16.670574    ( 0.0000,  0.0000,  0.0000)
  24 Rh     5.499255    0.000000    9.999999    ( 0.0000,  0.0000,  0.0000)
  25 Rh     6.874069    0.793749   12.245061    ( 0.0000,  0.0000,  0.0000)
  26 Rh     5.499464    1.587372   14.445682    ( 0.0000,  0.0000,  0.0000)
  27 Rh     5.501336    0.034813   16.655569    ( 0.0000,  0.0000,  0.0000)
  28 Rh     4.124441    2.381247    9.999999    ( 0.0000,  0.0000,  0.0000)
  29 Rh     5.499255    3.174997   12.245061    ( 0.0000,  0.0000,  0.0000)
  30 Rh     4.124676    3.963784   14.436685    ( 0.0000,  0.0000,  0.0000)
  31 Rh     4.153743    2.364341   16.656016    ( 0.0000,  0.0000,  0.0000)
  32 Rh     2.749628    4.762495    9.999999    ( 0.0000,  0.0000,  0.0000)
  33 Rh     4.124441    5.556244   12.245061    ( 0.0000,  0.0000,  0.0000)
  34 Rh     2.746507    6.353235   14.436975    ( 0.0000,  0.0000,  0.0000)
  35 Rh     2.830847    4.809134   16.668266    ( 0.0000,  0.0000,  0.0000)
  36 C      1.374499    3.968032   17.573361    ( 0.0000,  0.0000,  0.0000)

Unit cell:
           periodic     x           y           z      points  spacing
  1. axis:    yes    8.248883    0.000000    0.000000    40     0.1786
  2. axis:    yes   -4.124441    7.143742    0.000000    40     0.1786
  3. axis:    no     0.000000    0.000000   26.735183   148     0.1806

  Lengths:   8.248883   8.248883  26.735183
  Angles:   90.000000  90.000000 120.000000

Effective grid spacing dv^(1/3) = 0.1881

     iter     time        total  log10-change:
                         energy  eigst   dens
iter:   1 05:31:06 -5158.145668  -2.43
iter:   2 05:31:54 -5175.418338  -1.80  -2.20
iter:   3 05:32:43 -5157.806470  -2.28  -1.47
iter:   4 05:33:31 -5157.632307  -3.02  -2.53
iter:   5 05:34:20 -5157.632885c -3.85  -3.23
iter:   6 05:35:08 -5157.632183c -4.45  -3.27
iter:   7 05:35:57 -5157.631754c -4.60  -3.34
iter:   8 05:36:45 -5157.629727c -4.60  -3.58
iter:   9 05:37:34 -5157.630467c -5.51  -3.80
iter:  10 05:38:22 -5157.630104c -5.96  -3.64
iter:  11 05:39:11 -5157.629464c -5.82  -3.88
iter:  12 05:39:59 -5157.629740c -5.97  -4.00c
iter:  13 05:40:48 -5157.629357c -6.57  -4.10c
iter:  14 05:41:37 -5157.629507c -6.17  -4.16c
iter:  15 05:42:25 -5157.629527c -6.84  -4.44c
iter:  16 05:43:14 -5157.629444c -7.28  -4.43c
iter:  17 05:44:02 -5157.629501c -7.13  -4.34c
iter:  18 05:44:51 -5157.629342c -7.25  -4.57c
iter:  19 05:45:39 -5157.629492c -7.74c -4.67c

Converged after 19 iterations.

Dipole moment: (-1.223730, -8.264845, -0.094981) |e|*Ang

Energy contributions relative to reference atoms: (reference = -4685874.920122)

Kinetic:       +754.748646
Potential:     -779.589755
External:        +0.000000
XC:            -5121.226282
Entropy (-ST):   -2.216458
Local:          -10.453871
--------------------------
Free energy:   -5158.737721
Extrapolated:  -5157.629492

Showing only first 2 kpts
 Kpt  Band  Eigenvalues  Occupancy
  0   270     -5.39801    1.14560
  0   271     -5.34236    0.86916
  0   272     -5.31378    0.73217
  0   273     -5.29565    0.65027

  1   270     -5.43825    1.33444
  1   271     -5.41752    1.23947
  1   272     -5.39811    1.14609
  1   273     -5.38362    1.07456


Fermi level: -5.36868

No gap

Forces in eV/Ang:
  0 Rh    0.00421   -0.00243    0.17379
  1 Rh   -0.02517   -0.04712   -0.21512
  2 Rh    0.01639    0.01686    0.00976
  3 Rh   -0.04592    0.02540    0.07406
  4 Rh    0.01088    0.00108    0.20711
  5 Rh   -0.07349   -0.04171   -0.29638
  6 Rh    0.02461    0.00404    0.00191
  7 Rh   -0.06721   -0.02230   -0.01028
  8 Rh   -0.00304    0.01331    0.15543
  9 Rh   -0.03158    0.01827   -0.21807
 10 Rh   -0.00053    0.00035    0.04303
 11 Rh   -0.00075   -0.04776    0.06661
 12 Rh   -0.01308   -0.00404    0.15544
 13 Rh    0.00223    0.00386   -0.36261
 14 Rh   -0.01312    0.01669    0.00051
 15 Rh    0.04139    0.02346    0.06665
 16 Rh   -0.00355   -0.01609    0.17034
 17 Rh    0.07029   -0.04044   -0.28996
 18 Rh    0.00048   -0.00065    0.05285
 19 Rh   -0.00095    0.25871    0.29222
 20 Rh   -0.00806    0.00462    0.18013
 21 Rh   -0.00048    0.08461   -0.29638
 22 Rh    0.00877   -0.02365    0.00203
 23 Rh    0.20932   -0.12209    0.30896
 24 Rh    0.00452   -0.01002    0.20700
 25 Rh    0.02200   -0.01297   -0.36403
 26 Rh    0.00161   -0.00098   -0.09019
 27 Rh   -0.01465    0.06908   -0.01020
 28 Rh   -0.01032    0.00597    0.22525
 29 Rh   -0.00246   -0.00368   -0.36218
 30 Rh   -0.02118    0.00297    0.00054
 31 Rh    0.06348   -0.03711   -0.01532
 32 Rh    0.01219    0.01111    0.17037
 33 Rh    0.02812    0.04533   -0.21491
 34 Rh   -0.00652   -0.02308    0.00990
 35 Rh   -0.22092   -0.12767    0.29005
 36 C    -0.00301    0.00271    0.00350

BFGS:    4 05:46:07    -5157.629492        0.3927
System changes: positions 

Initializing position-dependent things.

Density initialized from wave functions
                                           
                                           
                                           
                                           
                                           
                   C                       
          Rh    Rh     Rh                  
           RRh   RRh    RRh                
              Rh    Rh     Rh              
             Rh    Rh     Rh               
              RRh   RRh    RRh             
                                           
                Rh    Rh     Rh            
                 Rh     Rh     Rh          
          Rh    Rh     Rh                  
            Rh    Rh     Rh                
              Rh    Rh     Rh              
                                           
                                           
                                           
                                           

Positions:
   0 Rh     0.000000    0.000000    9.999999    ( 0.0000,  0.0000,  0.0000)
   1 Rh     1.374814    0.793749   12.245061    ( 0.0000,  0.0000,  0.0000)
   2 Rh    -0.004833    1.589756   14.435024    ( 0.0000,  0.0000,  0.0000)
   3 Rh    -0.008544    0.004658   16.679645    ( 0.0000,  0.0000,  0.0000)
   4 Rh    -1.374814    2.381247    9.999999    ( 0.0000,  0.0000,  0.0000)
   5 Rh    -0.000000    3.174997   12.245061    ( 0.0000,  0.0000,  0.0000)
   6 Rh    -1.373306    3.962826   14.434711    ( 0.0000,  0.0000,  0.0000)
   7 Rh    -1.412262    2.357864   16.654339    ( 0.0000,  0.0000,  0.0000)
   8 Rh    -2.749628    4.762495    9.999999    ( 0.0000,  0.0000,  0.0000)
   9 Rh    -1.374814    5.556244   12.245061    ( 0.0000,  0.0000,  0.0000)
  10 Rh    -2.750689    6.350595   14.445772    ( 0.0000,  0.0000,  0.0000)
  11 Rh    -2.750644    4.756318   16.675755    ( 0.0000,  0.0000,  0.0000)
  12 Rh     2.749628    0.000000    9.999999    ( 0.0000,  0.0000,  0.0000)
  13 Rh     4.124441    0.793749   12.245061    ( 0.0000,  0.0000,  0.0000)
  14 Rh     2.754676    1.590995   14.434315    ( 0.0000,  0.0000,  0.0000)
  15 Rh     2.754585    0.003749   16.675808    ( 0.0000,  0.0000,  0.0000)
  16 Rh     1.374814    2.381247    9.999999    ( 0.0000,  0.0000,  0.0000)
  17 Rh     2.749628    3.174997   12.245061    ( 0.0000,  0.0000,  0.0000)
  18 Rh     1.374590    3.968863   14.405671    ( 0.0000,  0.0000,  0.0000)
  19 Rh     1.375234    2.287745   16.683917    ( 0.0000,  0.0000,  0.0000)
  20 Rh    -0.000000    4.762495    9.999999    ( 0.0000,  0.0000,  0.0000)
  21 Rh     1.374814    5.556244   12.245061    ( 0.0000,  0.0000,  0.0000)
  22 Rh     0.005907    6.351628   14.434704    ( 0.0000,  0.0000,  0.0000)
  23 Rh    -0.080686    4.808920   16.687493    ( 0.0000,  0.0000,  0.0000)
  24 Rh     5.499255    0.000000    9.999999    ( 0.0000,  0.0000,  0.0000)
  25 Rh     6.874069    0.793749   12.245061    ( 0.0000,  0.0000,  0.0000)
  26 Rh     5.499555    1.587316   14.441809    ( 0.0000,  0.0000,  0.0000)
  27 Rh     5.500784    0.044058   16.654347    ( 0.0000,  0.0000,  0.0000)
  28 Rh     4.124441    2.381247    9.999999    ( 0.0000,  0.0000,  0.0000)
  29 Rh     5.499255    3.174997   12.245061    ( 0.0000,  0.0000,  0.0000)
  30 Rh     4.123864    3.962700   14.434450    ( 0.0000,  0.0000,  0.0000)
  31 Rh     4.161514    2.359839   16.654593    ( 0.0000,  0.0000,  0.0000)
  32 Rh     2.749628    4.762495    9.999999    ( 0.0000,  0.0000,  0.0000)
  33 Rh     4.124441    5.556244   12.245061    ( 0.0000,  0.0000,  0.0000)
  34 Rh     2.745258    6.352929   14.435149    ( 0.0000,  0.0000,  0.0000)
  35 Rh     2.830166    4.808344   16.684276    ( 0.0000,  0.0000,  0.0000)
  36 C      1.374351    3.968260   17.587237    ( 0.0000,  0.0000,  0.0000)

Unit cell:
           periodic     x           y           z      points  spacing
  1. axis:    yes    8.248883    0.000000    0.000000    40     0.1786
  2. axis:    yes   -4.124441    7.143742    0.000000    40     0.1786
  3. axis:    no     0.000000    0.000000   26.735183   148     0.1806

  Lengths:   8.248883   8.248883  26.735183
  Angles:   90.000000  90.000000 120.000000

Effective grid spacing dv^(1/3) = 0.1881

     iter     time        total  log10-change:
                         energy  eigst   dens
iter:   1 05:47:58 -5158.271076  -2.22
iter:   2 05:48:46 -5178.603984  -1.70  -2.16
iter:   3 05:49:35 -5157.996909  -2.19  -1.44
iter:   4 05:50:23 -5157.652361  -2.88  -2.37
iter:   5 05:51:12 -5157.648534  -3.64  -3.14
iter:   6 05:52:01 -5157.647205c -4.21  -3.15
iter:   7 05:52:49 -5157.646820c -4.53  -3.25
iter:   8 05:53:38 -5157.644052c -4.91  -3.46
iter:   9 05:54:26 -5157.645679c -5.37  -3.67
iter:  10 05:55:15 -5157.645193c -5.34  -3.47
iter:  11 05:56:03 -5157.643865c -5.65  -3.69
iter:  12 05:56:52 -5157.643929c -6.06  -3.85
iter:  13 05:57:40 -5157.644059c -6.63  -3.95
iter:  14 05:58:29 -5157.643133c -6.06  -4.03c
iter:  15 05:59:17 -5157.643958c -6.57  -4.02c
iter:  16 06:00:06 -5157.643774c -6.56  -3.98
iter:  17 06:00:54 -5157.643481c -7.14  -4.13c
iter:  18 06:01:43 -5157.643562c -7.23  -4.35c
iter:  19 06:02:32 -5157.643635c -6.98  -4.33c
iter:  20 06:03:20 -5157.643534c -7.13  -4.45c
iter:  21 06:04:09 -5157.643690c -7.13  -4.70c
iter:  22 06:04:57 -5157.643598c -7.87c -4.56c

Converged after 22 iterations.

Dipole moment: (-0.333427, -8.754083, -0.097121) |e|*Ang

Energy contributions relative to reference atoms: (reference = -4685874.920122)

Kinetic:       +753.377389
Potential:     -778.454126
External:        +0.000000
XC:            -5121.001302
Entropy (-ST):   -2.214585
Local:          -10.458267
--------------------------
Free energy:   -5158.750891
Extrapolated:  -5157.643598

Showing only first 2 kpts
 Kpt  Band  Eigenvalues  Occupancy
  0   270     -5.39825    1.14302
  0   271     -5.34293    0.86813
  0   272     -5.31431    0.73105
  0   273     -5.29656    0.65088

  1   270     -5.43984    1.33810
  1   271     -5.41865    1.24114
  1   272     -5.40004    1.15174
  1   273     -5.38404    1.07279


Fermi level: -5.36945

No gap

Forces in eV/Ang:
  0 Rh    0.00543   -0.00314    0.17271
  1 Rh   -0.02582   -0.05128   -0.21774
  2 Rh    0.04565    0.00424    0.07505
  3 Rh   -0.01426    0.00822    0.01904
  4 Rh    0.01088    0.00113    0.20884
  5 Rh   -0.07345   -0.04221   -0.30963
  6 Rh    0.02745    0.03779    0.06893
  7 Rh    0.03539    0.04255   -0.01683
  8 Rh   -0.00317    0.01449    0.15432
  9 Rh   -0.03582    0.02070   -0.22031
 10 Rh   -0.00039    0.00038    0.08406
 11 Rh   -0.00259   -0.01679    0.01544
 12 Rh   -0.01416   -0.00452    0.15430
 13 Rh   -0.00004    0.00216   -0.37246
 14 Rh   -0.04326    0.00344    0.06696
 15 Rh    0.01308    0.01028    0.01525
 16 Rh   -0.00329   -0.01587    0.16925
 17 Rh    0.07009   -0.04028   -0.30390
 18 Rh    0.00028   -0.00055    0.16465
 19 Rh   -0.00876    0.24141    0.16825
 20 Rh   -0.00816    0.00466    0.17954
 21 Rh    0.00001    0.08477   -0.30954
 22 Rh   -0.01922   -0.04302    0.06911
 23 Rh    0.18832   -0.10921    0.18497
 24 Rh    0.00447   -0.01001    0.20874
 25 Rh    0.02503   -0.01482   -0.37289
 26 Rh    0.00190   -0.00118   -0.08535
 27 Rh   -0.01970   -0.05237   -0.01666
 28 Rh   -0.01032    0.00596    0.22669
 29 Rh   -0.00221   -0.00085   -0.37204
 30 Rh   -0.02452    0.03518    0.06622
 31 Rh   -0.02737    0.01517   -0.02149
 32 Rh    0.01213    0.01076    0.16928
 33 Rh    0.03138    0.04795   -0.21755
 34 Rh    0.01888   -0.04169    0.07456
 35 Rh   -0.21166   -0.11221    0.16690
 36 C    -0.00276    0.00278    0.01855

BFGS:    5 06:05:25    -5157.643598        0.2944
System changes: positions 

Initializing position-dependent things.

Density initialized from wave functions
                                           
                                           
                                           
                                           
                                           
                   C                       
          Rh    Rh     Rh                  
           RRh   RRh    RRh                
              Rh    Rh     Rh              
             Rh    Rh     Rh               
              RRh   RRh    RRh             
                                           
                Rh    Rh     Rh            
                 Rh     Rh     Rh          
          Rh    Rh     Rh                  
            Rh    Rh     Rh                
              Rh    Rh     Rh              
                                           
                                           
                                           
                                           

Positions:
   0 Rh     0.000000    0.000000    9.999999    ( 0.0000,  0.0000,  0.0000)
   1 Rh     1.374814    0.793749   12.245061    ( 0.0000,  0.0000,  0.0000)
   2 Rh    -0.004204    1.590591   14.435338    ( 0.0000,  0.0000,  0.0000)
   3 Rh    -0.010758    0.005881   16.683253    ( 0.0000,  0.0000,  0.0000)
   4 Rh    -1.374814    2.381247    9.999999    ( 0.0000,  0.0000,  0.0000)
   5 Rh    -0.000000    3.174997   12.245061    ( 0.0000,  0.0000,  0.0000)
   6 Rh    -1.372158    3.962886   14.434640    ( 0.0000,  0.0000,  0.0000)
   7 Rh    -1.416740    2.356093   16.653162    ( 0.0000,  0.0000,  0.0000)
   8 Rh    -2.749628    4.762495    9.999999    ( 0.0000,  0.0000,  0.0000)
   9 Rh    -1.374814    5.556244   12.245061    ( 0.0000,  0.0000,  0.0000)
  10 Rh    -2.750718    6.350613   14.447988    ( 0.0000,  0.0000,  0.0000)
  11 Rh    -2.750705    4.754035   16.679010    ( 0.0000,  0.0000,  0.0000)
  12 Rh     2.749628    0.000000    9.999999    ( 0.0000,  0.0000,  0.0000)
  13 Rh     4.124441    0.793749   12.245061    ( 0.0000,  0.0000,  0.0000)
  14 Rh     2.754193    1.591829   14.434225    ( 0.0000,  0.0000,  0.0000)
  15 Rh     2.756550    0.004891   16.679066    ( 0.0000,  0.0000,  0.0000)
  16 Rh     1.374814    2.381247    9.999999    ( 0.0000,  0.0000,  0.0000)
  17 Rh     2.749628    3.174997   12.245061    ( 0.0000,  0.0000,  0.0000)
  18 Rh     1.374616    3.968831   14.406075    ( 0.0000,  0.0000,  0.0000)
  19 Rh     1.375232    2.292751   16.697075    ( 0.0000,  0.0000,  0.0000)
  20 Rh    -0.000000    4.762495    9.999999    ( 0.0000,  0.0000,  0.0000)
  21 Rh     1.374814    5.556244   12.245061    ( 0.0000,  0.0000,  0.0000)
  22 Rh     0.006428    6.350589   14.434637    ( 0.0000,  0.0000,  0.0000)
  23 Rh    -0.077081    4.806779   16.701487    ( 0.0000,  0.0000,  0.0000)
  24 Rh     5.499255    0.000000    9.999999    ( 0.0000,  0.0000,  0.0000)
  25 Rh     6.874069    0.793749   12.245061    ( 0.0000,  0.0000,  0.0000)
  26 Rh     5.499650    1.587257   14.437811    ( 0.0000,  0.0000,  0.0000)
  27 Rh     5.500061    0.048803   16.653175    ( 0.0000,  0.0000,  0.0000)
  28 Rh     4.124441    2.381247    9.999999    ( 0.0000,  0.0000,  0.0000)
  29 Rh     5.499255    3.174997   12.245061    ( 0.0000,  0.0000,  0.0000)
  30 Rh     4.122891    3.962700   14.434364    ( 0.0000,  0.0000,  0.0000)
  31 Rh     4.165825    2.357329   16.653209    ( 0.0000,  0.0000,  0.0000)
  32 Rh     2.749628    4.762495    9.999999    ( 0.0000,  0.0000,  0.0000)
  33 Rh     4.124441    5.556244   12.245061    ( 0.0000,  0.0000,  0.0000)
  34 Rh     2.744844    6.351943   14.435472    ( 0.0000,  0.0000,  0.0000)
  35 Rh     2.825939    4.805854   16.697365    ( 0.0000,  0.0000,  0.0000)
  36 C      1.374185    3.968468   17.596654    ( 0.0000,  0.0000,  0.0000)

Unit cell:
           periodic     x           y           z      points  spacing
  1. axis:    yes    8.248883    0.000000    0.000000    40     0.1786
  2. axis:    yes   -4.124441    7.143742    0.000000    40     0.1786
  3. axis:    no     0.000000    0.000000   26.735183   148     0.1806

  Lengths:   8.248883   8.248883  26.735183
  Angles:   90.000000  90.000000 120.000000

Effective grid spacing dv^(1/3) = 0.1881

     iter     time        total  log10-change:
                         energy  eigst   dens
iter:   1 06:07:15 -5157.823011  -2.45
iter:   2 06:08:03 -5162.495627  -2.35  -2.44
iter:   3 06:08:52 -5157.777418  -2.72  -1.73
iter:   4 06:09:40 -5157.654382  -3.52  -2.66
iter:   5 06:10:29 -5157.652449c -4.23  -3.25
iter:   6 06:11:17 -5157.651256c -4.44  -3.36
iter:   7 06:12:06 -5157.652214c -5.01  -3.54
iter:   8 06:12:54 -5157.651696c -5.55  -3.63
iter:   9 06:13:43 -5157.652803c -5.77  -3.82
iter:  10 06:14:32 -5157.651561c -5.46  -3.43
iter:  11 06:15:20 -5157.651184c -5.96  -4.02c
iter:  12 06:16:09 -5157.651541c -6.76  -4.16c
iter:  13 06:16:57 -5157.651178c -6.53  -4.24c
iter:  14 06:17:46 -5157.651369c -6.63  -4.45c
iter:  15 06:18:34 -5157.651374c -7.11  -4.48c
iter:  16 06:19:22 -5157.651329c -7.47c -4.39c

Converged after 16 iterations.

Dipole moment: (0.211899, -9.056252, -0.098885) |e|*Ang

Energy contributions relative to reference atoms: (reference = -4685874.920122)

Kinetic:       +752.495542
Potential:     -777.703592
External:        +0.000000
XC:            -5120.877358
Entropy (-ST):   -2.215176
Local:          -10.458332
--------------------------
Free energy:   -5158.758917
Extrapolated:  -5157.651329

Showing only first 2 kpts
 Kpt  Band  Eigenvalues  Occupancy
  0   270     -5.39931    1.13936
  0   271     -5.34434    0.86620
  0   272     -5.31621    0.73150
  0   273     -5.29887    0.65305

  1   270     -5.44208    1.34003
  1   271     -5.42071    1.24235
  1   272     -5.40206    1.15278
  1   273     -5.38494    1.06829


Fermi level: -5.37126

No gap

Forces in eV/Ang:
  0 Rh    0.00584   -0.00337    0.17049
  1 Rh   -0.02632   -0.05497   -0.21391
  2 Rh    0.05591   -0.00688    0.09910
  3 Rh    0.01203   -0.00618   -0.00285
  4 Rh    0.01073    0.00121    0.21036
  5 Rh   -0.06957   -0.04073   -0.30764
  6 Rh    0.02185    0.05375    0.09492
  7 Rh    0.08612    0.06986   -0.00675
  8 Rh   -0.00341    0.01486    0.15218
  9 Rh   -0.03943    0.02277   -0.21629
 10 Rh   -0.00035    0.00038    0.08865
 11 Rh   -0.00532    0.01032   -0.00284
 12 Rh   -0.01460   -0.00449    0.15215
 13 Rh   -0.00601   -0.00173   -0.37197
 14 Rh   -0.05435   -0.00814    0.09380
 15 Rh   -0.01221   -0.00040   -0.00314
 16 Rh   -0.00317   -0.01568    0.16824
 17 Rh    0.06622   -0.03804   -0.30265
 18 Rh    0.00041   -0.00055    0.19446
 19 Rh   -0.01537    0.11273    0.06255
 20 Rh   -0.00838    0.00478    0.17882
 21 Rh    0.00066    0.08061   -0.30750
 22 Rh   -0.03592   -0.04616    0.09512
 23 Rh    0.07005   -0.04036    0.06693
 24 Rh    0.00432   -0.00990    0.21028
 25 Rh    0.03191   -0.01884   -0.37155
 26 Rh    0.00218   -0.00136   -0.06846
 27 Rh   -0.01801   -0.11008   -0.00654
 28 Rh   -0.01018    0.00588    0.22801
 29 Rh   -0.00187    0.00625   -0.37160
 30 Rh   -0.01988    0.05028    0.09270
 31 Rh   -0.07480    0.04255   -0.01020
 32 Rh    0.01203    0.01055    0.16827
 33 Rh    0.03433    0.05021   -0.21374
 34 Rh    0.03356   -0.04472    0.09825
 35 Rh   -0.10480   -0.04229    0.06169
 36 C     0.00949   -0.00432    0.12618

BFGS:    6 06:19:50    -5157.651329        0.1945
System changes: positions 

Initializing position-dependent things.

Density initialized from wave functions
                                           
                                           
                                           
                                           
                                           
                   C                       
          Rh    Rh     Rh                  
           RRh   RRh    RRh                
              Rh    Rh     Rh              
             Rh    Rh     Rh               
              RRh   RRh    RRh             
                                           
                Rh    Rh     Rh            
                 Rh     Rh     Rh          
          Rh    Rh     Rh                  
            Rh    Rh     Rh                
              Rh    Rh     Rh              
                                           
                                           
                                           
                                           

Positions:
   0 Rh     0.000000    0.000000    9.999999    ( 0.0000,  0.0000,  0.0000)
   1 Rh     1.374814    0.793749   12.245061    ( 0.0000,  0.0000,  0.0000)
   2 Rh    -0.002725    1.590999   14.437427    ( 0.0000,  0.0000,  0.0000)
   3 Rh    -0.011968    0.006559   16.685622    ( 0.0000,  0.0000,  0.0000)
   4 Rh    -1.374814    2.381247    9.999999    ( 0.0000,  0.0000,  0.0000)
   5 Rh    -0.000000    3.174997   12.245061    ( 0.0000,  0.0000,  0.0000)
   6 Rh    -1.370997    3.963956   14.436395    ( 0.0000,  0.0000,  0.0000)
   7 Rh    -1.418032    2.356259   16.652296    ( 0.0000,  0.0000,  0.0000)
   8 Rh    -2.749628    4.762495    9.999999    ( 0.0000,  0.0000,  0.0000)
   9 Rh    -1.374814    5.556244   12.245061    ( 0.0000,  0.0000,  0.0000)
  10 Rh    -2.750745    6.350633   14.451104    ( 0.0000,  0.0000,  0.0000)
  11 Rh    -2.750857    4.752749   16.681152    ( 0.0000,  0.0000,  0.0000)
  12 Rh     2.749628    0.000000    9.999999    ( 0.0000,  0.0000,  0.0000)
  13 Rh     4.124441    0.793749   12.245061    ( 0.0000,  0.0000,  0.0000)
  14 Rh     2.752841    1.592211   14.435950    ( 0.0000,  0.0000,  0.0000)
  15 Rh     2.757588    0.005633   16.681205    ( 0.0000,  0.0000,  0.0000)
  16 Rh     1.374814    2.381247    9.999999    ( 0.0000,  0.0000,  0.0000)
  17 Rh     2.749628    3.174997   12.245061    ( 0.0000,  0.0000,  0.0000)
  18 Rh     1.374640    3.968800   14.410065    ( 0.0000,  0.0000,  0.0000)
  19 Rh     1.374919    2.298175   16.707011    ( 0.0000,  0.0000,  0.0000)
  20 Rh    -0.000000    4.762495    9.999999    ( 0.0000,  0.0000,  0.0000)
  21 Rh     1.374814    5.556244   12.245061    ( 0.0000,  0.0000,  0.0000)
  22 Rh     0.006075    6.349031   14.436399    ( 0.0000,  0.0000,  0.0000)
  23 Rh    -0.073413    4.804624   16.712006    ( 0.0000,  0.0000,  0.0000)
  24 Rh     5.499255    0.000000    9.999999    ( 0.0000,  0.0000,  0.0000)
  25 Rh     6.874069    0.793749   12.245061    ( 0.0000,  0.0000,  0.0000)
  26 Rh     5.499757    1.587191   14.433874    ( 0.0000,  0.0000,  0.0000)
  27 Rh     5.499249    0.049817   16.652316    ( 0.0000,  0.0000,  0.0000)
  28 Rh     4.124441    2.381247    9.999999    ( 0.0000,  0.0000,  0.0000)
  29 Rh     5.499255    3.174997   12.245061    ( 0.0000,  0.0000,  0.0000)
  30 Rh     4.121882    3.963663   14.436071    ( 0.0000,  0.0000,  0.0000)
  31 Rh     4.167206    2.356505   16.652142    ( 0.0000,  0.0000,  0.0000)
  32 Rh     2.749628    4.762495    9.999999    ( 0.0000,  0.0000,  0.0000)
  33 Rh     4.124441    5.556244   12.245061    ( 0.0000,  0.0000,  0.0000)
  34 Rh     2.745219    6.350446   14.437550    ( 0.0000,  0.0000,  0.0000)
  35 Rh     2.821171    4.803436   16.707236    ( 0.0000,  0.0000,  0.0000)
  36 C      1.374298    3.968495   17.605389    ( 0.0000,  0.0000,  0.0000)

Unit cell:
           periodic     x           y           z      points  spacing
  1. axis:    yes    8.248883    0.000000    0.000000    40     0.1786
  2. axis:    yes   -4.124441    7.143742    0.000000    40     0.1786
  3. axis:    no     0.000000    0.000000   26.735183   148     0.1806

  Lengths:   8.248883   8.248883  26.735183
  Angles:   90.000000  90.000000 120.000000

Effective grid spacing dv^(1/3) = 0.1881

     iter     time        total  log10-change:
                         energy  eigst   dens
iter:   1 06:21:40 -5157.916191  -2.61
iter:   2 06:22:29 -5166.817803  -2.08  -2.35
iter:   3 06:23:17 -5157.833627  -2.50  -1.60
iter:   4 06:24:06 -5157.661219  -3.19  -2.51
iter:   5 06:24:54 -5157.656850c -3.93  -3.34
iter:   6 06:25:43 -5157.655699c -4.50  -3.34
iter:   7 06:26:31 -5157.656268c -5.12  -3.73
iter:   8 06:27:20 -5157.656100c -5.75  -3.79
iter:   9 06:28:08 -5157.656228c -6.14  -3.87
iter:  10 06:28:57 -5157.656805c -5.90  -3.63
iter:  11 06:29:45 -5157.655562c -5.99  -3.90
iter:  12 06:30:34 -5157.655830c -6.45  -4.21c
iter:  13 06:31:22 -5157.655836c -6.95  -4.37c
iter:  14 06:32:11 -5157.655804c -6.95  -4.44c
iter:  15 06:32:59 -5157.655834c -7.11  -4.35c
iter:  16 06:33:48 -5157.655897c -7.41c -4.39c

Converged after 16 iterations.

Dipole moment: (0.456497, -9.196797, -0.098477) |e|*Ang

Energy contributions relative to reference atoms: (reference = -4685874.920122)

Kinetic:       +751.648978
Potential:     -776.965594
External:        +0.000000
XC:            -5120.766489
Entropy (-ST):   -2.217669
Local:          -10.463957
--------------------------
Free energy:   -5158.764731
Extrapolated:  -5157.655897

Showing only first 2 kpts
 Kpt  Band  Eigenvalues  Occupancy
  0   270     -5.39846    1.13589
  0   271     -5.34378    0.86415
  0   272     -5.31651    0.73355
  0   273     -5.29926    0.65541

  1   270     -5.44182    1.33947
  1   271     -5.42031    1.24112
  1   272     -5.40145    1.15050
  1   273     -5.38386    1.06365


Fermi level: -5.37112

No gap

Forces in eV/Ang:
  0 Rh    0.00553   -0.00320    0.17008
  1 Rh   -0.02673   -0.05690   -0.20280
  2 Rh    0.04823   -0.01149    0.09515
  3 Rh    0.02755   -0.01476   -0.02048
  4 Rh    0.01147    0.00177    0.21448
  5 Rh   -0.06235   -0.03715   -0.28884
  6 Rh    0.01387    0.05026    0.09308
  7 Rh    0.09015    0.06533   -0.01168
  8 Rh   -0.00352    0.01438    0.15187
  9 Rh   -0.04105    0.02371   -0.20529
 10 Rh   -0.00069    0.00048    0.07211
 11 Rh   -0.00774    0.02825   -0.01886
 12 Rh   -0.01425   -0.00417    0.15184
 13 Rh   -0.01508   -0.00762   -0.36279
 14 Rh   -0.04786   -0.01272    0.09404
 15 Rh   -0.02918   -0.00703   -0.01916
 16 Rh   -0.00319   -0.01526    0.16960
 17 Rh    0.05903   -0.03393   -0.28450
 18 Rh    0.00040   -0.00042    0.16533
 19 Rh   -0.01759   -0.01024   -0.01072
 20 Rh   -0.00836    0.00477    0.18007
 21 Rh    0.00113    0.07252   -0.28867
 22 Rh   -0.03688   -0.03748    0.09322
 23 Rh   -0.02825    0.01676   -0.01301
 24 Rh    0.00421   -0.01082    0.21442
 25 Rh    0.04197   -0.02464   -0.36154
 26 Rh    0.00254   -0.00162   -0.02862
 27 Rh   -0.01201   -0.11131   -0.01152
 28 Rh   -0.01079    0.00622    0.23205
 29 Rh   -0.00131    0.01698   -0.36252
 30 Rh   -0.01264    0.04693    0.09298
 31 Rh   -0.08234    0.04700   -0.01471
 32 Rh    0.01166    0.01035    0.16963
 33 Rh    0.03582    0.05154   -0.20265
 34 Rh    0.03373   -0.03564    0.09422
 35 Rh   -0.00024    0.02078   -0.01122
 36 C    -0.00202    0.00352    0.20709

BFGS:    7 06:34:15    -5157.655897        0.2071
System changes: positions 

Initializing position-dependent things.

Density initialized from wave functions
                                           
                                           
                                           
                                           
                                           
                   C                       
          Rh    Rh     Rh                  
           RRh   RRh    RRh                
              Rh    Rh     Rh              
             Rh    Rh     Rh               
               Rh    Rh     Rh             
              Rh    Rh     Rh              
                Rh    Rh     Rh            
                 Rh     Rh     Rh          
          Rh    Rh     Rh                  
            Rh    Rh     Rh                
              Rh    Rh     Rh              
                                           
                                           
                                           
                                           

Positions:
   0 Rh     0.000000    0.000000    9.999999    ( 0.0000,  0.0000,  0.0000)
   1 Rh     1.374814    0.793749   12.245061    ( 0.0000,  0.0000,  0.0000)
   2 Rh    -0.000513    1.591079   14.441161    ( 0.0000,  0.0000,  0.0000)
   3 Rh    -0.012326    0.006774   16.686998    ( 0.0000,  0.0000,  0.0000)
   4 Rh    -1.374814    2.381247    9.999999    ( 0.0000,  0.0000,  0.0000)
   5 Rh    -0.000000    3.174997   12.245061    ( 0.0000,  0.0000,  0.0000)
   6 Rh    -1.369774    3.965886   14.439820    ( 0.0000,  0.0000,  0.0000)
   7 Rh    -1.417028    2.357841   16.651331    ( 0.0000,  0.0000,  0.0000)
   8 Rh    -2.749628    4.762495    9.999999    ( 0.0000,  0.0000,  0.0000)
   9 Rh    -1.374814    5.556244   12.245061    ( 0.0000,  0.0000,  0.0000)
  10 Rh    -2.750783    6.350659   14.455118    ( 0.0000,  0.0000,  0.0000)
  11 Rh    -2.751146    4.752348   16.682381    ( 0.0000,  0.0000,  0.0000)
  12 Rh     2.749628    0.000000    9.999999    ( 0.0000,  0.0000,  0.0000)
  13 Rh     4.124441    0.793749   12.245061    ( 0.0000,  0.0000,  0.0000)
  14 Rh     2.750736    1.592242   14.439374    ( 0.0000,  0.0000,  0.0000)
  15 Rh     2.757772    0.006068   16.682425    ( 0.0000,  0.0000,  0.0000)
  16 Rh     1.374814    2.381247    9.999999    ( 0.0000,  0.0000,  0.0000)
  17 Rh     2.749628    3.174997   12.245061    ( 0.0000,  0.0000,  0.0000)
  18 Rh     1.374667    3.968766   14.416950    ( 0.0000,  0.0000,  0.0000)
  19 Rh     1.374287    2.302938   16.714760    ( 0.0000,  0.0000,  0.0000)
  20 Rh    -0.000000    4.762495    9.999999    ( 0.0000,  0.0000,  0.0000)
  21 Rh     1.374814    5.556244   12.245061    ( 0.0000,  0.0000,  0.0000)
  22 Rh     0.005003    6.346985   14.439833    ( 0.0000,  0.0000,  0.0000)
  23 Rh    -0.070485    4.802913   16.720178    ( 0.0000,  0.0000,  0.0000)
  24 Rh     5.499255    0.000000    9.999999    ( 0.0000,  0.0000,  0.0000)
  25 Rh     6.874069    0.793749   12.245061    ( 0.0000,  0.0000,  0.0000)
  26 Rh     5.499898    1.587103   14.430183    ( 0.0000,  0.0000,  0.0000)
  27 Rh     5.498352    0.048126   16.651360    ( 0.0000,  0.0000,  0.0000)
  28 Rh     4.124441    2.381247    9.999999    ( 0.0000,  0.0000,  0.0000)
  29 Rh     5.499255    3.174997   12.245061    ( 0.0000,  0.0000,  0.0000)
  30 Rh     4.120807    3.965437   14.439457    ( 0.0000,  0.0000,  0.0000)
  31 Rh     4.166429    2.356921   16.650948    ( 0.0000,  0.0000,  0.0000)
  32 Rh     2.749628    4.762495    9.999999    ( 0.0000,  0.0000,  0.0000)
  33 Rh     4.124441    5.556244   12.245061    ( 0.0000,  0.0000,  0.0000)
  34 Rh     2.746240    6.348490   14.441255    ( 0.0000,  0.0000,  0.0000)
  35 Rh     2.816799    4.801634   16.714918    ( 0.0000,  0.0000,  0.0000)
  36 C      1.374260    3.968639   17.616006    ( 0.0000,  0.0000,  0.0000)

Unit cell:
           periodic     x           y           z      points  spacing
  1. axis:    yes    8.248883    0.000000    0.000000    40     0.1786
  2. axis:    yes   -4.124441    7.143742    0.000000    40     0.1786
  3. axis:    no     0.000000    0.000000   26.735183   148     0.1806

  Lengths:   8.248883   8.248883  26.735183
  Angles:   90.000000  90.000000 120.000000

Effective grid spacing dv^(1/3) = 0.1881

     iter     time        total  log10-change:
                         energy  eigst   dens
iter:   1 06:36:05 -5158.161084  -2.60
iter:   2 06:36:54 -5175.635303  -1.76  -2.21
iter:   3 06:37:42 -5158.082302  -2.25  -1.47
iter:   4 06:38:31 -5157.669574  -2.87  -2.35
iter:   5 06:39:19 -5157.662206  -3.60  -3.29
iter:   6 06:40:07 -5157.660551c -4.34  -3.28
iter:   7 06:40:56 -5157.660144c -4.91  -3.64
iter:   8 06:41:44 -5157.659697c -5.46  -3.80
iter:   9 06:42:33 -5157.660553c -5.84  -3.84
iter:  10 06:43:21 -5157.660933c -5.75  -3.72
iter:  11 06:44:10 -5157.659228c -5.84  -3.56
iter:  12 06:44:58 -5157.659569c -6.17  -4.09c
iter:  13 06:45:46 -5157.659495c -6.91  -4.18c
iter:  14 06:46:35 -5157.659366c -6.84  -4.26c
iter:  15 06:47:23 -5157.659611c -6.46  -4.44c
iter:  16 06:48:12 -5157.659503c -7.32  -4.50c
iter:  17 06:49:00 -5157.659506c -7.48c -4.40c

Converged after 17 iterations.

Dipole moment: (0.482160, -9.220779, -0.099748) |e|*Ang

Energy contributions relative to reference atoms: (reference = -4685874.920122)

Kinetic:       +751.157200
Potential:     -776.569725
External:        +0.000000
XC:            -5120.662556
Entropy (-ST):   -2.222002
Local:          -10.473424
--------------------------
Free energy:   -5158.770507
Extrapolated:  -5157.659506

Showing only first 2 kpts
 Kpt  Band  Eigenvalues  Occupancy
  0   270     -5.39948    1.13291
  0   271     -5.34500    0.86219
  0   272     -5.31888    0.73704
  0   273     -5.30137    0.65756

  1   270     -5.44288    1.33702
  1   271     -5.42118    1.23758
  1   272     -5.40215    1.14599
  1   273     -5.38450    1.05872


Fermi level: -5.37274

No gap

Forces in eV/Ang:
  0 Rh    0.00509   -0.00295    0.17008
  1 Rh   -0.02689   -0.05761   -0.19412
  2 Rh    0.02897   -0.00861    0.07664
  3 Rh    0.03040   -0.01639   -0.00436
  4 Rh    0.01204    0.00205    0.21917
  5 Rh   -0.05589   -0.03387   -0.26601
  6 Rh    0.00616    0.03176    0.07917
  7 Rh    0.06587    0.04463    0.00136
  8 Rh   -0.00373    0.01381    0.15213
  9 Rh   -0.04164    0.02403   -0.19663
 10 Rh   -0.00099    0.00047    0.04194
 11 Rh   -0.00839    0.03184   -0.00216
 12 Rh   -0.01385   -0.00370    0.15210
 13 Rh   -0.02284   -0.01249   -0.35314
 14 Rh   -0.02933   -0.00996    0.08146
 15 Rh   -0.03268   -0.00821   -0.00238
 16 Rh   -0.00334   -0.01586    0.17244
 17 Rh    0.05281   -0.03041   -0.26222
 18 Rh   -0.00073    0.00035    0.11593
 19 Rh   -0.01542   -0.09082   -0.02889
 20 Rh   -0.00900    0.00515    0.18282
 21 Rh    0.00146    0.06522   -0.26583
 22 Rh   -0.02468   -0.02149    0.07924
 23 Rh   -0.08826    0.05157   -0.03135
 24 Rh    0.00425   -0.01145    0.21914
 25 Rh    0.05051   -0.02953   -0.35174
 26 Rh    0.00180   -0.00122    0.01941
 27 Rh   -0.00606   -0.07983    0.00144
 28 Rh   -0.01113    0.00643    0.23682
 29 Rh   -0.00094    0.02606   -0.35301
 30 Rh   -0.00580    0.02964    0.08066
 31 Rh   -0.06547    0.03745   -0.00178
 32 Rh    0.01209    0.01079    0.17248
 33 Rh    0.03637    0.05203   -0.19400
 34 Rh    0.02173   -0.02041    0.07585
 35 Rh    0.07052    0.05914   -0.02940
 36 C    -0.01225    0.00894    0.26693

BFGS:    8 06:49:27    -5157.659506        0.2674
System changes: positions 

Initializing position-dependent things.

Density initialized from wave functions
                                           
                                           
                                           
                                           
                                           
                   C                       
          Rh    Rh     Rh                  
           RRh   RRh    RRh                
              Rh    Rh     Rh              
             Rh    Rh     Rh               
               Rh    Rh     Rh             
              Rh    Rh     Rh              
                Rh    Rh     Rh            
                 Rh     Rh     Rh          
          Rh    Rh     Rh                  
            Rh    Rh     Rh                
              Rh    Rh     Rh              
                                           
                                           
                                           
                                           

Positions:
   0 Rh     0.000000    0.000000    9.999999    ( 0.0000,  0.0000,  0.0000)
   1 Rh     1.374814    0.793749   12.245061    ( 0.0000,  0.0000,  0.0000)
   2 Rh     0.005340    1.591452   14.451623    ( 0.0000,  0.0000,  0.0000)
   3 Rh    -0.013313    0.007370   16.692024    ( 0.0000,  0.0000,  0.0000)
   4 Rh    -1.374814    2.381247    9.999999    ( 0.0000,  0.0000,  0.0000)
   5 Rh    -0.000000    3.174997   12.245061    ( 0.0000,  0.0000,  0.0000)
   6 Rh    -1.366397    3.970919   14.449537    ( 0.0000,  0.0000,  0.0000)
   7 Rh    -1.415464    2.361501   16.648866    ( 0.0000,  0.0000,  0.0000)
   8 Rh    -2.749628    4.762495    9.999999    ( 0.0000,  0.0000,  0.0000)
   9 Rh    -1.374814    5.556244   12.245061    ( 0.0000,  0.0000,  0.0000)
  10 Rh    -2.750912    6.350740   14.466025    ( 0.0000,  0.0000,  0.0000)
  11 Rh    -2.752071    4.751278   16.686976    ( 0.0000,  0.0000,  0.0000)
  12 Rh     2.749628    0.000000    9.999999    ( 0.0000,  0.0000,  0.0000)
  13 Rh     4.124441    0.793749   12.245061    ( 0.0000,  0.0000,  0.0000)
  14 Rh     2.745177    1.592467   14.449157    ( 0.0000,  0.0000,  0.0000)
  15 Rh     2.758177    0.007353   16.686996    ( 0.0000,  0.0000,  0.0000)
  16 Rh     1.374814    2.381247    9.999999    ( 0.0000,  0.0000,  0.0000)
  17 Rh     2.749628    3.174997   12.245061    ( 0.0000,  0.0000,  0.0000)
  18 Rh     1.374706    3.968695   14.435145    ( 0.0000,  0.0000,  0.0000)
  19 Rh     1.372463    2.311936   16.737467    ( 0.0000,  0.0000,  0.0000)
  20 Rh    -0.000000    4.762495    9.999999    ( 0.0000,  0.0000,  0.0000)
  21 Rh     1.374814    5.556244   12.245061    ( 0.0000,  0.0000,  0.0000)
  22 Rh     0.002299    6.341483   14.449573    ( 0.0000,  0.0000,  0.0000)
  23 Rh    -0.065941    4.800234   16.744166    ( 0.0000,  0.0000,  0.0000)
  24 Rh     5.499255    0.000000    9.999999    ( 0.0000,  0.0000,  0.0000)
  25 Rh     6.874069    0.793749   12.245061    ( 0.0000,  0.0000,  0.0000)
  26 Rh     5.500300    1.586848   14.421074    ( 0.0000,  0.0000,  0.0000)
  27 Rh     5.495883    0.044853   16.648919    ( 0.0000,  0.0000,  0.0000)
  28 Rh     4.124441    2.381247    9.999999    ( 0.0000,  0.0000,  0.0000)
  29 Rh     5.499255    3.174997   12.245061    ( 0.0000,  0.0000,  0.0000)
  30 Rh     4.117844    3.970045   14.449138    ( 0.0000,  0.0000,  0.0000)
  31 Rh     4.165222    2.357525   16.647781    ( 0.0000,  0.0000,  0.0000)
  32 Rh     2.749628    4.762495    9.999999    ( 0.0000,  0.0000,  0.0000)
  33 Rh     4.124441    5.556244   12.245061    ( 0.0000,  0.0000,  0.0000)
  34 Rh     2.748801    6.343233   14.451637    ( 0.0000,  0.0000,  0.0000)
[...]
  12 Rh     2.749628    0.000000    9.999999    ( 0.0000,  0.0000,  0.0000)
  13 Rh     4.124441    0.793749   12.245061    ( 0.0000,  0.0000,  0.0000)
  14 Rh     2.746211    1.591908   14.452268    ( 0.0000,  0.0000,  0.0000)
  15 Rh     2.754265    0.006282   16.689027    ( 0.0000,  0.0000,  0.0000)
  16 Rh     1.374814    2.381247    9.999999    ( 0.0000,  0.0000,  0.0000)
  17 Rh     2.749628    3.174997   12.245061    ( 0.0000,  0.0000,  0.0000)
  18 Rh     1.374606    3.968768   14.436867    ( 0.0000,  0.0000,  0.0000)
  19 Rh     1.372562    2.306532   16.736895    ( 0.0000,  0.0000,  0.0000)
  20 Rh    -0.000000    4.762495    9.999999    ( 0.0000,  0.0000,  0.0000)
  21 Rh     1.374814    5.556244   12.245061    ( 0.0000,  0.0000,  0.0000)
  22 Rh     0.002229    6.343224   14.452417    ( 0.0000,  0.0000,  0.0000)
  23 Rh    -0.069690    4.802502   16.742670    ( 0.0000,  0.0000,  0.0000)
  24 Rh     5.499255    0.000000    9.999999    ( 0.0000,  0.0000,  0.0000)
  25 Rh     6.874069    0.793749   12.245061    ( 0.0000,  0.0000,  0.0000)
  26 Rh     5.500269    1.586840   14.431617    ( 0.0000,  0.0000,  0.0000)
  27 Rh     5.496989    0.042292   16.652409    ( 0.0000,  0.0000,  0.0000)
  28 Rh     4.124441    2.381247    9.999999    ( 0.0000,  0.0000,  0.0000)
  29 Rh     5.499255    3.174997   12.245061    ( 0.0000,  0.0000,  0.0000)
  30 Rh     4.118859    3.969382   14.452224    ( 0.0000,  0.0000,  0.0000)
  31 Rh     4.160685    2.360161   16.651248    ( 0.0000,  0.0000,  0.0000)
  32 Rh     2.749628    4.762495    9.999999    ( 0.0000,  0.0000,  0.0000)
  33 Rh     4.124441    5.556244   12.245061    ( 0.0000,  0.0000,  0.0000)
  34 Rh     2.748509    6.344949   14.452480    ( 0.0000,  0.0000,  0.0000)
  35 Rh     2.813004    4.801512   16.736789    ( 0.0000,  0.0000,  0.0000)
  36 C      1.371844    3.970445   17.671967    ( 0.0000,  0.0000,  0.0000)

Unit cell:
           periodic     x           y           z      points  spacing
  1. axis:    yes    8.248883    0.000000    0.000000    40     0.1786
  2. axis:    yes   -4.124441    7.143742    0.000000    40     0.1786
  3. axis:    no     0.000000    0.000000   26.735183   148     0.1806

  Lengths:   8.248883   8.248883  26.735183
  Angles:   90.000000  90.000000 120.000000

Effective grid spacing dv^(1/3) = 0.1881

     iter     time        total  log10-change:
                         energy  eigst   dens
iter:   1 07:47:04 -5157.663331  -3.57
iter:   2 07:47:52 -5157.701221  -4.02  -3.16
iter:   3 07:48:40 -5157.696627c -4.31  -2.87
iter:   4 07:49:29 -5157.663900c -4.86  -2.82
iter:   5 07:50:17 -5157.664096c -5.85  -3.79
iter:   6 07:51:05 -5157.663955c -5.94  -3.90
iter:   7 07:51:54 -5157.664055c -5.97  -4.16c
iter:   8 07:52:42 -5157.664033c -6.62  -4.36c
iter:   9 07:53:30 -5157.664256c -6.83  -4.44c
iter:  10 07:54:18 -5157.664037c -7.14  -4.54c
iter:  11 07:55:07 -5157.664091c -7.50c -4.69c

Converged after 11 iterations.

Dipole moment: (0.168602, -9.068699, -0.106286) |e|*Ang

Energy contributions relative to reference atoms: (reference = -4685874.920122)

Kinetic:       +745.164241
Potential:     -771.569021
External:        +0.000000
XC:            -5119.668114
Entropy (-ST):   -2.236657
Local:          -10.472869
--------------------------
Free energy:   -5158.782419
Extrapolated:  -5157.664091

Showing only first 2 kpts
 Kpt  Band  Eigenvalues  Occupancy
  0   270     -5.40898    1.13115
  0   271     -5.35381    0.85702
  0   272     -5.33095    0.74736
  0   273     -5.31236    0.66255

  1   270     -5.45133    1.33075
  1   271     -5.42802    1.22326
  1   272     -5.40838    1.12821
  1   273     -5.39168    1.04535


Fermi level: -5.38260

No gap

Forces in eV/Ang:
  0 Rh    0.00342   -0.00199    0.16713
  1 Rh   -0.02327   -0.04388   -0.14926
  2 Rh   -0.00364    0.00491   -0.00502
  3 Rh    0.00603   -0.00341   -0.00454
  4 Rh    0.01485    0.00349    0.22547
  5 Rh   -0.04248   -0.02304   -0.18120
  6 Rh   -0.00006   -0.00450   -0.00184
  7 Rh   -0.00402   -0.00539    0.02240
  8 Rh   -0.00440    0.01243    0.14983
  9 Rh   -0.02917    0.01675   -0.14896
 10 Rh    0.00200   -0.00129   -0.01410
 11 Rh    0.00511    0.00796   -0.00144
 12 Rh   -0.01298   -0.00243    0.14983
 13 Rh   -0.03467   -0.01820   -0.28573
 14 Rh    0.00186    0.00388   -0.00556
 15 Rh   -0.00448   -0.00827   -0.00151
 16 Rh   -0.00372   -0.01741    0.17602
 17 Rh    0.04067   -0.02369   -0.17387
 18 Rh   -0.00120    0.00075   -0.01836
 19 Rh   -0.00224    0.06788    0.02979
 20 Rh   -0.01053    0.00607    0.18609
 21 Rh   -0.00146    0.04801   -0.18114
 22 Rh    0.00373    0.00245   -0.00190
 23 Rh    0.04694   -0.02687    0.01639
 24 Rh    0.00442   -0.01461    0.22549
 25 Rh    0.05945   -0.03443   -0.29045
 26 Rh   -0.00373    0.00212    0.01996
 27 Rh    0.00283    0.00649    0.02227
 28 Rh   -0.01425    0.00825    0.24376
 29 Rh   -0.00169    0.03878   -0.28601
 30 Rh   -0.00252   -0.00355   -0.00540
 31 Rh   -0.00076    0.00063    0.02604
 32 Rh    0.01321    0.01191    0.17602
 33 Rh    0.02631    0.04197   -0.14930
 34 Rh   -0.00595    0.00080   -0.00492
 35 Rh   -0.05952   -0.03156    0.02978
 36 C    -0.00533    0.00325   -0.05225

BFGS:   13 07:55:34    -5157.664091        0.0742
System changes: positions 

Initializing position-dependent things.

Density initialized from wave functions
                                           
                                           
                                           
                                           
                                           
                   C                       
          Rh    Rh     Rh                  
           RRh   RRh    RRh                
              Rh    Rh     Rh              
             Rh    Rh     Rh               
               Rh    Rh     Rh             
              Rh    Rh     Rh              
                Rh    Rh     Rh            
                 Rh     Rh     Rh          
          Rh    Rh     Rh                  
            Rh    Rh     Rh                
              Rh    Rh     Rh              
                                           
                                           
                                           
                                           

Positions:
   0 Rh     0.000000    0.000000    9.999999    ( 0.0000,  0.0000,  0.0000)
   1 Rh     1.374814    0.793749   12.245061    ( 0.0000,  0.0000,  0.0000)
   2 Rh     0.003228    1.590892   14.452140    ( 0.0000,  0.0000,  0.0000)
   3 Rh    -0.009273    0.005189   16.693588    ( 0.0000,  0.0000,  0.0000)
   4 Rh    -1.374814    2.381247    9.999999    ( 0.0000,  0.0000,  0.0000)
   5 Rh    -0.000000    3.174997   12.245061    ( 0.0000,  0.0000,  0.0000)
   6 Rh    -1.368254    3.969686   14.452427    ( 0.0000,  0.0000,  0.0000)
   7 Rh    -1.412414    2.361638   16.653524    ( 0.0000,  0.0000,  0.0000)
   8 Rh    -2.749628    4.762495    9.999999    ( 0.0000,  0.0000,  0.0000)
   9 Rh    -1.374814    5.556244   12.245061    ( 0.0000,  0.0000,  0.0000)
  10 Rh    -2.751240    6.350860   14.459440    ( 0.0000,  0.0000,  0.0000)
  11 Rh    -2.752974    4.755884   16.689195    ( 0.0000,  0.0000,  0.0000)
  12 Rh     2.749628    0.000000    9.999999    ( 0.0000,  0.0000,  0.0000)
  13 Rh     4.124441    0.793749   12.245061    ( 0.0000,  0.0000,  0.0000)
  14 Rh     2.746587    1.591923   14.452247    ( 0.0000,  0.0000,  0.0000)
  15 Rh     2.753588    0.005903   16.689204    ( 0.0000,  0.0000,  0.0000)
  16 Rh     1.374814    2.381247    9.999999    ( 0.0000,  0.0000,  0.0000)
  17 Rh     2.749628    3.174997   12.245061    ( 0.0000,  0.0000,  0.0000)
  18 Rh     1.374560    3.968800   14.436176    ( 0.0000,  0.0000,  0.0000)
  19 Rh     1.372596    2.307867   16.737116    ( 0.0000,  0.0000,  0.0000)
  20 Rh    -0.000000    4.762495    9.999999    ( 0.0000,  0.0000,  0.0000)
  21 Rh     1.374814    5.556244   12.245061    ( 0.0000,  0.0000,  0.0000)
  22 Rh     0.002407    6.343702   14.452449    ( 0.0000,  0.0000,  0.0000)
  23 Rh    -0.068553    4.801866   16.742389    ( 0.0000,  0.0000,  0.0000)
  24 Rh     5.499255    0.000000    9.999999    ( 0.0000,  0.0000,  0.0000)
  25 Rh     6.874069    0.793749   12.245061    ( 0.0000,  0.0000,  0.0000)
  26 Rh     5.500174    1.586891   14.433877    ( 0.0000,  0.0000,  0.0000)
  27 Rh     5.497307    0.042135   16.653548    ( 0.0000,  0.0000,  0.0000)
  28 Rh     4.124441    2.381247    9.999999    ( 0.0000,  0.0000,  0.0000)
  29 Rh     5.499255    3.174997   12.245061    ( 0.0000,  0.0000,  0.0000)
  30 Rh     4.119033    3.969046   14.452207    ( 0.0000,  0.0000,  0.0000)
  31 Rh     4.159996    2.360569   16.652494    ( 0.0000,  0.0000,  0.0000)
  32 Rh     2.749628    4.762495    9.999999    ( 0.0000,  0.0000,  0.0000)
  33 Rh     4.124441    5.556244   12.245061    ( 0.0000,  0.0000,  0.0000)
  34 Rh     2.748235    6.345382   14.452124    ( 0.0000,  0.0000,  0.0000)
  35 Rh     2.811871    4.800838   16.737003    ( 0.0000,  0.0000,  0.0000)
  36 C      1.371425    3.970680   17.671238    ( 0.0000,  0.0000,  0.0000)

Unit cell:
           periodic     x           y           z      points  spacing
  1. axis:    yes    8.248883    0.000000    0.000000    40     0.1786
  2. axis:    yes   -4.124441    7.143742    0.000000    40     0.1786
  3. axis:    no     0.000000    0.000000   26.735183   148     0.1806

  Lengths:   8.248883   8.248883  26.735183
  Angles:   90.000000  90.000000 120.000000

Effective grid spacing dv^(1/3) = 0.1881

     iter     time        total  log10-change:
                         energy  eigst   dens
iter:   1 07:57:24 -5157.807083  -3.76
iter:   2 07:58:13 -5164.045724  -2.34  -2.47
iter:   3 07:59:01 -5157.689514  -2.75  -1.66
iter:   4 07:59:49 -5157.666263  -3.62  -3.04
iter:   5 08:00:38 -5157.664869c -4.40  -3.75
iter:   6 08:01:26 -5157.664615c -5.15  -3.96
iter:   7 08:02:14 -5157.664528c -5.69  -4.23c
iter:   8 08:03:03 -5157.664581c -6.20  -4.30c
iter:   9 08:03:51 -5157.664538c -6.73  -4.46c
iter:  10 08:04:39 -5157.664299c -6.85  -4.20c
iter:  11 08:05:28 -5157.664618c -7.11  -4.59c
iter:  12 08:06:16 -5157.664430c -7.34  -4.60c
iter:  13 08:07:04 -5157.664424c -7.92c -4.90c

Converged after 13 iterations.

Dipole moment: (0.082056, -9.019705, -0.107004) |e|*Ang

Energy contributions relative to reference atoms: (reference = -4685874.920122)

Kinetic:       +745.052230
Potential:     -771.459580
External:        +0.000000
XC:            -5119.667241
Entropy (-ST):   -2.236782
Local:          -10.471442
--------------------------
Free energy:   -5158.782814
Extrapolated:  -5157.664424

Showing only first 2 kpts
 Kpt  Band  Eigenvalues  Occupancy
  0   270     -5.40865    1.13029
  0   271     -5.35366    0.85707
  0   272     -5.33066    0.74671
  0   273     -5.31241    0.66348

  1   270     -5.45149    1.33215
  1   271     -5.42790    1.22346
  1   272     -5.40805    1.12735
  1   273     -5.39162    1.04587


Fermi level: -5.38244

No gap

Forces in eV/Ang:
  0 Rh    0.00361   -0.00210    0.17123
  1 Rh   -0.02351   -0.04392   -0.14832
  2 Rh    0.00105    0.00273    0.00749
  3 Rh    0.00757   -0.00426   -0.00141
  4 Rh    0.01459    0.00327    0.22977
  5 Rh   -0.04413   -0.02360   -0.18384
  6 Rh    0.00121   -0.00004    0.00784
  7 Rh   -0.00366   -0.00346    0.02243
  8 Rh   -0.00435    0.01267    0.15405
  9 Rh   -0.02900    0.01664   -0.14814
 10 Rh    0.00146   -0.00089    0.00343
 11 Rh    0.00300    0.01000    0.00071
 12 Rh   -0.01316   -0.00259    0.15405
 13 Rh   -0.03271   -0.01721   -0.28450
 14 Rh   -0.00298    0.00277    0.00653
 15 Rh   -0.00727   -0.00741    0.00064
 16 Rh   -0.00361   -0.01769    0.17974
 17 Rh    0.04168   -0.02426   -0.17635
 18 Rh   -0.00062    0.00043   -0.01330
 19 Rh   -0.00290    0.01599    0.02194
 20 Rh   -0.01066    0.00615    0.18992
 21 Rh   -0.00180    0.04974   -0.18378
 22 Rh    0.00057   -0.00091    0.00782
 23 Rh    0.00314   -0.00163    0.01442
 24 Rh    0.00448   -0.01427    0.22978
 25 Rh    0.05724   -0.03316   -0.28906
 26 Rh   -0.00323    0.00187    0.01461
 27 Rh    0.00129    0.00518    0.02233
 28 Rh   -0.01396    0.00808    0.24792
 29 Rh   -0.00157    0.03659   -0.28475
 30 Rh   -0.00394    0.00118    0.00660
 31 Rh    0.00045   -0.00011    0.02482
 32 Rh    0.01352    0.01195    0.17973
 33 Rh    0.02620    0.04216   -0.14836
 34 Rh   -0.00180   -0.00217    0.00753
 35 Rh   -0.01504   -0.00517    0.02201
 36 C    -0.00393    0.00265    0.00103

BFGS:   14 08:07:32    -5157.664424        0.0273
Timing:                                      incl.     excl.
-------------------------------------------------------------------
Density initialized from wave functions:    12.863    12.862   0.1% |
 Symmetrize density:                         0.001     0.001   0.0% |
Forces:                                    411.433   411.433   2.7% ||
Hamiltonian:                                55.750     0.003   0.0% |
 Atomic:                                     0.004     0.004   0.0% |
  XC Correction:                             0.000     0.000   0.0% |
 Calculate atomic Hamiltonians:              0.006     0.006   0.0% |
 Communicate:                                3.793     3.793   0.0% |
 Hartree integrate/restrict:                 0.143     0.143   0.0% |
 Initialize Hamiltonian:                     0.002     0.002   0.0% |
 Poisson:                                    2.705     0.114   0.0% |
  Communicate from 1D:                       0.208     0.208   0.0% |
  Communicate from 2D:                       0.453     0.453   0.0% |
  Communicate to 1D:                         0.121     0.121   0.0% |
  Communicate to 2D:                         0.471     0.471   0.0% |
  FFT 1D:                                    0.694     0.694   0.0% |
  FFT 2D:                                    0.644     0.644   0.0% |
 XC 3D grid:                                49.050    11.642   0.1% |
  VdW-DF integral:                          37.408     1.928   0.0% |
   Convolution:                              3.160     3.160   0.0% |
   FFT:                                      2.317     2.317   0.0% |
   gather:                                  11.122    11.122   0.1% |
   hmm1:                                     0.634     0.634   0.0% |
   hmm2:                                     1.278     1.278   0.0% |
   iFFT:                                     2.211     2.211   0.0% |
   potential:                               10.370     0.217   0.0% |
    collect:                                 0.695     0.695   0.0% |
    p1:                                      6.196     6.196   0.0% |
    p2:                                      2.002     2.002   0.0% |
    sum:                                     1.259     1.259   0.0% |
   splines:                                  4.387     4.387   0.0% |
 vbar:                                       0.045     0.045   0.0% |
LCAO initialization:                        64.918     1.077   0.0% |
 LCAO eigensolver:                          52.207     0.004   0.0% |
  Calculate projections:                     0.000     0.000   0.0% |
  DenseAtomicCorrection:                     0.000     0.000   0.0% |
  Distribute overlap matrix:                51.218    51.218   0.3% |
  Orbital Layouts:                           0.766     0.766   0.0% |
  Potential matrix:                          0.067     0.067   0.0% |
  Sum over cells:                            0.151     0.151   0.0% |
 LCAO to grid:                               9.372     9.372   0.1% |
 Set positions (LCAO WFS):                   2.261     1.596   0.0% |
  Basic WFS set positions:                   0.001     0.001   0.0% |
  Basis functions set positions:             0.000     0.000   0.0% |
  P tci:                                     0.000     0.000   0.0% |
  ST tci:                                    0.543     0.543   0.0% |
  mktci:                                     0.121     0.121   0.0% |
Redistribute:                                0.010     0.010   0.0% |
SCF-cycle:                               13910.271   280.772   1.8% ||
 Davidson:                               12564.883  4445.393  29.2% |-----------|
  Apply hamiltonian:                       237.706   237.706   1.6% ||
  Subspace diag:                           977.339     0.040   0.0% |
   calc_h_matrix:                          487.216   277.713   1.8% ||
    Apply hamiltonian:                     209.503   209.503   1.4% ||
   diagonalize:                             22.367    22.367   0.1% |
   rotate_psi:                             467.716   467.716   3.1% ||
  calc. matrices:                         5868.950  1758.027  11.6% |----|
   Apply hamiltonian:                     4110.923  4110.923  27.0% |----------|
  diagonalize:                             143.191   143.191   0.9% |
  rotate_psi:                              892.303   892.303   5.9% |-|
 Density:                                   18.486     0.006   0.0% |
  Atomic density matrices:                   1.855     1.855   0.0% |
  Mix:                                       4.183     4.183   0.0% |
  Multipole moments:                         0.117     0.117   0.0% |
  Pseudo density:                           12.325    12.313   0.1% |
   Symmetrize density:                       0.013     0.013   0.0% |
 Hamiltonian:                              930.341     0.040   0.0% |
  Atomic:                                    0.076     0.075   0.0% |
   XC Correction:                            0.001     0.001   0.0% |
  Calculate atomic Hamiltonians:             0.104     0.104   0.0% |
  Communicate:                              67.482    67.482   0.4% |
  Hartree integrate/restrict:                2.635     2.635   0.0% |
  Poisson:                                  48.971     1.931   0.0% |
   Communicate from 1D:                      3.793     3.793   0.0% |
   Communicate from 2D:                      8.129     8.129   0.1% |
   Communicate to 1D:                        2.204     2.204   0.0% |
   Communicate to 2D:                        8.526     8.526   0.1% |
   FFT 1D:                                  12.711    12.711   0.1% |
   FFT 2D:                                  11.678    11.678   0.1% |
  XC 3D grid:                              810.468   211.533   1.4% ||
   VdW-DF integral:                        598.934    35.135   0.2% |
    Convolution:                            57.373    57.373   0.4% |
    FFT:                                    42.471    42.471   0.3% |
    gather:                                200.781   200.781   1.3% ||
    hmm1:                                   11.196    11.196   0.1% |
    hmm2:                                   23.088    23.088   0.2% |
    iFFT:                                   40.172    40.172   0.3% |
    potential:                             188.718     4.226   0.0% |
     collect:                               12.659    12.659   0.1% |
     p1:                                   114.663   114.663   0.8% |
     p2:                                    38.158    38.158   0.3% |
     sum:                                   19.012    19.012   0.1% |
    splines:                                 0.002     0.002   0.0% |
  vbar:                                      0.565     0.565   0.0% |
 Orthonormalize:                           115.789     0.004   0.0% |
  calc_s_matrix:                             5.920     5.920   0.0% |
  inverse-cholesky:                         98.182    98.182   0.6% |
  projections:                               0.001     0.001   0.0% |
  rotate_psi_s:                             11.682    11.682   0.1% |
Set symmetry:                                0.001     0.001   0.0% |
Other:                                     749.364   749.364   4.9% |-|
-------------------------------------------------------------------
Total:                                             15204.610 100.0%

Memory usage: 1.58 GiB
Date: Thu Sep 28 08:07:32 2023
