
  ___ ___ ___ _ _ _  
 |   |   |_  | | | | 
 | | | | | . | | | | 
 |__ |  _|___|_____|  22.8.0
 |___|_|             

User:   s204775@c052.nifl.fysik.dtu.dk
Date:   Thu Sep 28 04:00:29 2023
Arch:   x86_64
Pid:    152507
CWD:    /home/cat/s204775/projects/Bachelor_project/C_missing_features
Python: 3.10.4
gpaw:   /home/modules/software/GPAW/22.8.0-intel-2022a/lib/python3.10/site-packages/gpaw
_gpaw:  /home/modules/software/GPAW/22.8.0-intel-2022a/lib/python3.10/site-packages/
        _gpaw.cpython-310-x86_64-linux-gnu.so
ase:    /home/modules/software/ASE/3.22.1-intel-2022a/lib/python3.10/site-packages/ase (version 3.22.1)
numpy:  /home/modules/software/SciPy-bundle/2022.05-intel-2022a/lib/python3.10/site-packages/numpy (version 1.22.3)
scipy:  /home/modules/software/SciPy-bundle/2022.05-intel-2022a/lib/python3.10/site-packages/scipy (version 1.8.1)
libxc:  5.2.3
units:  Angstrom and eV
cores: 40
OpenMP: False
OMP_NUM_THREADS: 1

Input parameters:
  basis: dzp
  h: 0.18
  kpts: {size: (4, 4, 1)}
  xc: BEEF-vdW

System changes: positions, numbers, cell, pbc, initial_charges, initial_magmoms 

Initialize ...

species:
  Ru:
    name: Ruthenium
    id: 670232e5f51aeb2542f664849653fb2d
    Z: 44.0
    valence: 16
    core: 28
    charge: 0.0
    file: /home/modules/software/GPAW-setups/0.9.20000/Ru.PBE.gz
    compensation charges: {type: gauss,
                           rc: 0.39,
                           lmax: 2}
    cutoffs: {filter: 2.16,
              core: 1.30}
    valence states:
      #              energy  rcut
      - 4s(2.00)   -76.316   1.281
      - 5s(1.00)    -4.236   1.281
      - 4p(6.00)   -46.423   1.286
      - 5p(0.00)    -0.913   1.286
      - 4d(7.00)    -5.203   1.254
      -  d          22.008   1.254
  
    # LCAO basis set for Ru:
    #   Name: dzp
    #   File: /home/modules/software/GPAW-setups/0.9.20000/Ru.dzp.basis.gz
    #   Number of radial functions: 11
    #   Number of spherical harmonics: 29
    #     l=0, rc=3.2969 Bohr: 4s-sz confined orbital
    #     l=0, rc=9.6875 Bohr: 5s-sz confined orbital
    #     l=1, rc=3.7656 Bohr: 4p-sz confined orbital
    #     l=1, rc=14.0938 Bohr: 5p-sz confined orbital
    #     l=2, rc=6.3281 Bohr: 4d-sz confined orbital
    #     l=0, rc=2.0781 Bohr: 4s-dz split-valence wave
    #     l=0, rc=5.8281 Bohr: 5s-dz split-valence wave
    #     l=1, rc=2.4219 Bohr: 4p-dz split-valence wave
    #     l=1, rc=8.7031 Bohr: 5p-dz split-valence wave
    #     l=2, rc=3.7500 Bohr: 4d-dz split-valence wave
    #     l=1, rc=9.6875 Bohr: p-type Gaussian polarization
    #   Number of RI-basis functions 0

  C:
    name: Carbon
    id: 4aa54d4b901d75f77cc0ea3eec22967b
    Z: 6.0
    valence: 4
    core: 2
    charge: 0.0
    file: /home/modules/software/GPAW-setups/0.9.20000/C.PBE.gz
    compensation charges: {type: gauss,
                           rc: 0.20,
                           lmax: 2}
    cutoffs: {filter: 1.14,
              core: 1.14}
    valence states:
      #              energy  rcut
      - 2s(2.00)   -13.751   0.635
      - 2p(2.00)    -5.284   0.635
      -  s          13.461   0.635
      -  p          21.927   0.635
      -  d           0.000   0.635
  
    # LCAO basis set for C:
    #   Name: dzp
    #   File: /home/modules/software/GPAW-setups/0.9.20000/C.dzp.basis.gz
    #   Number of radial functions: 5
    #   Number of spherical harmonics: 13
    #     l=0, rc=5.5469 Bohr: 2s-sz confined orbital
    #     l=1, rc=6.6719 Bohr: 2p-sz confined orbital
    #     l=0, rc=3.0312 Bohr: 2s-dz split-valence wave
    #     l=1, rc=3.7500 Bohr: 2p-dz split-valence wave
    #     l=2, rc=6.6719 Bohr: d-type Gaussian polarization
    #   Number of RI-basis functions 0

Reference energy: -4437852.127500  # eV

Spin-paired calculation

Convergence criteria:
 Maximum [total energy] change in last 3 cyles: 0.0005 eV / electron
 Maximum integral of absolute [dens]ity change: 0.0001 electrons / valence electron
 Maximum integral of absolute [eigenst]ate change: 4e-08 eV^2 / valence electron
 Maximum number of scf [iter]ations: 333
 (Square brackets indicate name in SCF output, whereas a 'c' in
 the SCF output indicates the quantity has converged.)

Symmetries present (total): 2

  ( 1  0  0)  (-1  0  0)
  ( 0  1  0)  ( 1  1  0)
  ( 0  0  1)  ( 0  0  1)
Note: your k-points are not as symmetric as your crystal!

16 k-points: 4 x 4 x 1 Monkhorst-Pack grid
8 k-points in the irreducible part of the Brillouin zone
       k-points in crystal coordinates                weights
   0:     0.12500000   -0.37500000    0.00000000          2/16
   1:     0.12500000   -0.12500000    0.00000000          2/16
   2:     0.12500000    0.12500000    0.00000000          2/16
   3:     0.12500000    0.37500000    0.00000000          2/16
   4:     0.37500000   -0.37500000    0.00000000          2/16
   5:     0.37500000   -0.12500000    0.00000000          2/16
   6:     0.37500000    0.12500000    0.00000000          2/16
   7:     0.37500000    0.37500000    0.00000000          2/16

Wave functions: Uniform real-space grid
  Kinetic energy operator: 8*3+1=25 point O(h^6) finite-difference Laplacian
  ScaLapack parameters: grid=1x1, blocksize=None
  Wavefunction extrapolation:
    Improved wavefunction reuse through dual PAW basis 

Occupation numbers: Fermi-Dirac:
  width: 0.1000  # eV
 

Eigensolver
   Davidson(niter=2) 

Densities:
  Coarse grid: 40*40*148 grid
  Fine grid: 80*80*296 grid
  Total Charge: 0.000000 

Density mixing:
  Method: separate
  Backend: pulay
  Linear mixing parameter: 0.05
  old densities: 5
  Damping of long wavelength oscillations: 50 

Hamiltonian:
  XC and Coulomb potentials evaluated on a 80*80*296 grid
  Using the BEEF-vdW Exchange-Correlation functional
  Interpolation: tri-quintic (5. degree polynomial)
  Poisson solver: FastPoissonSolver using
    Stencil: 8*3+1=25 point O(h^6) finite-difference Laplacian
    FFT axes: [0, 1]
    FST axes: [2]
 

XC parameters: BEEF-vdW with 2 nearest neighbor stencil

Memory estimate:
  Process memory now: 213.38 MiB
  Calculator: 593.97 MiB
    Density: 56.88 MiB
      Arrays: 9.35 MiB
      Localized functions: 43.99 MiB
      Mixer: 3.54 MiB
    Hamiltonian: 9.00 MiB
      Arrays: 6.12 MiB
      XC: 0.00 MiB
      Poisson: 0.00 MiB
      vbar: 2.88 MiB
    Wavefunctions: 528.09 MiB
      Arrays psit_nG: 249.22 MiB
      Eigensolver: 271.68 MiB
      Projections: 0.71 MiB
      Projectors: 6.48 MiB

Total number of cores used: 40
Parallelization over k-points: 8
Domain decomposition: 1 x 1 x 5

Number of atoms: 37
Number of atomic orbitals: 1057
Number of bands in calculation: 352
Number of valence electrons: 580
Bands to converge: occupied

... initialized

Initializing position-dependent things.

Density initialized from atomic densities
Creating initial wave functions:
  352 bands from LCAO basis set

                                              
                                              
                                              
                                              
                                              
                          C                   
                Ru     Ru    Ru               
           Ru    RRu    RRu    Ru             
                    Ru     Ru    Ru           
             Ru    Ru     Ru                  
              RRu   RRu    RRu                
                                              
               Ru     Ru     Ru               
                 Ru     Ru    Ru              
          Ru    Ru     Ru                     
            Ru    Ru     Ru                   
              Ru    Ru     Ru                 
                                              
                                              
                                              
                                              

Positions:
   0 Ru     0.000000    0.000000    9.999999    ( 0.0000,  0.0000,  0.0000)
   1 Ru     1.355017    0.782320   12.212733    ( 0.0000,  0.0000,  0.0000)
   2 Ru    -0.000000    1.567087   14.455961    ( 0.0000,  0.0000,  0.0000)
   3 Ru     2.710329   -0.000147   16.576449    ( 0.0000,  0.0000,  0.0000)
   4 Ru    -1.355017    2.346959    9.999999    ( 0.0000,  0.0000,  0.0000)
   5 Ru    -0.000000    3.129279   12.212733    ( 0.0000,  0.0000,  0.0000)
   6 Ru    -1.356314    3.910850   14.455644    ( 0.0000,  0.0000,  0.0000)
   7 Ru     1.355037    2.347288   16.576449    ( 0.0000,  0.0000,  0.0000)
   8 Ru    -2.710035    4.693918    9.999999    ( 0.0000,  0.0000,  0.0000)
   9 Ru    -1.355017    5.476238   12.212733    ( 0.0000,  0.0000,  0.0000)
  10 Ru    -2.707915    6.257334   14.455961    ( 0.0000,  0.0000,  0.0000)
  11 Ru    -0.000000    4.693918   16.575086    ( 0.0000,  0.0000,  0.0000)
  12 Ru     2.710035    0.000000    9.999999    ( 0.0000,  0.0000,  0.0000)
  13 Ru     4.065052    0.782320   12.212733    ( 0.0000,  0.0000,  0.0000)
  14 Ru     2.708133    1.563542   14.457333    ( 0.0000,  0.0000,  0.0000)
  15 Ru     5.419776   -0.000147   16.576449    ( 0.0000,  0.0000,  0.0000)
  16 Ru     1.355017    2.346959    9.999999    ( 0.0000,  0.0000,  0.0000)
  17 Ru     2.710035    3.129279   12.212733    ( 0.0000,  0.0000,  0.0000)
  18 Ru     1.356314    3.910850   14.455644    ( 0.0000,  0.0000,  0.0000)
  19 Ru     4.065052    2.346959   16.575797    ( 0.0000,  0.0000,  0.0000)
  20 Ru     0.000000    4.693918    9.999999    ( 0.0000,  0.0000,  0.0000)
  21 Ru     1.355017    5.476238   12.212733    ( 0.0000,  0.0000,  0.0000)
  22 Ru    -0.000000    6.260055   14.455644    ( 0.0000,  0.0000,  0.0000)
  23 Ru     2.709760    4.693737   16.576449    ( 0.0000,  0.0000,  0.0000)
  24 Ru     5.420070    0.000000    9.999999    ( 0.0000,  0.0000,  0.0000)
  25 Ru     6.775087    0.782320   12.212733    ( 0.0000,  0.0000,  0.0000)
  26 Ru     5.421972    1.563542   14.457333    ( 0.0000,  0.0000,  0.0000)
  27 Ru     8.130105    0.000000   16.573376    ( 0.0000,  0.0000,  0.0000)
  28 Ru     4.065052    2.346959    9.999999    ( 0.0000,  0.0000,  0.0000)
  29 Ru     5.420070    3.129279   12.212733    ( 0.0000,  0.0000,  0.0000)
  30 Ru     4.065052    3.913794   14.457333    ( 0.0000,  0.0000,  0.0000)
  31 Ru     6.775068    2.347288   16.576449    ( 0.0000,  0.0000,  0.0000)
  32 Ru     2.710035    4.693918    9.999999    ( 0.0000,  0.0000,  0.0000)
  33 Ru     4.065052    5.476238   12.212733    ( 0.0000,  0.0000,  0.0000)
  34 Ru     2.707915    6.257334   14.455961    ( 0.0000,  0.0000,  0.0000)
  35 Ru     5.420345    4.693737   16.576449    ( 0.0000,  0.0000,  0.0000)
  36 C      4.065052    3.911587   17.358111    ( 0.0000,  0.0000,  0.0000)

Unit cell:
           periodic     x           y           z      points  spacing
  1. axis:    yes    8.130105    0.000000    0.000000    40     0.1760
  2. axis:    yes   -4.065052    7.040877    0.000000    40     0.1760
  3. axis:    no     0.000000    0.000000   26.638201   148     0.1800

  Lengths:   8.130105   8.130105  26.638201
  Angles:   90.000000  90.000000 120.000000

Effective grid spacing dv^(1/3) = 0.1860

     iter     time        total  log10-change:
                         energy  eigst   dens
iter:   1 04:02:41 -5074.397109
iter:   2 04:03:21 -5112.042604  -0.60  -1.30
iter:   3 04:04:00 -5072.643447  -1.12  -1.15
iter:   4 04:04:40 -5061.930047  -0.98  -1.32
iter:   5 04:05:19 -5055.645630  -0.79  -1.49
iter:   6 04:05:59 -5055.320984  -1.62  -1.77
iter:   7 04:06:38 -5054.764504  -1.61  -1.85
iter:   8 04:07:18 -5055.398648  -1.89  -1.94
iter:   9 04:07:57 -5055.942334  -2.38  -2.05
iter:  10 04:08:37 -5054.910570  -2.84  -1.96
iter:  11 04:09:16 -5054.764141  -2.70  -2.18
iter:  12 04:09:56 -5054.643936c -2.40  -2.36
iter:  13 04:10:35 -5054.650137c -2.62  -2.63
iter:  14 04:11:14 -5054.638426c -3.55  -2.82
iter:  15 04:11:54 -5054.635400c -4.30  -2.88
iter:  16 04:12:33 -5054.643943c -4.53  -2.89
iter:  17 04:13:13 -5054.630696c -3.57  -2.84
iter:  18 04:13:52 -5054.632211c -4.57  -3.05
iter:  19 04:14:32 -5054.635322c -4.43  -3.13
iter:  20 04:15:11 -5054.634628c -4.56  -3.37
iter:  21 04:15:51 -5054.634310c -4.90  -3.49
iter:  22 04:16:30 -5054.642711c -4.77  -3.54
iter:  23 04:17:10 -5054.633665c -5.17  -3.09
iter:  24 04:17:49 -5054.632791c -5.19  -3.66
iter:  25 04:18:29 -5054.632874c -6.07  -3.96
iter:  26 04:19:08 -5054.632847c -6.48  -4.06c
iter:  27 04:19:48 -5054.632882c -7.03  -4.10c
iter:  28 04:20:27 -5054.632939c -6.13  -4.13c
iter:  29 04:21:07 -5054.632934c -6.33  -4.02c
iter:  30 04:21:46 -5054.632912c -7.22  -4.39c
iter:  31 04:22:26 -5054.632869c -7.53c -4.68c

Converged after 31 iterations.

Dipole moment: (-3.919411, -7.223854, -0.013264) |e|*Ang

Energy contributions relative to reference atoms: (reference = -4437852.127500)

Kinetic:       +653.700988
Potential:     -731.783006
External:        +0.000000
XC:            -4967.722602
Entropy (-ST):   -1.900658
Local:           -7.877921
--------------------------
Free energy:   -5055.583198
Extrapolated:  -5054.632869

Showing only first 2 kpts
 Kpt  Band  Eigenvalues  Occupancy
  0   288     -5.23826    1.25255
  0   289     -5.19554    1.04449
  0   290     -5.16520    0.89323
  0   291     -5.13986    0.77032

  1   288     -5.13814    0.76217
  1   289     -5.13762    0.75974
  1   290     -5.08182    0.51916
  1   291     -5.04143    0.37937


Fermi level: -5.18663

No gap

Forces in eV/Ang:
  0 Ru    0.00000    0.05045    0.69206
  1 Ru   -0.00910    0.00717   -0.76909
  2 Ru    0.00000    0.00615    0.43989
  3 Ru   -0.10671    0.06213    0.03311
  4 Ru    0.03663   -0.01530    0.70210
  5 Ru    0.00000   -0.04666   -0.74218
  6 Ru    0.13357   -0.09226   -0.22774
  7 Ru   -0.73270   -0.43016   -0.07815
  8 Ru    0.02723    0.00893    0.69368
  9 Ru   -0.00746   -0.00269   -0.70995
 10 Ru   -0.02493    0.18086   -0.21821
 11 Ru    0.00000   -0.12785    0.03356
 12 Ru    0.02567   -0.00474    0.69641
 13 Ru    0.00000   -0.01653   -0.72077
 14 Ru   -0.15523   -0.06258   -0.22489
 15 Ru    0.10671    0.06213    0.03311
 16 Ru   -0.03663   -0.01530    0.70210
 17 Ru    0.07797    0.03425   -0.62001
 18 Ru   -0.13357   -0.09226   -0.22774
 19 Ru    0.00000   -5.10289   -1.54398
 20 Ru    0.00000    0.01918    0.71596
 21 Ru    0.00746   -0.00269   -0.70995
 22 Ru    0.00000    0.02132   -0.12239
 23 Ru   -4.44463    2.55208   -1.54286
 24 Ru   -0.02567   -0.00474    0.69641
 25 Ru    0.00910    0.00717   -0.76909
 26 Ru    0.15523   -0.06258   -0.22489
 27 Ru    0.00000    0.84457   -0.07210
 28 Ru    0.00000   -0.02556    0.71582
 29 Ru   -0.07797    0.03425   -0.62001
 30 Ru    0.00000    0.00899   -0.92518
 31 Ru    0.73270   -0.43016   -0.07815
 32 Ru   -0.02723    0.00893    0.69368
 33 Ru    0.00000   -0.10523   -0.62861
 34 Ru    0.02493    0.18086   -0.21821
 35 Ru    4.44463    2.55208   -1.54286
 36 C     0.00000    0.01235    6.68262

      Step     Time          Energy         fmax
BFGS:    0 04:22:46    -5054.632869        6.6826
System changes: positions 

Initializing position-dependent things.

Density initialized from wave functions
                                              
                                              
                                              
                                              
                                              
                          C                   
                Ru     Ru     Ru              
           Ru    RRu    RRu    Ru             
                    Ru     Ru    Ru           
             Ru    Ru     Ru                  
              RRu   RRu    RRu                
                                              
               Ru     Ru     Ru               
                 Ru     Ru    Ru              
          Ru    Ru     Ru                     
            Ru    Ru     Ru                   
              Ru    Ru     Ru                 
                                              
                                              
                                              
                                              

Positions:
   0 Ru     0.000000    0.000000    9.999999    ( 0.0000,  0.0000,  0.0000)
   1 Ru     1.355017    0.782320   12.212733    ( 0.0000,  0.0000,  0.0000)
   2 Ru    -0.000000    1.567175   14.462245    ( 0.0000,  0.0000,  0.0000)
   3 Ru     2.708805    0.000741   16.576922    ( 0.0000,  0.0000,  0.0000)
   4 Ru    -1.355017    2.346959    9.999999    ( 0.0000,  0.0000,  0.0000)
   5 Ru    -0.000000    3.129279   12.212733    ( 0.0000,  0.0000,  0.0000)
   6 Ru    -1.354406    3.909532   14.452390    ( 0.0000,  0.0000,  0.0000)
   7 Ru     1.344570    2.341142   16.575333    ( 0.0000,  0.0000,  0.0000)
   8 Ru    -2.710035    4.693918    9.999999    ( 0.0000,  0.0000,  0.0000)
   9 Ru    -1.355017    5.476238   12.212733    ( 0.0000,  0.0000,  0.0000)
  10 Ru    -2.708271    6.259918   14.452843    ( 0.0000,  0.0000,  0.0000)
  11 Ru    -0.000000    4.692092   16.575565    ( 0.0000,  0.0000,  0.0000)
  12 Ru     2.710035    0.000000    9.999999    ( 0.0000,  0.0000,  0.0000)
  13 Ru     4.065052    0.782320   12.212733    ( 0.0000,  0.0000,  0.0000)
  14 Ru     2.705916    1.562648   14.454120    ( 0.0000,  0.0000,  0.0000)
  15 Ru     5.421300    0.000741   16.576922    ( 0.0000,  0.0000,  0.0000)
  16 Ru     1.355017    2.346959    9.999999    ( 0.0000,  0.0000,  0.0000)
  17 Ru     2.710035    3.129279   12.212733    ( 0.0000,  0.0000,  0.0000)
  18 Ru     1.354406    3.909532   14.452390    ( 0.0000,  0.0000,  0.0000)
  19 Ru     4.065052    2.274061   16.553740    ( 0.0000,  0.0000,  0.0000)
  20 Ru     0.000000    4.693918    9.999999    ( 0.0000,  0.0000,  0.0000)
  21 Ru     1.355017    5.476238   12.212733    ( 0.0000,  0.0000,  0.0000)
  22 Ru    -0.000000    6.260360   14.453895    ( 0.0000,  0.0000,  0.0000)
  23 Ru     2.646266    4.730195   16.554408    ( 0.0000,  0.0000,  0.0000)
  24 Ru     5.420070    0.000000    9.999999    ( 0.0000,  0.0000,  0.0000)
  25 Ru     6.775087    0.782320   12.212733    ( 0.0000,  0.0000,  0.0000)
  26 Ru     5.424189    1.562648   14.454120    ( 0.0000,  0.0000,  0.0000)
  27 Ru     8.130105    0.012065   16.572346    ( 0.0000,  0.0000,  0.0000)
  28 Ru     4.065052    2.346959    9.999999    ( 0.0000,  0.0000,  0.0000)
  29 Ru     5.420070    3.129279   12.212733    ( 0.0000,  0.0000,  0.0000)
  30 Ru     4.065052    3.913923   14.444116    ( 0.0000,  0.0000,  0.0000)
  31 Ru     6.785535    2.341142   16.575333    ( 0.0000,  0.0000,  0.0000)
  32 Ru     2.710035    4.693918    9.999999    ( 0.0000,  0.0000,  0.0000)
  33 Ru     4.065052    5.476238   12.212733    ( 0.0000,  0.0000,  0.0000)
  34 Ru     2.708271    6.259918   14.452843    ( 0.0000,  0.0000,  0.0000)
  35 Ru     5.483839    4.730195   16.554408    ( 0.0000,  0.0000,  0.0000)
  36 C      4.065052    3.911764   17.453577    ( 0.0000,  0.0000,  0.0000)

Unit cell:
           periodic     x           y           z      points  spacing
  1. axis:    yes    8.130105    0.000000    0.000000    40     0.1760
  2. axis:    yes   -4.065052    7.040877    0.000000    40     0.1760
  3. axis:    no     0.000000    0.000000   26.638201   148     0.1800

  Lengths:   8.130105   8.130105  26.638201
  Angles:   90.000000  90.000000 120.000000

Effective grid spacing dv^(1/3) = 0.1860

     iter     time        total  log10-change:
                         energy  eigst   dens
iter:   1 04:24:43 -5067.959380  -0.62
iter:   2 04:25:23 -5184.039911  -0.62  -1.63
iter:   3 04:26:04 -5056.668478  -1.16  -1.07
iter:   4 04:26:43 -5056.798235  -1.68  -2.32
iter:   5 04:27:23 -5056.100805  -2.27  -2.11
iter:   6 04:28:04 -5055.837161  -2.44  -2.32
iter:   7 04:28:44 -5055.782147  -2.44  -2.75
iter:   8 04:29:24 -5055.780584c -3.07  -2.94
iter:   9 04:30:04 -5055.805365c -3.58  -2.95
iter:  10 04:30:44 -5055.778221c -3.71  -2.76
iter:  11 04:31:24 -5055.771578c -3.86  -3.00
iter:  12 04:32:04 -5055.770787c -4.22  -3.25
iter:  13 04:32:44 -5055.770617c -4.39  -3.18
iter:  14 04:33:24 -5055.770395c -4.95  -3.42
iter:  15 04:34:04 -5055.770648c -4.85  -3.47
iter:  16 04:34:44 -5055.772763c -4.52  -3.56
iter:  17 04:35:24 -5055.771344c -5.34  -3.43
iter:  18 04:36:04 -5055.771266c -5.95  -3.80
iter:  19 04:36:44 -5055.771374c -5.23  -3.86
iter:  20 04:37:25 -5055.771671c -5.94  -4.13c
iter:  21 04:38:05 -5055.771408c -6.22  -3.99
iter:  22 04:38:45 -5055.771517c -6.68  -4.22c
iter:  23 04:39:25 -5055.771505c -6.69  -4.33c
iter:  24 04:40:05 -5055.771483c -6.40  -4.04c
iter:  25 04:40:45 -5055.771482c -7.15  -4.65c
iter:  26 04:41:25 -5055.771477c -7.52c -4.52c

Converged after 26 iterations.

Dipole moment: (-7.723396, -7.718657, -0.054713) |e|*Ang

Energy contributions relative to reference atoms: (reference = -4437852.127500)

Kinetic:       +631.982653
Potential:     -714.543861
External:        +0.000000
XC:            -4964.596487
Entropy (-ST):   -1.893962
Local:           -7.666800
--------------------------
Free energy:   -5056.718458
Extrapolated:  -5055.771477

Showing only first 2 kpts
 Kpt  Band  Eigenvalues  Occupancy
  0   288     -5.28032    1.27317
  0   289     -5.23117    1.03454
  0   290     -5.19739    0.86646
  0   291     -5.17084    0.73909

  1   288     -5.17551    0.76095
  1   289     -5.17446    0.75601
  1   290     -5.12558    0.54308
  1   291     -5.09350    0.42578


Fermi level: -5.22426

No gap

Forces in eV/Ang:
  0 Ru    0.00000    0.05148    0.69695
  1 Ru   -0.03098    0.02029   -0.88105
  2 Ru    0.00000    0.00800    0.35939
  3 Ru   -0.12362    0.07281    0.01732
  4 Ru    0.03756   -0.01503    0.70483
  5 Ru    0.00000   -0.07353   -0.85708
  6 Ru    0.04820   -0.08998   -0.21561
  7 Ru   -0.49910   -0.29080   -0.14918
  8 Ru    0.01914    0.00273    0.68188
  9 Ru    0.00756    0.00507   -0.70626
 10 Ru   -0.06300    0.10260   -0.20616
 11 Ru    0.00000   -0.14448    0.01714
 12 Ru    0.01001    0.00301    0.68967
 13 Ru    0.00000   -0.03373   -0.71750
 14 Ru   -0.10816    0.01235   -0.21386
 15 Ru    0.12362    0.07281    0.01732
 16 Ru   -0.03756   -0.01503    0.70483
 17 Ru    0.05967    0.02493   -0.62574
 18 Ru   -0.04820   -0.08998   -0.21561
 19 Ru    0.00000   -1.04939    0.09578
 20 Ru    0.00000    0.00326    0.71142
 21 Ru   -0.00756    0.00507   -0.70626
 22 Ru    0.00000    0.01686   -0.17468
 23 Ru   -0.92742    0.53163    0.09177
 24 Ru   -0.01001    0.00301    0.68967
 25 Ru    0.03098    0.02029   -0.88105
 26 Ru    0.10816    0.01235   -0.21386
 27 Ru    0.00000    0.58082   -0.13978
 28 Ru    0.00000   -0.01346    0.70481
 29 Ru   -0.05967    0.02493   -0.62574
 30 Ru    0.00000    0.00692   -0.61971
 31 Ru    0.49910   -0.29080   -0.14918
 32 Ru   -0.01914    0.00273    0.68188
 33 Ru    0.00000   -0.08400   -0.63550
 34 Ru    0.06300    0.10260   -0.20616
 35 Ru    0.92742    0.53163    0.09177
 36 C     0.00000    0.01561    2.10019

BFGS:    1 04:41:45    -5055.771477        2.1002
System changes: positions 

Initializing position-dependent things.

Density initialized from wave functions
                                              
                                              
                                              
                                              
                                              
                          C                   
                Ru     Ru     Ru              
           Ru    RRu    RRu    Ru             
                    Ru     Ru    Ru           
             Ru    Ru     Ru                  
              RRu   RRu    RRu                
                                              
               Ru     Ru     Ru               
                 Ru     Ru    Ru              
          Ru    Ru     Ru                     
            Ru    Ru     Ru                   
              Ru    Ru     Ru                 
                                              
                                              
                                              
                                              

Positions:
   0 Ru     0.000000    0.000000    9.999999    ( 0.0000,  0.0000,  0.0000)
   1 Ru     1.355017    0.782320   12.212733    ( 0.0000,  0.0000,  0.0000)
   2 Ru    -0.000000    1.567328   14.469185    ( 0.0000,  0.0000,  0.0000)
   3 Ru     2.706434    0.002137   16.577261    ( 0.0000,  0.0000,  0.0000)
   4 Ru    -1.355017    2.346959    9.999999    ( 0.0000,  0.0000,  0.0000)
   5 Ru    -0.000000    3.129279   12.212733    ( 0.0000,  0.0000,  0.0000)
   6 Ru    -1.353449    3.907801   14.448239    ( 0.0000,  0.0000,  0.0000)
   7 Ru     1.334889    2.335501   16.572489    ( 0.0000,  0.0000,  0.0000)
   8 Ru    -2.710035    4.693918    9.999999    ( 0.0000,  0.0000,  0.0000)
   9 Ru    -1.355017    5.476238   12.212733    ( 0.0000,  0.0000,  0.0000)
  10 Ru    -2.709469    6.261918   14.448875    ( 0.0000,  0.0000,  0.0000)
  11 Ru    -0.000000    4.689319   16.575900    ( 0.0000,  0.0000,  0.0000)
  12 Ru     2.710035    0.000000    9.999999    ( 0.0000,  0.0000,  0.0000)
  13 Ru     4.065052    0.782320   12.212733    ( 0.0000,  0.0000,  0.0000)
  14 Ru     2.703819    1.562858   14.450004    ( 0.0000,  0.0000,  0.0000)
  15 Ru     5.423671    0.002137   16.577261    ( 0.0000,  0.0000,  0.0000)
  16 Ru     1.355017    2.346959    9.999999    ( 0.0000,  0.0000,  0.0000)
  17 Ru     2.710035    3.129279   12.212733    ( 0.0000,  0.0000,  0.0000)
  18 Ru     1.353449    3.907801   14.448239    ( 0.0000,  0.0000,  0.0000)
  19 Ru     4.065052    2.252440   16.554999    ( 0.0000,  0.0000,  0.0000)
  20 Ru     0.000000    4.693918    9.999999    ( 0.0000,  0.0000,  0.0000)
  21 Ru     1.355017    5.476238   12.212733    ( 0.0000,  0.0000,  0.0000)
  22 Ru    -0.000000    6.260685   14.450555    ( 0.0000,  0.0000,  0.0000)
  23 Ru     2.627181    4.741137   16.555592    ( 0.0000,  0.0000,  0.0000)
  24 Ru     5.420070    0.000000    9.999999    ( 0.0000,  0.0000,  0.0000)
  25 Ru     6.775087    0.782320   12.212733    ( 0.0000,  0.0000,  0.0000)
  26 Ru     5.426286    1.562858   14.450004    ( 0.0000,  0.0000,  0.0000)
  27 Ru     8.130105    0.023329   16.569682    ( 0.0000,  0.0000,  0.0000)
  28 Ru     4.065052    2.346959    9.999999    ( 0.0000,  0.0000,  0.0000)
  29 Ru     5.420070    3.129279   12.212733    ( 0.0000,  0.0000,  0.0000)
  30 Ru     4.065052    3.914057   14.432090    ( 0.0000,  0.0000,  0.0000)
  31 Ru     6.795216    2.335501   16.572489    ( 0.0000,  0.0000,  0.0000)
  32 Ru     2.710035    4.693918    9.999999    ( 0.0000,  0.0000,  0.0000)
  33 Ru     4.065052    5.476238   12.212733    ( 0.0000,  0.0000,  0.0000)
  34 Ru     2.709469    6.261918   14.448875    ( 0.0000,  0.0000,  0.0000)
  35 Ru     5.502924    4.741137   16.555592    ( 0.0000,  0.0000,  0.0000)
  36 C      4.065052    3.912063   17.495593    ( 0.0000,  0.0000,  0.0000)

Unit cell:
           periodic     x           y           z      points  spacing
  1. axis:    yes    8.130105    0.000000    0.000000    40     0.1760
  2. axis:    yes   -4.065052    7.040877    0.000000    40     0.1760
  3. axis:    no     0.000000    0.000000   26.638201   148     0.1800

  Lengths:   8.130105   8.130105  26.638201
  Angles:   90.000000  90.000000 120.000000

Effective grid spacing dv^(1/3) = 0.1860

     iter     time        total  log10-change:
                         energy  eigst   dens
iter:   1 04:43:42 -5057.940436  -1.61
iter:   2 04:44:22 -5084.954081  -1.43  -1.98
iter:   3 04:45:03 -5056.055481  -1.83  -1.36
iter:   4 04:45:43 -5055.964634  -2.67  -2.56
iter:   5 04:46:23 -5055.947130c -3.20  -2.72
iter:   6 04:47:03 -5055.915571c -3.42  -2.86
iter:   7 04:47:44 -5055.911994c -3.58  -3.20
iter:   8 04:48:24 -5055.914197c -4.14  -3.38
iter:   9 04:49:04 -5055.911199c -4.69  -3.20
iter:  10 04:49:45 -5055.909742c -4.53  -3.39
iter:  11 04:50:25 -5055.909496c -4.71  -3.66
iter:  12 04:51:05 -5055.909911c -4.96  -3.75
iter:  13 04:51:46 -5055.909466c -5.89  -3.76
iter:  14 04:52:26 -5055.909758c -6.02  -3.83
iter:  15 04:53:06 -5055.910104c -5.45  -3.77
iter:  16 04:53:47 -5055.909691c -5.62  -3.72
iter:  17 04:54:27 -5055.909623c -6.17  -4.04c
iter:  18 04:55:07 -5055.909648c -6.41  -4.24c
iter:  19 04:55:48 -5055.909632c -6.80  -4.40c
iter:  20 04:56:28 -5055.909713c -7.04  -4.50c
iter:  21 04:57:08 -5055.909660c -7.31  -4.43c
iter:  22 04:57:49 -5055.909625c -7.14  -4.40c
iter:  23 04:58:29 -5055.909667c -7.40c -4.73c

Converged after 23 iterations.

Dipole moment: (-8.930243, -8.239725, -0.072314) |e|*Ang

Energy contributions relative to reference atoms: (reference = -4437852.127500)

Kinetic:       +626.784529
Potential:     -710.413820
External:        +0.000000
XC:            -4963.704352
Entropy (-ST):   -1.888366
Local:           -7.631840
--------------------------
Free energy:   -5056.853850
Extrapolated:  -5055.909667

Showing only first 2 kpts
 Kpt  Band  Eigenvalues  Occupancy
  0   288     -5.29636    1.26875
  0   289     -5.24759    1.03167
  0   290     -5.21347    0.86197
  0   291     -5.18444    0.72330

  1   288     -5.19253    0.76107
  1   289     -5.19166    0.75698
  1   290     -5.14659    0.55912
  1   291     -5.11386    0.43715


Fermi level: -5.24126

No gap

Forces in eV/Ang:
  0 Ru    0.00000    0.05451    0.68742
  1 Ru   -0.03186    0.02145   -0.92142
  2 Ru    0.00000    0.01024    0.24409
  3 Ru   -0.10839    0.06556    0.00232
  4 Ru    0.04041   -0.01638    0.69505
  5 Ru    0.00000   -0.07567   -0.89805
  6 Ru    0.00630   -0.05279   -0.16142
  7 Ru   -0.32315   -0.18657   -0.13422
  8 Ru    0.01600    0.00052    0.67171
  9 Ru    0.01056    0.00673   -0.69889
 10 Ru   -0.05239    0.04493   -0.15233
 11 Ru    0.00000   -0.12658    0.00232
 12 Ru   -0.00188    0.00958    0.68985
 13 Ru    0.00000   -0.03722   -0.71065
 14 Ru   -0.05355    0.03265   -0.16103
 15 Ru    0.10839    0.06556    0.00232
 16 Ru   -0.04041   -0.01638    0.69505
 17 Ru    0.05491    0.02270   -0.62955
 18 Ru   -0.00630   -0.05279   -0.16142
 19 Ru    0.00000   -0.15114    0.41569
 20 Ru    0.00000   -0.00967    0.71190
 21 Ru   -0.01056    0.00673   -0.69889
 22 Ru    0.00000    0.01259   -0.14379
 23 Ru   -0.14181    0.07488    0.41362
 24 Ru    0.00188    0.00958    0.68985
 25 Ru    0.03186    0.02145   -0.92142
 26 Ru    0.05355    0.03265   -0.16103
 27 Ru    0.00000    0.37573   -0.11948
 28 Ru    0.00000   -0.00888    0.69529
 29 Ru   -0.05491    0.02270   -0.62955
 30 Ru    0.00000    0.00073   -0.41533
 31 Ru    0.32315   -0.18657   -0.13422
 32 Ru   -0.01600    0.00052    0.67171
 33 Ru    0.00000   -0.07792   -0.63954
 34 Ru    0.05239    0.04493   -0.15233
 35 Ru    0.14181    0.07488    0.41362
 36 C     0.00000   -0.00211    0.93856

BFGS:    2 04:58:49    -5055.909667        0.9386
System changes: positions 

Initializing position-dependent things.

Density initialized from wave functions
                                              
                                              
                                              
                                              
                                              
                          C                   
                Ru     Ru     Ru              
           Ru    RRu    RRu    Ru             
                    Ru     Ru    Ru           
             Ru    Ru     Ru                  
               Ru    Ru     Ru                
              Ru    Ru     Ru                 
               Ru     Ru     Ru               
                 Ru     Ru    Ru              
          Ru    Ru     Ru                     
            Ru    Ru     Ru                   
              Ru    Ru     Ru                 
                                              
                                              
                                              
                                              

Positions:
   0 Ru     0.000000    0.000000    9.999999    ( 0.0000,  0.0000,  0.0000)
   1 Ru     1.355017    0.782320   12.212733    ( 0.0000,  0.0000,  0.0000)
   2 Ru    -0.000000    1.567612   14.476922    ( 0.0000,  0.0000,  0.0000)
   3 Ru     2.703220    0.004070   16.577417    ( 0.0000,  0.0000,  0.0000)
   4 Ru    -1.355017    2.346959    9.999999    ( 0.0000,  0.0000,  0.0000)
   5 Ru    -0.000000    3.129279   12.212733    ( 0.0000,  0.0000,  0.0000)
   6 Ru    -1.352995    3.906069   14.443263    ( 0.0000,  0.0000,  0.0000)
   7 Ru     1.324452    2.329458   16.568557    ( 0.0000,  0.0000,  0.0000)
   8 Ru    -2.710035    4.693918    9.999999    ( 0.0000,  0.0000,  0.0000)
   9 Ru    -1.355017    5.476238   12.212733    ( 0.0000,  0.0000,  0.0000)
  10 Ru    -2.711025    6.263573   14.444164    ( 0.0000,  0.0000,  0.0000)
  11 Ru    -0.000000    4.685564   16.576056    ( 0.0000,  0.0000,  0.0000)
  12 Ru     2.710035    0.000000    9.999999    ( 0.0000,  0.0000,  0.0000)
  13 Ru     4.065052    0.782320   12.212733    ( 0.0000,  0.0000,  0.0000)
  14 Ru     2.701948    1.563655   14.445047    ( 0.0000,  0.0000,  0.0000)
  15 Ru     5.426885    0.004070   16.577417    ( 0.0000,  0.0000,  0.0000)
  16 Ru     1.355017    2.346959    9.999999    ( 0.0000,  0.0000,  0.0000)
  17 Ru     2.710035    3.129279   12.212733    ( 0.0000,  0.0000,  0.0000)
  18 Ru     1.352995    3.906069   14.443263    ( 0.0000,  0.0000,  0.0000)
  19 Ru     4.065052    2.241070   16.564451    ( 0.0000,  0.0000,  0.0000)
  20 Ru     0.000000    4.693918    9.999999    ( 0.0000,  0.0000,  0.0000)
  21 Ru     1.355017    5.476238   12.212733    ( 0.0000,  0.0000,  0.0000)
  22 Ru    -0.000000    6.261076   14.446249    ( 0.0000,  0.0000,  0.0000)
  23 Ru     2.616973    4.746839   16.564976    ( 0.0000,  0.0000,  0.0000)
  24 Ru     5.420070    0.000000    9.999999    ( 0.0000,  0.0000,  0.0000)
  25 Ru     6.775087    0.782320   12.212733    ( 0.0000,  0.0000,  0.0000)
  26 Ru     5.428157    1.563655   14.445047    ( 0.0000,  0.0000,  0.0000)
  27 Ru     8.130105    0.035462   16.566146    ( 0.0000,  0.0000,  0.0000)
  28 Ru     4.065052    2.346959    9.999999    ( 0.0000,  0.0000,  0.0000)
  29 Ru     5.420070    3.129279   12.212733    ( 0.0000,  0.0000,  0.0000)
  30 Ru     4.065052    3.914112   14.418791    ( 0.0000,  0.0000,  0.0000)
  31 Ru     6.805653    2.329458   16.568557    ( 0.0000,  0.0000,  0.0000)
  32 Ru     2.710035    4.693918    9.999999    ( 0.0000,  0.0000,  0.0000)
  33 Ru     4.065052    5.476238   12.212733    ( 0.0000,  0.0000,  0.0000)
  34 Ru     2.711025    6.263573   14.444164    ( 0.0000,  0.0000,  0.0000)
  35 Ru     5.513132    4.746839   16.564976    ( 0.0000,  0.0000,  0.0000)
  36 C      4.065052    3.912095   17.531480    ( 0.0000,  0.0000,  0.0000)

Unit cell:
           periodic     x           y           z      points  spacing
  1. axis:    yes    8.130105    0.000000    0.000000    40     0.1760
  2. axis:    yes   -4.065052    7.040877    0.000000    40     0.1760
  3. axis:    no     0.000000    0.000000   26.638201   148     0.1800

  Lengths:   8.130105   8.130105  26.638201
  Angles:   90.000000  90.000000 120.000000

Effective grid spacing dv^(1/3) = 0.1860

     iter     time        total  log10-change:
                         energy  eigst   dens
iter:   1 05:00:46 -5057.685017  -1.83
iter:   2 05:01:27 -5086.021111  -1.42  -1.98
iter:   3 05:02:07 -5055.996245  -1.86  -1.35
iter:   4 05:02:47 -5055.984254  -2.74  -2.85
iter:   5 05:03:28 -5055.982943c -3.37  -2.98
iter:   6 05:04:08 -5055.970182c -3.85  -3.01
iter:   7 05:04:48 -5055.967680c -3.95  -3.21
iter:   8 05:05:29 -5055.967286c -4.31  -3.40
iter:   9 05:06:09 -5055.967738c -4.87  -3.40
iter:  10 05:06:49 -5055.965768c -4.88  -3.34
iter:  11 05:07:30 -5055.965716c -5.08  -3.74
iter:  12 05:08:10 -5055.965692c -5.54  -3.84
iter:  13 05:08:51 -5055.965739c -5.88  -3.93
iter:  14 05:09:31 -5055.965690c -6.06  -4.05c
iter:  15 05:10:11 -5055.965766c -6.06  -4.11c
iter:  16 05:10:52 -5055.965766c -6.56  -4.09c
iter:  17 05:11:32 -5055.965681c -6.82  -4.36c
iter:  18 05:12:12 -5055.965734c -7.10  -4.27c
iter:  19 05:12:53 -5055.965711c -6.96  -4.42c
iter:  20 05:13:33 -5055.965728c -6.99  -4.55c
iter:  21 05:14:13 -5055.965732c -7.32  -4.63c
iter:  22 05:14:54 -5055.965723c -7.45c -4.65c

Converged after 22 iterations.

Dipole moment: (-9.671828, -8.845165, -0.085288) |e|*Ang

Energy contributions relative to reference atoms: (reference = -4437852.127500)

Kinetic:       +623.158174
Potential:     -707.513354
External:        +0.000000
XC:            -4963.059645
Entropy (-ST):   -1.882426
Local:           -7.609684
--------------------------
Free energy:   -5056.906936
Extrapolated:  -5055.965723

Showing only first 2 kpts
 Kpt  Band  Eigenvalues  Occupancy
  0   288     -5.30675    1.25569
  0   289     -5.26033    1.02936
  0   290     -5.22685    0.86283
  0   291     -5.19582    0.71495

  1   288     -5.20589    0.76183
  1   289     -5.20558    0.76039
  1   290     -5.16473    0.57924
  1   291     -5.12846    0.44197


Fermi level: -5.25446

No gap

Forces in eV/Ang:
  0 Ru    0.00000    0.05891    0.67248
  1 Ru   -0.02939    0.02069   -0.94818
  2 Ru    0.00000    0.01125    0.08252
  3 Ru   -0.07560    0.04761   -0.02904
  4 Ru    0.04442   -0.01853    0.68022
  5 Ru    0.00000   -0.07403   -0.92483
  6 Ru   -0.03754   -0.00331   -0.07186
  7 Ru   -0.11959   -0.06829   -0.10208
  8 Ru    0.01402   -0.00079    0.65955
  9 Ru    0.01261    0.00808   -0.69280
 10 Ru   -0.03443   -0.01985   -0.06210
 11 Ru    0.00000   -0.08791   -0.02834
 12 Ru   -0.01406    0.01668    0.69029
 13 Ru    0.00000   -0.03973   -0.70540
 14 Ru    0.01144    0.04740   -0.07147
 15 Ru    0.07560    0.04761   -0.02904
 16 Ru   -0.04442   -0.01853    0.68022
 17 Ru    0.04853    0.01938   -0.63910
 18 Ru    0.03754   -0.00331   -0.07186
 19 Ru    0.00000    0.31110    0.47061
 20 Ru    0.00000   -0.02317    0.71208
 21 Ru   -0.01261    0.00808   -0.69280
 22 Ru    0.00000    0.00821   -0.07990
 23 Ru    0.26797   -0.15991    0.46637
 24 Ru    0.01406    0.01668    0.69029
 25 Ru    0.02939    0.02069   -0.94818
 26 Ru   -0.01144    0.04740   -0.07147
 27 Ru    0.00000    0.14063   -0.08206
 28 Ru    0.00000   -0.00593    0.68382
 29 Ru   -0.04853    0.01938   -0.63910
 30 Ru    0.00000   -0.00660   -0.17827
 31 Ru    0.11959   -0.06829   -0.10208
 32 Ru   -0.01402   -0.00079    0.65955
 33 Ru    0.00000   -0.06958   -0.64890
 34 Ru    0.03443   -0.01985   -0.06210
 35 Ru   -0.26797   -0.15991    0.46637
 36 C     0.00000    0.01114    0.30166

BFGS:    3 05:15:14    -5055.965723        0.5641
System changes: positions 

Initializing position-dependent things.

Density initialized from wave functions
                                              
                                              
                                              
                                              
                                              
                          C                   
                Ru     Ru     Ru              
           Ru    RRu    RRu    Ru             
                    Ru     Ru    Ru           
             Ru    Ru     Ru                  
               Ru    Ru     Ru                
              Ru    Ru     Ru                 
               Ru     Ru     Ru               
                 Ru     Ru    Ru              
          Ru    Ru     Ru                     
            Ru    Ru     Ru                   
              Ru    Ru     Ru                 
                                              
                                              
                                              
                                              

Positions:
   0 Ru     0.000000    0.000000    9.999999    ( 0.0000,  0.0000,  0.0000)
   1 Ru     1.355017    0.782320   12.212733    ( 0.0000,  0.0000,  0.0000)
   2 Ru    -0.000000    1.567950   14.481840    ( 0.0000,  0.0000,  0.0000)
   3 Ru     2.700392    0.005812   16.576903    ( 0.0000,  0.0000,  0.0000)
   4 Ru    -1.355017    2.346959    9.999999    ( 0.0000,  0.0000,  0.0000)
   5 Ru    -0.000000    3.129279   12.212733    ( 0.0000,  0.0000,  0.0000)
   6 Ru    -1.353500    3.905267   14.439759    ( 0.0000,  0.0000,  0.0000)
   7 Ru     1.317569    2.325487   16.564917    ( 0.0000,  0.0000,  0.0000)
   8 Ru    -2.710035    4.693918    9.999999    ( 0.0000,  0.0000,  0.0000)
   9 Ru    -1.355017    5.476238   12.212733    ( 0.0000,  0.0000,  0.0000)
  10 Ru    -2.712346    6.263923   14.440965    ( 0.0000,  0.0000,  0.0000)
  11 Ru    -0.000000    4.682267   16.575556    ( 0.0000,  0.0000,  0.0000)
  12 Ru     2.710035    0.000000    9.999999    ( 0.0000,  0.0000,  0.0000)
  13 Ru     4.065052    0.782320   12.212733    ( 0.0000,  0.0000,  0.0000)
  14 Ru     2.701354    1.564888   14.441561    ( 0.0000,  0.0000,  0.0000)
  15 Ru     5.429713    0.005812   16.576903    ( 0.0000,  0.0000,  0.0000)
  16 Ru     1.355017    2.346959    9.999999    ( 0.0000,  0.0000,  0.0000)
  17 Ru     2.710035    3.129279   12.212733    ( 0.0000,  0.0000,  0.0000)
  18 Ru     1.353500    3.905267   14.439759    ( 0.0000,  0.0000,  0.0000)
  19 Ru     4.065052    2.240321   16.576783    ( 0.0000,  0.0000,  0.0000)
  20 Ru     0.000000    4.693918    9.999999    ( 0.0000,  0.0000,  0.0000)
  21 Ru     1.355017    5.476238   12.212733    ( 0.0000,  0.0000,  0.0000)
  22 Ru    -0.000000    6.261405   14.442895    ( 0.0000,  0.0000,  0.0000)
  23 Ru     2.616140    4.747143   16.577191    ( 0.0000,  0.0000,  0.0000)
  24 Ru     5.420070    0.000000    9.999999    ( 0.0000,  0.0000,  0.0000)
  25 Ru     6.775087    0.782320   12.212733    ( 0.0000,  0.0000,  0.0000)
  26 Ru     5.428751    1.564888   14.441561    ( 0.0000,  0.0000,  0.0000)
  27 Ru     8.130105    0.043497   16.563065    ( 0.0000,  0.0000,  0.0000)
  28 Ru     4.065052    2.346959    9.999999    ( 0.0000,  0.0000,  0.0000)
  29 Ru     5.420070    3.129279   12.212733    ( 0.0000,  0.0000,  0.0000)
  30 Ru     4.065052    3.914008   14.409515    ( 0.0000,  0.0000,  0.0000)
  31 Ru     6.812536    2.325487   16.564917    ( 0.0000,  0.0000,  0.0000)
  32 Ru     2.710035    4.693918    9.999999    ( 0.0000,  0.0000,  0.0000)
  33 Ru     4.065052    5.476238   12.212733    ( 0.0000,  0.0000,  0.0000)
  34 Ru     2.712346    6.263923   14.440965    ( 0.0000,  0.0000,  0.0000)
  35 Ru     5.513965    4.747143   16.577191    ( 0.0000,  0.0000,  0.0000)
  36 C      4.065052    3.912377   17.555042    ( 0.0000,  0.0000,  0.0000)

Unit cell:
           periodic     x           y           z      points  spacing
  1. axis:    yes    8.130105    0.000000    0.000000    40     0.1760
  2. axis:    yes   -4.065052    7.040877    0.000000    40     0.1760
  3. axis:    no     0.000000    0.000000   26.638201   148     0.1800

  Lengths:   8.130105   8.130105  26.638201
  Angles:   90.000000  90.000000 120.000000

Effective grid spacing dv^(1/3) = 0.1860

     iter     time        total  log10-change:
                         energy  eigst   dens
iter:   1 05:17:11 -5057.006206  -2.18
iter:   2 05:17:51 -5077.594293  -1.58  -2.07
iter:   3 05:18:31 -5055.993646  -2.04  -1.42
iter:   4 05:19:11 -5056.002328  -2.91  -3.08
iter:   5 05:19:52 -5055.997232c -3.62  -3.08
iter:   6 05:20:32 -5055.995231c -4.24  -3.22
iter:   7 05:21:12 -5055.993195c -4.14  -3.38
iter:   8 05:21:52 -5055.992963c -4.53  -3.60
iter:   9 05:22:32 -5055.992864c -5.53  -3.77
iter:  10 05:23:12 -5055.992888c -5.32  -3.82
iter:  11 05:23:53 -5055.992988c -5.84  -3.78
iter:  12 05:24:33 -5055.992639c -6.18  -3.97
iter:  13 05:25:13 -5055.992769c -6.23  -4.12c
iter:  14 05:25:53 -5055.992751c -7.25  -4.18c
iter:  15 05:26:33 -5055.992758c -6.39  -4.21c
iter:  16 05:27:14 -5055.992812c -6.61  -4.27c
iter:  17 05:27:54 -5055.992708c -6.94  -4.18c
iter:  18 05:28:34 -5055.992776c -6.77  -4.38c
iter:  19 05:29:14 -5055.992750c -6.93  -4.64c
iter:  20 05:29:54 -5055.992768c -7.54c -4.68c

Converged after 20 iterations.

Dipole moment: (-9.863601, -9.300468, -0.091130) |e|*Ang

Energy contributions relative to reference atoms: (reference = -4437852.127500)

Kinetic:       +621.286796
Potential:     -706.028670
External:        +0.000000
XC:            -4962.711509
Entropy (-ST):   -1.878600
Local:           -7.600084
--------------------------
Free energy:   -5056.932067
Extrapolated:  -5055.992768

Showing only first 2 kpts
 Kpt  Band  Eigenvalues  Occupancy
  0   288     -5.31089    1.24352
  0   289     -5.26680    1.02807
  0   290     -5.23401    0.86496
  0   291     -5.20209    0.71282

  1   288     -5.21303    0.76378
  1   289     -5.21258    0.76166
  1   290     -5.17549    0.59597
  1   291     -5.13565    0.44355


Fermi level: -5.26119

No gap

Forces in eV/Ang:
  0 Ru    0.00000    0.06223    0.66028
  1 Ru   -0.02405    0.01797   -0.95569
  2 Ru    0.00000    0.01054   -0.03015
  3 Ru   -0.04546    0.03036   -0.04847
  4 Ru    0.04752   -0.02034    0.66828
  5 Ru    0.00000   -0.06889   -0.93173
  6 Ru   -0.05072    0.02983   -0.00733
  7 Ru   -0.00684   -0.00282   -0.06468
  8 Ru    0.01332   -0.00110    0.65055
  9 Ru    0.01244    0.00847   -0.68908
 10 Ru   -0.01477   -0.04837    0.00199
 11 Ru    0.00000   -0.05177   -0.04597
 12 Ru   -0.02153    0.02124    0.69000
 13 Ru    0.00000   -0.03988   -0.70258
 14 Ru    0.04595    0.04249   -0.00720
 15 Ru    0.04546    0.03036   -0.04847
 16 Ru   -0.04752   -0.02034    0.66828
 17 Ru    0.04857    0.01938   -0.64527
 18 Ru    0.05072    0.02983   -0.00733
 19 Ru    0.00000    0.37839    0.38656
 20 Ru    0.00000   -0.03141    0.71132
 21 Ru   -0.01244    0.00847   -0.68908
 22 Ru    0.00000    0.00557   -0.03147
 23 Ru    0.32651   -0.18849    0.39123
 24 Ru    0.02153    0.02124    0.69000
 25 Ru    0.02405    0.01797   -0.95569
 26 Ru   -0.04595    0.04249   -0.00720
 27 Ru    0.00000    0.00838   -0.04678
 28 Ru    0.00000   -0.00497    0.67525
 29 Ru   -0.04857    0.01938   -0.64527
 30 Ru    0.00000   -0.00901   -0.04948
 31 Ru    0.00684   -0.00282   -0.06468
 32 Ru   -0.01332   -0.00110    0.65055
 33 Ru    0.00000   -0.06859   -0.65464
 34 Ru    0.01477   -0.04837    0.00199
 35 Ru   -0.32651   -0.18849    0.39123
 36 C     0.00000   -0.00111    0.08440

BFGS:    4 05:30:14    -5055.992768        0.5433
System changes: positions 

Initializing position-dependent things.

Density initialized from wave functions
                                              
                                              
                                              
                                              
                                              
                          C                   
                Ru     Ru     Ru              
           Ru    RRu    RRu    Ru             
                    Ru     Ru    Ru           
             Ru    Ru     Ru                  
               Ru    Ru     Ru                
              Ru    Ru     Ru                 
               Ru     Ru     Ru               
                 Ru     Ru    Ru              
          Ru    Ru     Ru                     
            Ru    Ru     Ru                   
              Ru    Ru     Ru                 
                                              
                                              
                                              
                                              

Positions:
   0 Ru     0.000000    0.000000    9.999999    ( 0.0000,  0.0000,  0.0000)
   1 Ru     1.355017    0.782320   12.212733    ( 0.0000,  0.0000,  0.0000)
   2 Ru    -0.000000    1.568534   14.485957    ( 0.0000,  0.0000,  0.0000)
   3 Ru     2.696534    0.008244   16.575205    ( 0.0000,  0.0000,  0.0000)
   4 Ru    -1.355017    2.346959    9.999999    ( 0.0000,  0.0000,  0.0000)
   5 Ru    -0.000000    3.129279   12.212733    ( 0.0000,  0.0000,  0.0000)
   6 Ru    -1.355126    3.905204   14.436144    ( 0.0000,  0.0000,  0.0000)
   7 Ru     1.310369    2.321357   16.559838    ( 0.0000,  0.0000,  0.0000)
   8 Ru    -2.710035    4.693918    9.999999    ( 0.0000,  0.0000,  0.0000)
   9 Ru    -1.355017    5.476238   12.212733    ( 0.0000,  0.0000,  0.0000)
  10 Ru    -2.713964    6.263195   14.437878    ( 0.0000,  0.0000,  0.0000)
  11 Ru    -0.000000    4.677804   16.573942    ( 0.0000,  0.0000,  0.0000)
  12 Ru     2.710035    0.000000    9.999999    ( 0.0000,  0.0000,  0.0000)
  13 Ru     4.065052    0.782320   12.212733    ( 0.0000,  0.0000,  0.0000)
  14 Ru     2.701825    1.567042   14.437968    ( 0.0000,  0.0000,  0.0000)
  15 Ru     5.433571    0.008244   16.575205    ( 0.0000,  0.0000,  0.0000)
  16 Ru     1.355017    2.346959    9.999999    ( 0.0000,  0.0000,  0.0000)
  17 Ru     2.710035    3.129279   12.212733    ( 0.0000,  0.0000,  0.0000)
  18 Ru     1.355126    3.905204   14.436144    ( 0.0000,  0.0000,  0.0000)
  19 Ru     4.065052    2.246058   16.597163    ( 0.0000,  0.0000,  0.0000)
  20 Ru     0.000000    4.693918    9.999999    ( 0.0000,  0.0000,  0.0000)
  21 Ru     1.355017    5.476238   12.212733    ( 0.0000,  0.0000,  0.0000)
  22 Ru    -0.000000    6.261873   14.438861    ( 0.0000,  0.0000,  0.0000)
  23 Ru     2.620858    4.744270   16.597627    ( 0.0000,  0.0000,  0.0000)
  24 Ru     5.420070    0.000000    9.999999    ( 0.0000,  0.0000,  0.0000)
  25 Ru     6.775087    0.782320   12.212733    ( 0.0000,  0.0000,  0.0000)
  26 Ru     5.428280    1.567042   14.437968    ( 0.0000,  0.0000,  0.0000)
  27 Ru     8.130105    0.051897   16.558943    ( 0.0000,  0.0000,  0.0000)
  28 Ru     4.065052    2.346959    9.999999    ( 0.0000,  0.0000,  0.0000)
  29 Ru     5.420070    3.129279   12.212733    ( 0.0000,  0.0000,  0.0000)
  30 Ru     4.065052    3.913700   14.398843    ( 0.0000,  0.0000,  0.0000)
  31 Ru     6.819736    2.321357   16.559838    ( 0.0000,  0.0000,  0.0000)
  32 Ru     2.710035    4.693918    9.999999    ( 0.0000,  0.0000,  0.0000)
  33 Ru     4.065052    5.476238   12.212733    ( 0.0000,  0.0000,  0.0000)
  34 Ru     2.713964    6.263195   14.437878    ( 0.0000,  0.0000,  0.0000)
  35 Ru     5.509247    4.744270   16.597627    ( 0.0000,  0.0000,  0.0000)
  36 C      4.065052    3.912537   17.583341    ( 0.0000,  0.0000,  0.0000)

Unit cell:
           periodic     x           y           z      points  spacing
  1. axis:    yes    8.130105    0.000000    0.000000    40     0.1760
  2. axis:    yes   -4.065052    7.040877    0.000000    40     0.1760
  3. axis:    no     0.000000    0.000000   26.638201   148     0.1800

  Lengths:   8.130105   8.130105  26.638201
  Angles:   90.000000  90.000000 120.000000

Effective grid spacing dv^(1/3) = 0.1860

     iter     time        total  log10-change:
                         energy  eigst   dens
iter:   1 05:32:11 -5056.536439  -1.99
iter:   2 05:32:52 -5065.756217  -1.92  -2.22
iter:   3 05:33:32 -5056.033176  -2.34  -1.59
iter:   4 05:34:12 -5056.025708  -3.34  -2.93
iter:   5 05:34:53 -5056.021638c -3.81  -3.11
iter:   6 05:35:33 -5056.020416c -4.12  -3.17
iter:   7 05:36:14 -5056.018774c -4.57  -3.29
iter:   8 05:36:54 -5056.019810c -4.72  -3.36
iter:   9 05:37:34 -5056.019505c -5.13  -3.32
iter:  10 05:38:15 -5056.017305c -5.00  -3.32
iter:  11 05:38:55 -5056.017309c -5.46  -3.85
iter:  12 05:39:36 -5056.017397c -6.07  -3.93
iter:  13 05:40:16 -5056.017117c -6.11  -4.08c
iter:  14 05:40:57 -5056.017300c -6.35  -4.10c
iter:  15 05:41:37 -5056.017352c -6.58  -4.35c
iter:  16 05:42:18 -5056.017269c -6.90  -3.98
iter:  17 05:42:58 -5056.017281c -7.15  -4.52c
iter:  18 05:43:38 -5056.017286c -7.17  -4.44c
iter:  19 05:44:19 -5056.017302c -7.37  -4.65c
iter:  20 05:44:59 -5056.017288c -7.59c -4.90c

Converged after 20 iterations.

Dipole moment: (-9.780753, -9.856355, -0.096986) |e|*Ang

Energy contributions relative to reference atoms: (reference = -4437852.127500)

Kinetic:       +619.292775
Potential:     -704.433312
External:        +0.000000
XC:            -4962.346578
Entropy (-ST):   -1.874944
Local:           -7.592701
--------------------------
Free energy:   -5056.954760
Extrapolated:  -5056.017288

Showing only first 2 kpts
 Kpt  Band  Eigenvalues  Occupancy
  0   288     -5.31526    1.22854
  0   289     -5.27457    1.02921
  0   290     -5.24196    0.86697
  0   291     -5.20958    0.71258

  1   288     -5.22148    0.76806
  1   289     -5.21976    0.75994
  1   290     -5.18792    0.61662
  1   291     -5.14361    0.44499


Fermi level: -5.26873

No gap

Forces in eV/Ang:
  0 Ru    0.00000    0.06683    0.64288
  1 Ru   -0.01944    0.01552   -0.95579
  2 Ru    0.00000    0.00632   -0.17056
  3 Ru    0.01158   -0.00294   -0.06260
  4 Ru    0.05158   -0.02275    0.65109
  5 Ru    0.00000   -0.06443   -0.93047
  6 Ru   -0.06178    0.06506    0.07746
  7 Ru    0.12849    0.07580   -0.00217
  8 Ru    0.01324   -0.00086    0.63770
  9 Ru    0.01094    0.00849   -0.68719
 10 Ru    0.00945   -0.07643    0.08469
 11 Ru    0.00000    0.01649   -0.05720
 12 Ru   -0.02843    0.02591    0.68588
 13 Ru    0.00000   -0.03892   -0.70229
 14 Ru    0.08001    0.03271    0.07533
 15 Ru   -0.01158   -0.00294   -0.06260
 16 Ru   -0.05158   -0.02275    0.65109
 17 Ru    0.04863    0.01959   -0.65602
 18 Ru    0.06178    0.06506    0.07746
 19 Ru    0.00000    0.29056    0.17355
 20 Ru    0.00000   -0.03909    0.70630
 21 Ru   -0.01094    0.00849   -0.68719
 22 Ru    0.00000    0.00216    0.04315
 23 Ru    0.24838   -0.13012    0.19267
 24 Ru    0.02843    0.02591    0.68588
 25 Ru    0.01944    0.01552   -0.95579
 26 Ru   -0.08001    0.03271    0.07533
 27 Ru    0.00000   -0.14935    0.00413
 28 Ru    0.00000   -0.00483    0.66253
 29 Ru   -0.04863    0.01959   -0.65602
 30 Ru    0.00000   -0.00488    0.12690
 31 Ru   -0.12849    0.07580   -0.00217
 32 Ru   -0.01324   -0.00086    0.63770
 33 Ru    0.00000   -0.06744   -0.66452
 34 Ru   -0.00945   -0.07643    0.08469
 35 Ru   -0.24838   -0.13012    0.19267
 36 C     0.00000   -0.00918    0.04903

BFGS:    5 05:45:19    -5056.017288        0.3402
System changes: positions 

Initializing position-dependent things.

Density initialized from wave functions
                                              
                                              
                                              
                                              
                                              
                          C                   
                Ru     Ru     Ru              
           Ru    RRu    RRu    Ru             
                    Ru     Ru    Ru           
             Ru    Ru     Ru                  
               Ru    Ru     Ru                
              Ru    Ru     Ru                 
               Ru     Ru     Ru               
                 Ru     Ru    Ru              
          Ru    Ru     Ru                     
            Ru    Ru     Ru                   
              Ru    Ru     Ru                 
                                              
                                              
                                              
                                              

Positions:
   0 Ru     0.000000    0.000000    9.999999    ( 0.0000,  0.0000,  0.0000)
   1 Ru     1.355017    0.782320   12.212733    ( 0.0000,  0.0000,  0.0000)
   2 Ru    -0.000000    1.568888   14.484522    ( 0.0000,  0.0000,  0.0000)
   3 Ru     2.695174    0.009184   16.573361    ( 0.0000,  0.0000,  0.0000)
   4 Ru    -1.355017    2.346959    9.999999    ( 0.0000,  0.0000,  0.0000)
   5 Ru    -0.000000    3.129279   12.212733    ( 0.0000,  0.0000,  0.0000)
   6 Ru    -1.356941    3.906369   14.436075    ( 0.0000,  0.0000,  0.0000)
   7 Ru     1.309746    2.321039   16.557706    ( 0.0000,  0.0000,  0.0000)
   8 Ru    -2.710035    4.693918    9.999999    ( 0.0000,  0.0000,  0.0000)
   9 Ru    -1.355017    5.476238   12.212733    ( 0.0000,  0.0000,  0.0000)
  10 Ru    -2.714466    6.261488   14.438160    ( 0.0000,  0.0000,  0.0000)
  11 Ru    -0.000000    4.676288   16.572233    ( 0.0000,  0.0000,  0.0000)
  12 Ru     2.710035    0.000000    9.999999    ( 0.0000,  0.0000,  0.0000)
  13 Ru     4.065052    0.782320   12.212733    ( 0.0000,  0.0000,  0.0000)
  14 Ru     2.703487    1.568543   14.437865    ( 0.0000,  0.0000,  0.0000)
  15 Ru     5.434931    0.009184   16.573361    ( 0.0000,  0.0000,  0.0000)
  16 Ru     1.355017    2.346959    9.999999    ( 0.0000,  0.0000,  0.0000)
  17 Ru     2.710035    3.129279   12.212733    ( 0.0000,  0.0000,  0.0000)
  18 Ru     1.356941    3.906369   14.436075    ( 0.0000,  0.0000,  0.0000)
  19 Ru     4.065052    2.253620   16.608721    ( 0.0000,  0.0000,  0.0000)
  20 Ru     0.000000    4.693918    9.999999    ( 0.0000,  0.0000,  0.0000)
  21 Ru     1.355017    5.476238   12.212733    ( 0.0000,  0.0000,  0.0000)
  22 Ru    -0.000000    6.262107   14.438001    ( 0.0000,  0.0000,  0.0000)
  23 Ru     2.627241    4.740779   16.609565    ( 0.0000,  0.0000,  0.0000)
  24 Ru     5.420070    0.000000    9.999999    ( 0.0000,  0.0000,  0.0000)
  25 Ru     6.775087    0.782320   12.212733    ( 0.0000,  0.0000,  0.0000)
  26 Ru     5.426618    1.568543   14.437865    ( 0.0000,  0.0000,  0.0000)
  27 Ru     8.130105    0.052637   16.557312    ( 0.0000,  0.0000,  0.0000)
  28 Ru     4.065052    2.346959    9.999999    ( 0.0000,  0.0000,  0.0000)
  29 Ru     5.420070    3.129279   12.212733    ( 0.0000,  0.0000,  0.0000)
  30 Ru     4.065052    3.913493   14.396785    ( 0.0000,  0.0000,  0.0000)
  31 Ru     6.820359    2.321039   16.557706    ( 0.0000,  0.0000,  0.0000)
  32 Ru     2.710035    4.693918    9.999999    ( 0.0000,  0.0000,  0.0000)
  33 Ru     4.065052    5.476238   12.212733    ( 0.0000,  0.0000,  0.0000)
  34 Ru     2.714466    6.261488   14.438160    ( 0.0000,  0.0000,  0.0000)
  35 Ru     5.502864    4.740779   16.609565    ( 0.0000,  0.0000,  0.0000)
  36 C      4.065052    3.912451   17.596340    ( 0.0000,  0.0000,  0.0000)

Unit cell:
           periodic     x           y           z      points  spacing
  1. axis:    yes    8.130105    0.000000    0.000000    40     0.1760
  2. axis:    yes   -4.065052    7.040877    0.000000    40     0.1760
  3. axis:    no     0.000000    0.000000   26.638201   148     0.1800

  Lengths:   8.130105   8.130105  26.638201
  Angles:   90.000000  90.000000 120.000000

Effective grid spacing dv^(1/3) = 0.1860

     iter     time        total  log10-change:
                         energy  eigst   dens
iter:   1 05:47:16 -5056.067128  -2.51
iter:   2 05:47:57 -5056.085255  -3.35  -2.83
iter:   3 05:48:37 -5056.143568c -3.61  -2.71
iter:   4 05:49:18 -5056.035592c -4.05  -2.53
iter:   5 05:49:58 -5056.028378c -4.53  -3.21
iter:   6 05:50:38 -5056.027869c -4.42  -3.56
iter:   7 05:51:19 -5056.027767c -5.12  -3.65
iter:   8 05:51:59 -5056.027601c -5.82  -3.70
iter:   9 05:52:39 -5056.027504c -5.50  -3.78
iter:  10 05:53:20 -5056.027375c -5.80  -4.16c
iter:  11 05:54:00 -5056.027570c -6.49  -4.21c
iter:  12 05:54:41 -5056.027477c -6.59  -4.06c
iter:  13 05:55:21 -5056.027431c -7.51c -4.23c

Converged after 13 iterations.

Dipole moment: (-9.468586, -10.014928, -0.099110) |e|*Ang

Energy contributions relative to reference atoms: (reference = -4437852.127500)

Kinetic:       +617.837600
Potential:     -703.191108
External:        +0.000000
XC:            -4962.160230
Entropy (-ST):   -1.875534
Local:           -7.575925
--------------------------
Free energy:   -5056.965198
Extrapolated:  -5056.027431

Showing only first 2 kpts
 Kpt  Band  Eigenvalues  Occupancy
  0   288     -5.31731    1.22656
  0   289     -5.27736    1.03081
  0   290     -5.24447    0.86719
  0   291     -5.21222    0.71341

  1   288     -5.22418    0.76918
  1   289     -5.22147    0.75639
  1   290     -5.19190    0.62310
  1   291     -5.14636    0.44598


Fermi level: -5.27119

No gap

Forces in eV/Ang:
  0 Ru    0.00000    0.06816    0.63781
  1 Ru   -0.01570    0.01265   -0.93530
  2 Ru    0.00000    0.00301   -0.18770
  3 Ru    0.06316   -0.03282   -0.05023
  4 Ru    0.05272   -0.02364    0.64611
  5 Ru    0.00000   -0.06056   -0.90909
  6 Ru   -0.05279    0.07377    0.11527
  7 Ru    0.13842    0.08278    0.02792
  8 Ru    0.01342   -0.00017    0.63586
  9 Ru    0.01200    0.01054   -0.68928
 10 Ru    0.02618   -0.07407    0.11813
 11 Ru    0.00000    0.07555   -0.04453
 12 Ru   -0.02717    0.02559    0.68372
 13 Ru    0.00000   -0.04230   -0.70587
 14 Ru    0.07951    0.01580    0.11070
 15 Ru   -0.06316   -0.03282   -0.05023
 16 Ru   -0.05272   -0.02364    0.64611
 17 Ru    0.04591    0.01892   -0.66234
 18 Ru    0.05279    0.07377    0.11527
 19 Ru    0.00000    0.09667    0.00421
 20 Ru    0.00000   -0.03733    0.70373
 21 Ru   -0.01200    0.01054   -0.68928
 22 Ru    0.00000    0.00135    0.09000
 23 Ru    0.07032   -0.01999    0.01029
 24 Ru    0.02717    0.02559    0.68372
 25 Ru    0.01570    0.01265   -0.93530
 26 Ru   -0.07951    0.01580    0.11070
 27 Ru    0.00000   -0.15747    0.02592
 28 Ru    0.00000   -0.00536    0.66034
 29 Ru   -0.04591    0.01892   -0.66234
 30 Ru    0.00000    0.00208    0.20688
 31 Ru   -0.13842    0.08278    0.02792
 32 Ru   -0.01342   -0.00017    0.63586
 33 Ru    0.00000   -0.06415   -0.66970
 34 Ru   -0.02618   -0.07407    0.11813
 35 Ru   -0.07032   -0.01999    0.01029
 36 C     0.00000    0.00461    0.11791

BFGS:    6 05:55:41    -5056.027431        0.2069
System changes: positions 

Initializing position-dependent things.

Density initialized from wave functions
                                              
                                              
                                              
                                              
                                              
                          C                   
                Ru     Ru     Ru              
           Ru    RRu    RRu    Ru             
                    Ru     Ru    Ru           
             Ru    Ru     Ru                  
               Ru    Ru     Ru                
              Ru    Ru     Ru                 
               Ru     Ru     Ru               
                 Ru     Ru    Ru              
          Ru    Ru     Ru                     
            Ru    Ru     Ru                   
              Ru    Ru     Ru                 
                                              
                                              
                                              
                                              

Positions:
   0 Ru     0.000000    0.000000    9.999999    ( 0.0000,  0.0000,  0.0000)
   1 Ru     1.355017    0.782320   12.212733    ( 0.0000,  0.0000,  0.0000)
   2 Ru    -0.000000    1.569040   14.479893    ( 0.0000,  0.0000,  0.0000)
   3 Ru     2.696175    0.008720   16.571795    ( 0.0000,  0.0000,  0.0000)
   4 Ru    -1.355017    2.346959    9.999999    ( 0.0000,  0.0000,  0.0000)
   5 Ru    -0.000000    3.129279   12.212733    ( 0.0000,  0.0000,  0.0000)
   6 Ru    -1.358591    3.908286   14.438621    ( 0.0000,  0.0000,  0.0000)
   7 Ru     1.313003    2.322990   16.557826    ( 0.0000,  0.0000,  0.0000)
   8 Ru    -2.710035    4.693918    9.999999    ( 0.0000,  0.0000,  0.0000)
   9 Ru    -1.355017    5.476238   12.212733    ( 0.0000,  0.0000,  0.0000)
  10 Ru    -2.714021    6.259378   14.440854    ( 0.0000,  0.0000,  0.0000)
  11 Ru    -0.000000    4.677515   16.570820    ( 0.0000,  0.0000,  0.0000)
  12 Ru     2.710035    0.000000    9.999999    ( 0.0000,  0.0000,  0.0000)
  13 Ru     4.065052    0.782320   12.212733    ( 0.0000,  0.0000,  0.0000)
  14 Ru     2.705695    1.569289   14.440310    ( 0.0000,  0.0000,  0.0000)
  15 Ru     5.433930    0.008720   16.571795    ( 0.0000,  0.0000,  0.0000)
  16 Ru     1.355017    2.346959    9.999999    ( 0.0000,  0.0000,  0.0000)
  17 Ru     2.710035    3.129279   12.212733    ( 0.0000,  0.0000,  0.0000)
  18 Ru     1.358591    3.908286   14.438621    ( 0.0000,  0.0000,  0.0000)
  19 Ru     4.065052    2.259419   16.612146    ( 0.0000,  0.0000,  0.0000)
  20 Ru     0.000000    4.693918    9.999999    ( 0.0000,  0.0000,  0.0000)
  21 Ru     1.355017    5.476238   12.212733    ( 0.0000,  0.0000,  0.0000)
  22 Ru    -0.000000    6.262179   14.439752    ( 0.0000,  0.0000,  0.0000)
  23 Ru     2.631982    4.738511   16.613230    ( 0.0000,  0.0000,  0.0000)
  24 Ru     5.420070    0.000000    9.999999    ( 0.0000,  0.0000,  0.0000)
  25 Ru     6.775087    0.782320   12.212733    ( 0.0000,  0.0000,  0.0000)
  26 Ru     5.424410    1.569289   14.440310    ( 0.0000,  0.0000,  0.0000)
  27 Ru     8.130105    0.048923   16.557528    ( 0.0000,  0.0000,  0.0000)
  28 Ru     4.065052    2.346959    9.999999    ( 0.0000,  0.0000,  0.0000)
  29 Ru     5.420070    3.129279   12.212733    ( 0.0000,  0.0000,  0.0000)
  30 Ru     4.065052    3.913462   14.401118    ( 0.0000,  0.0000,  0.0000)
  31 Ru     6.817102    2.322990   16.557826    ( 0.0000,  0.0000,  0.0000)
  32 Ru     2.710035    4.693918    9.999999    ( 0.0000,  0.0000,  0.0000)
  33 Ru     4.065052    5.476238   12.212733    ( 0.0000,  0.0000,  0.0000)
  34 Ru     2.714021    6.259378   14.440854    ( 0.0000,  0.0000,  0.0000)
  35 Ru     5.498123    4.738511   16.613230    ( 0.0000,  0.0000,  0.0000)
  36 C      4.065052    3.912509   17.599420    ( 0.0000,  0.0000,  0.0000)

Unit cell:
           periodic     x           y           z      points  spacing
  1. axis:    yes    8.130105    0.000000    0.000000    40     0.1760
  2. axis:    yes   -4.065052    7.040877    0.000000    40     0.1760
  3. axis:    no     0.000000    0.000000   26.638201   148     0.1800

  Lengths:   8.130105   8.130105  26.638201
  Angles:   90.000000  90.000000 120.000000

Effective grid spacing dv^(1/3) = 0.1860

     iter     time        total  log10-change:
                         energy  eigst   dens
iter:   1 05:57:38 -5056.110935  -2.74
iter:   2 05:58:18 -5056.386085  -3.04  -2.76
iter:   3 05:58:58 -5056.163973c -3.28  -2.31
iter:   4 05:59:39 -5056.037776  -4.03  -2.52
iter:   5 06:00:19 -5056.033874c -5.05  -3.30
iter:   6 06:00:59 -5056.033094c -4.75  -3.61
iter:   7 06:01:39 -5056.033018c -5.17  -3.81
iter:   8 06:02:20 -5056.032939c -5.75  -3.90
iter:   9 06:03:00 -5056.033654c -5.91  -3.94
iter:  10 06:03:41 -5056.032935c -5.84  -3.59
iter:  11 06:04:21 -5056.032767c -6.10  -4.10c
iter:  12 06:05:01 -5056.032876c -6.74  -4.23c
iter:  13 06:05:42 -5056.032811c -6.76  -4.29c
iter:  14 06:06:22 -5056.032819c -7.03  -4.41c
iter:  15 06:07:02 -5056.032834c -6.90  -4.51c
iter:  16 06:07:43 -5056.032854c -6.99  -4.65c
iter:  17 06:08:23 -5056.032835c -7.20  -4.26c
iter:  18 06:09:03 -5056.032841c -8.10c -4.87c

Converged after 18 iterations.

Dipole moment: (-9.164772, -9.893380, -0.096772) |e|*Ang

Energy contributions relative to reference atoms: (reference = -4437852.127500)

Kinetic:       +618.409778
Potential:     -703.713843
External:        +0.000000
XC:            -4962.198904
Entropy (-ST):   -1.878481
Local:           -7.590632
--------------------------
Free energy:   -5056.972081
Extrapolated:  -5056.032841

Showing only first 2 kpts
 Kpt  Band  Eigenvalues  Occupancy
  0   288     -5.31565    1.23338
  0   289     -5.27410    1.03002
  0   290     -5.24138    0.86724
  0   291     -5.20943    0.71479

  1   288     -5.22087    0.76815
  1   289     -5.21727    0.75122
  1   290     -5.18831    0.62098
  1   291     -5.14344    0.44660


Fermi level: -5.26810

No gap

Forces in eV/Ang:
  0 Ru    0.00000    0.06828    0.64900
  1 Ru   -0.01649    0.01319   -0.92907
  2 Ru    0.00000    0.00297   -0.09852
  3 Ru    0.03936   -0.01854   -0.02716
  4 Ru    0.05259   -0.02375    0.65741
  5 Ru    0.00000   -0.06027   -0.90132
  6 Ru   -0.03765    0.04033    0.07904
  7 Ru    0.06989    0.04322    0.01115
  8 Ru    0.01458    0.00097    0.64380
  9 Ru    0.00933    0.00869   -0.69151
 10 Ru    0.00966   -0.04441    0.08116
 11 Ru    0.00000    0.04989   -0.02260
 12 Ru   -0.02224    0.02298    0.68545
 13 Ru    0.00000   -0.03784   -0.70760
 14 Ru    0.04426    0.01901    0.07531
 15 Ru   -0.03936   -0.01854   -0.02716
 16 Ru   -0.05259   -0.02375    0.65741
 17 Ru    0.05631    0.02421   -0.64995
 18 Ru    0.03765    0.04033    0.07904
 19 Ru    0.00000   -0.01317   -0.00896
 20 Ru    0.00000   -0.03152    0.70572
 21 Ru   -0.00933    0.00869   -0.69151
 22 Ru    0.00000    0.00300    0.04735
 23 Ru   -0.02759    0.03786   -0.00612
 24 Ru    0.02224    0.02298    0.68545
 25 Ru    0.01649    0.01319   -0.92907
 26 Ru   -0.04426    0.01901    0.07531
 27 Ru    0.00000   -0.07536    0.01054
 28 Ru    0.00000   -0.00714    0.66798
 29 Ru   -0.05631    0.02421   -0.64995
 30 Ru    0.00000    0.00125    0.13473
 31 Ru   -0.06989    0.04322    0.01115
 32 Ru   -0.01458    0.00097    0.64380
 33 Ru    0.00000   -0.07557   -0.65888
 34 Ru   -0.00966   -0.04441    0.08116
 35 Ru    0.02759    0.03786   -0.00612
 36 C     0.00000    0.00565    0.25588

BFGS:    7 06:09:23    -5056.032841        0.2559
System changes: positions 

Initializing position-dependent things.

Density initialized from wave functions
                                              
                                              
                                              
                                              
                                              
                          C                   
                Ru     Ru     Ru              
           Ru    RRu    RRu    Ru             
                                 Ru           
             Ru    RRu    RRu                 
               Ru    Ru     Ru                
              Ru    Ru     Ru                 
               Ru     Ru     Ru               
                 Ru     Ru    Ru              
          Ru    Ru     Ru                     
            Ru    Ru     Ru                   
              Ru    Ru     Ru                 
                                              
                                              
                                              
                                              

Positions:
   0 Ru     0.000000    0.000000    9.999999    ( 0.0000,  0.0000,  0.0000)
   1 Ru     1.355017    0.782320   12.212733    ( 0.0000,  0.0000,  0.0000)
   2 Ru    -0.000000    1.569486   14.472904    ( 0.0000,  0.0000,  0.0000)
   3 Ru     2.697174    0.008459   16.568631    ( 0.0000,  0.0000,  0.0000)
   4 Ru    -1.355017    2.346959    9.999999    ( 0.0000,  0.0000,  0.0000)
   5 Ru    -0.000000    3.129279   12.212733    ( 0.0000,  0.0000,  0.0000)
   6 Ru    -1.362118    3.911642   14.442668    ( 0.0000,  0.0000,  0.0000)
   7 Ru     1.316622    2.325249   16.556684    ( 0.0000,  0.0000,  0.0000)
   8 Ru    -2.710035    4.693918    9.999999    ( 0.0000,  0.0000,  0.0000)
   9 Ru    -1.355017    5.476238   12.212733    ( 0.0000,  0.0000,  0.0000)
  10 Ru    -2.713761    6.255410   14.445308    ( 0.0000,  0.0000,  0.0000)
  11 Ru    -0.000000    4.678880   16.567992    ( 0.0000,  0.0000,  0.0000)
  12 Ru     2.710035    0.000000    9.999999    ( 0.0000,  0.0000,  0.0000)
  13 Ru     4.065052    0.782320   12.212733    ( 0.0000,  0.0000,  0.0000)
  14 Ru     2.709692    1.571407   14.444143    ( 0.0000,  0.0000,  0.0000)
  15 Ru     5.432931    0.008459   16.568631    ( 0.0000,  0.0000,  0.0000)
  16 Ru     1.355017    2.346959    9.999999    ( 0.0000,  0.0000,  0.0000)
  17 Ru     2.710035    3.129279   12.212733    ( 0.0000,  0.0000,  0.0000)
  18 Ru     1.362118    3.911642   14.442668    ( 0.0000,  0.0000,  0.0000)
  19 Ru     4.065052    2.267996   16.622475    ( 0.0000,  0.0000,  0.0000)
  20 Ru     0.000000    4.693918    9.999999    ( 0.0000,  0.0000,  0.0000)
  21 Ru     1.355017    5.476238   12.212733    ( 0.0000,  0.0000,  0.0000)
  22 Ru    -0.000000    6.262493   14.441818    ( 0.0000,  0.0000,  0.0000)
  23 Ru     2.638570    4.735830   16.624000    ( 0.0000,  0.0000,  0.0000)
  24 Ru     5.420070    0.000000    9.999999    ( 0.0000,  0.0000,  0.0000)
  25 Ru     6.775087    0.782320   12.212733    ( 0.0000,  0.0000,  0.0000)
  26 Ru     5.420413    1.571407   14.444143    ( 0.0000,  0.0000,  0.0000)
  27 Ru     8.130105    0.044966   16.556781    ( 0.0000,  0.0000,  0.0000)
  28 Ru     4.065052    2.346959    9.999999    ( 0.0000,  0.0000,  0.0000)
  29 Ru     5.420070    3.129279   12.212733    ( 0.0000,  0.0000,  0.0000)
  30 Ru     4.065052    3.913357   14.406591    ( 0.0000,  0.0000,  0.0000)
  31 Ru     6.813483    2.325249   16.556684    ( 0.0000,  0.0000,  0.0000)
  32 Ru     2.710035    4.693918    9.999999    ( 0.0000,  0.0000,  0.0000)
  33 Ru     4.065052    5.476238   12.212733    ( 0.0000,  0.0000,  0.0000)
  34 Ru     2.713761    6.255410   14.445308    ( 0.0000,  0.0000,  0.0000)
  35 Ru     5.491535    4.735830   16.624000    ( 0.0000,  0.0000,  0.0000)
  36 C      4.065052    3.912733   17.619034    ( 0.0000,  0.0000,  0.0000)

Unit cell:
           periodic     x           y           z      points  spacing
  1. axis:    yes    8.130105    0.000000    0.000000    40     0.1760
  2. axis:    yes   -4.065052    7.040877    0.000000    40     0.1760
  3. axis:    no     0.000000    0.000000   26.638201   148     0.1800

  Lengths:   8.130105   8.130105  26.638201
  Angles:   90.000000  90.000000 120.000000

Effective grid spacing dv^(1/3) = 0.1860

     iter     time        total  log10-change:
                         energy  eigst   dens
iter:   1 06:11:20 -5056.216084  -2.32
iter:   2 06:12:00 -5058.511723  -2.40  -2.49
iter:   3 06:12:40 -5056.095619  -2.81  -1.88
iter:   4 06:13:21 -5056.043185  -3.64  -2.69
iter:   5 06:14:01 -5056.038815c -4.55  -3.24
iter:   6 06:14:41 -5056.037422c -4.46  -3.43
iter:   7 06:15:21 -5056.037345c -5.03  -3.65
iter:   8 06:16:01 -5056.037375c -5.57  -3.70
iter:   9 06:16:41 -5056.038222c -5.60  -3.65
iter:  10 06:17:22 -5056.037202c -5.38  -3.47
iter:  11 06:18:02 -5056.036912c -5.74  -3.97
iter:  12 06:18:42 -5056.037026c -6.60  -4.11c
iter:  13 06:19:22 -5056.036976c -6.67  -4.17c
iter:  14 06:20:02 -5056.037012c -6.67  -4.28c
iter:  15 06:20:43 -5056.037091c -6.61  -4.36c
iter:  16 06:21:23 -5056.037014c -6.94  -4.15c
iter:  17 06:22:03 -5056.037037c -6.95  -4.58c
iter:  18 06:22:43 -5056.037017c -7.55c -4.70c

Converged after 18 iterations.

Dipole moment: (-8.772527, -9.830836, -0.098799) |e|*Ang

Energy contributions relative to reference atoms: (reference = -4437852.127500)

Kinetic:       +617.258813
Potential:     -702.783790
External:        +0.000000
XC:            -4961.989999
Entropy (-ST):   -1.882418
Local:           -7.580832
--------------------------
Free energy:   -5056.978226
Extrapolated:  -5056.037017

Showing only first 2 kpts
 Kpt  Band  Eigenvalues  Occupancy
  0   288     -5.31817    1.23974
  0   289     -5.27528    1.03005
  0   290     -5.24227    0.86580
  0   291     -5.21136    0.71828

  1   288     -5.22184    0.76720
  1   289     -5.21649    0.74205
  1   290     -5.18973    0.62200
  1   291     -5.14525    0.44878


Fermi level: -5.26927

No gap

Forces in eV/Ang:
  0 Ru    0.00000    0.06820    0.66058
  1 Ru   -0.01598    0.01247   -0.90850
  2 Ru    0.00000    0.00037   -0.00433
  3 Ru    0.04654   -0.02104    0.01756
  4 Ru    0.05225   -0.02394    0.66916
  5 Ru    0.00000   -0.05855   -0.87879
  6 Ru   -0.01279    0.00755    0.05618
  7 Ru    0.00279    0.00617    0.01887
  8 Ru    0.01531    0.00247    0.65265
  9 Ru    0.00850    0.00910   -0.69576
 10 Ru    0.00244   -0.00688    0.05110
 11 Ru    0.00000    0.05835    0.01950
 12 Ru   -0.01489    0.01921    0.68600
 13 Ru    0.00000   -0.03716   -0.71248
 14 Ru    0.00342    0.01051    0.05109
 15 Ru   -0.04654   -0.02104    0.01756
 16 Ru   -0.05225   -0.02394    0.66916
 17 Ru    0.06428    0.02909   -0.63841
 18 Ru    0.01279    0.00755    0.05618
 19 Ru    0.00000   -0.15834   -0.07320
 20 Ru    0.00000   -0.02255    0.70651
 21 Ru   -0.00850    0.00910   -0.69576
 22 Ru    0.00000    0.00409    0.02816
 23 Ru   -0.15026    0.10559   -0.07265
 24 Ru    0.01489    0.01921    0.68600
 25 Ru    0.01598    0.01247   -0.90850
 26 Ru   -0.00342    0.01051    0.05109
 27 Ru    0.00000    0.00911    0.01525
 28 Ru    0.00000   -0.00872    0.67605
 29 Ru   -0.06428    0.02909   -0.63841
 30 Ru    0.00000    0.00667    0.09850
 31 Ru   -0.00279    0.00617    0.01887
 32 Ru   -0.01531    0.00247    0.65265
 33 Ru    0.00000   -0.08411   -0.64872
 34 Ru   -0.00244   -0.00688    0.05110
 35 Ru    0.15026    0.10559   -0.07265
 36 C     0.00000    0.02750    0.29854

BFGS:    8 06:23:03    -5056.037017        0.2998
System changes: positions 

Initializing position-dependent things.

Density initialized from wave functions
                                              
                                              
                                              
                                              
                                              
                          C                   
                Ru     Ru     Ru              
           Ru    RRu    RRu    Ru             
                                              
             Ru    RRu    RRu    Ru           
               Ru    Ru     Ru                
              Ru    Ru     Ru                 
               Ru     Ru     Ru               
                 Ru     Ru    Ru              
          Ru    Ru     Ru                     
            Ru    Ru     Ru                   
              Ru    Ru     Ru                 
                                              
                                              
                                              
                                              

Positions:
   0 Ru     0.000000    0.000000    9.999999    ( 0.0000,  0.0000,  0.0000)
   1 Ru     1.355017    0.782320   12.212733    ( 0.0000,  0.0000,  0.0000)
   2 Ru    -0.000000    1.569668   14.470202    ( 0.0000,  0.0000,  0.0000)
   3 Ru     2.698269    0.008043   16.567687    ( 0.0000,  0.0000,  0.0000)
   4 Ru    -1.355017    2.346959    9.999999    ( 0.0000,  0.0000,  0.0000)
   5 Ru    -0.000000    3.129279   12.212733    ( 0.0000,  0.0000,  0.0000)
   6 Ru    -1.363679    3.913056   14.445059    ( 0.0000,  0.0000,  0.0000)
   7 Ru     1.317934    2.326145   16.556503    ( 0.0000,  0.0000,  0.0000)
   8 Ru    -2.710035    4.693918    9.999999    ( 0.0000,  0.0000,  0.0000)
   9 Ru    -1.355017    5.476238   12.212733    ( 0.0000,  0.0000,  0.0000)
  10 Ru    -2.713631    6.253781   14.447775    ( 0.0000,  0.0000,  0.0000)
  11 Ru    -0.000000    4.680294   16.567207    ( 0.0000,  0.0000,  0.0000)
  12 Ru     2.710035    0.000000    9.999999    ( 0.0000,  0.0000,  0.0000)
  13 Ru     4.065052    0.782320   12.212733    ( 0.0000,  0.0000,  0.0000)
  14 Ru     2.711283    1.572395   14.446368    ( 0.0000,  0.0000,  0.0000)
  15 Ru     5.431836    0.008043   16.567687    ( 0.0000,  0.0000,  0.0000)
  16 Ru     1.355017    2.346959    9.999999    ( 0.0000,  0.0000,  0.0000)
  17 Ru     2.710035    3.129279   12.212733    ( 0.0000,  0.0000,  0.0000)
  18 Ru     1.363679    3.913056   14.445059    ( 0.0000,  0.0000,  0.0000)
  19 Ru     4.065052    2.268809   16.625544    ( 0.0000,  0.0000,  0.0000)
  20 Ru     0.000000    4.693918    9.999999    ( 0.0000,  0.0000,  0.0000)
  21 Ru     1.355017    5.476238   12.212733    ( 0.0000,  0.0000,  0.0000)
  22 Ru    -0.000000    6.262685   14.443026    ( 0.0000,  0.0000,  0.0000)
  23 Ru     2.638753    4.736441   16.627267    ( 0.0000,  0.0000,  0.0000)
  24 Ru     5.420070    0.000000    9.999999    ( 0.0000,  0.0000,  0.0000)
  25 Ru     6.775087    0.782320   12.212733    ( 0.0000,  0.0000,  0.0000)
  26 Ru     5.418822    1.572395   14.446368    ( 0.0000,  0.0000,  0.0000)
  27 Ru     8.130105    0.043734   16.556699    ( 0.0000,  0.0000,  0.0000)
  28 Ru     4.065052    2.346959    9.999999    ( 0.0000,  0.0000,  0.0000)
  29 Ru     5.420070    3.129279   12.212733    ( 0.0000,  0.0000,  0.0000)
[...]
  13 Ru     4.065052    0.782320   12.212733    ( 0.0000,  0.0000,  0.0000)
  14 Ru     2.711576    1.572974   14.447881    ( 0.0000,  0.0000,  0.0000)
  15 Ru     5.430559    0.007583   16.568215    ( 0.0000,  0.0000,  0.0000)
  16 Ru     1.355017    2.346959    9.999999    ( 0.0000,  0.0000,  0.0000)
  17 Ru     2.710035    3.129279   12.212733    ( 0.0000,  0.0000,  0.0000)
  18 Ru     1.364317    3.913459   14.446746    ( 0.0000,  0.0000,  0.0000)
  19 Ru     4.065052    2.267011   16.626614    ( 0.0000,  0.0000,  0.0000)
  20 Ru     0.000000    4.693918    9.999999    ( 0.0000,  0.0000,  0.0000)
  21 Ru     1.355017    5.476238   12.212733    ( 0.0000,  0.0000,  0.0000)
  22 Ru    -0.000000    6.262873   14.443637    ( 0.0000,  0.0000,  0.0000)
  23 Ru     2.636652    4.738226   16.628413    ( 0.0000,  0.0000,  0.0000)
  24 Ru     5.420070    0.000000    9.999999    ( 0.0000,  0.0000,  0.0000)
  25 Ru     6.775087    0.782320   12.212733    ( 0.0000,  0.0000,  0.0000)
  26 Ru     5.418529    1.572974   14.447881    ( 0.0000,  0.0000,  0.0000)
  27 Ru     8.130105    0.044416   16.557089    ( 0.0000,  0.0000,  0.0000)
  28 Ru     4.065052    2.346959    9.999999    ( 0.0000,  0.0000,  0.0000)
  29 Ru     5.420070    3.129279   12.212733    ( 0.0000,  0.0000,  0.0000)
  30 Ru     4.065052    3.913665   14.412773    ( 0.0000,  0.0000,  0.0000)
  31 Ru     6.812382    2.326218   16.556931    ( 0.0000,  0.0000,  0.0000)
  32 Ru     2.710035    4.693918    9.999999    ( 0.0000,  0.0000,  0.0000)
  33 Ru     4.065052    5.476238   12.212733    ( 0.0000,  0.0000,  0.0000)
  34 Ru     2.713655    6.253397   14.449290    ( 0.0000,  0.0000,  0.0000)
  35 Ru     5.493453    4.738226   16.628413    ( 0.0000,  0.0000,  0.0000)
  36 C      4.065052    3.913967   17.640367    ( 0.0000,  0.0000,  0.0000)

Unit cell:
           periodic     x           y           z      points  spacing
  1. axis:    yes    8.130105    0.000000    0.000000    40     0.1760
  2. axis:    yes   -4.065052    7.040877    0.000000    40     0.1760
  3. axis:    no     0.000000    0.000000   26.638201   148     0.1800

  Lengths:   8.130105   8.130105  26.638201
  Angles:   90.000000  90.000000 120.000000

Effective grid spacing dv^(1/3) = 0.1860

     iter     time        total  log10-change:
                         energy  eigst   dens
iter:   1 06:36:42 -5056.126585  -3.30
iter:   2 06:37:23 -5057.915109  -2.68  -2.62
iter:   3 06:38:03 -5056.042959  -3.09  -1.94
iter:   4 06:38:44 -5056.043169  -3.96  -3.33
iter:   5 06:39:25 -5056.041516c -4.78  -3.54
iter:   6 06:40:05 -5056.041375c -4.95  -3.87
iter:   7 06:40:46 -5056.041366c -5.42  -4.09c
iter:   8 06:41:27 -5056.041447c -6.05  -4.09c
iter:   9 06:42:07 -5056.041335c -6.23  -3.96
iter:  10 06:42:48 -5056.041304c -6.24  -4.10c
iter:  11 06:43:28 -5056.041235c -6.53  -4.48c
iter:  12 06:44:09 -5056.041299c -6.97  -4.53c
iter:  13 06:44:50 -5056.041248c -7.36  -4.61c
iter:  14 06:45:30 -5056.041264c -7.51c -4.68c

Converged after 14 iterations.

Dipole moment: (-8.924875, -9.787272, -0.104015) |e|*Ang

Energy contributions relative to reference atoms: (reference = -4437852.127500)

Kinetic:       +615.175186
Potential:     -701.079394
External:        +0.000000
XC:            -4961.620713
Entropy (-ST):   -1.884136
Local:           -7.574275
--------------------------
Free energy:   -5056.983332
Extrapolated:  -5056.041264

Showing only first 2 kpts
 Kpt  Band  Eigenvalues  Occupancy
  0   288     -5.32253    1.24227
  0   289     -5.27875    1.02829
  0   290     -5.24567    0.86376
  0   291     -5.21534    0.71903

  1   288     -5.22570    0.76742
  1   289     -5.21883    0.73516
  1   290     -5.19368    0.62259
  1   291     -5.14953    0.45041


Fermi level: -5.27309

No gap

Forces in eV/Ang:
  0 Ru    0.00000    0.06626    0.67210
  1 Ru   -0.01373    0.01149   -0.89061
  2 Ru    0.00000    0.00161    0.04400
  3 Ru    0.01885   -0.00117    0.03616
  4 Ru    0.05043   -0.02280    0.68110
  5 Ru    0.00000   -0.05471   -0.86003
  6 Ru    0.00486   -0.01507    0.01919
  7 Ru   -0.02122   -0.00593    0.02069
  8 Ru    0.01413    0.00239    0.66065
  9 Ru    0.00968    0.01008   -0.68538
 10 Ru   -0.00707    0.01881    0.00969
 11 Ru    0.00000    0.02403    0.03626
 12 Ru   -0.01087    0.01704    0.68946
 13 Ru    0.00000   -0.03839   -0.70257
 14 Ru   -0.02215    0.00732    0.01613
 15 Ru   -0.01885   -0.00117    0.03616
 16 Ru   -0.05043   -0.02280    0.68110
 17 Ru    0.06802    0.03229   -0.61605
 18 Ru   -0.00486   -0.01507    0.01919
 19 Ru    0.00000    0.01708    0.02179
 20 Ru    0.00000   -0.01767    0.71036
 21 Ru   -0.00968    0.01008   -0.68538
 22 Ru    0.00000    0.00417   -0.00676
 23 Ru    0.00083    0.00654    0.02145
 24 Ru    0.01087    0.01704    0.68946
 25 Ru    0.01373    0.01149   -0.89061
 26 Ru    0.02215    0.00732    0.01613
 27 Ru    0.00000    0.03769    0.01667
 28 Ru    0.00000   -0.00756    0.68376
 29 Ru   -0.06802    0.03229   -0.61605
 30 Ru    0.00000    0.00897    0.05051
 31 Ru    0.02122   -0.00593    0.02069
 32 Ru   -0.01413    0.00239    0.66065
 33 Ru    0.00000   -0.08802   -0.62788
 34 Ru    0.00707    0.01881    0.00969
 35 Ru   -0.00083    0.00654    0.02145
 36 C     0.00000    0.01096    0.00497

BFGS:   10 06:45:51    -5056.041264        0.0513
System changes: positions 

Initializing position-dependent things.

Density initialized from wave functions
                                              
                                              
                                              
                                              
                                              
                          C                   
                Ru     Ru     Ru              
           Ru    RRu    RRu    Ru             
                                              
             Ru    RRu    RRu    Ru           
               Ru    Ru     Ru                
              Ru    Ru     Ru                 
               Ru     Ru     Ru               
                 Ru     Ru    Ru              
          Ru    Ru     Ru                     
            Ru    Ru     Ru                   
              Ru    Ru     Ru                 
                                              
                                              
                                              
                                              

Positions:
   0 Ru     0.000000    0.000000    9.999999    ( 0.0000,  0.0000,  0.0000)
   1 Ru     1.355017    0.782320   12.212733    ( 0.0000,  0.0000,  0.0000)
   2 Ru    -0.000000    1.569855   14.470157    ( 0.0000,  0.0000,  0.0000)
   3 Ru     2.700214    0.007456   16.568715    ( 0.0000,  0.0000,  0.0000)
   4 Ru    -1.355017    2.346959    9.999999    ( 0.0000,  0.0000,  0.0000)
   5 Ru    -0.000000    3.129279   12.212733    ( 0.0000,  0.0000,  0.0000)
   6 Ru    -1.364652    3.913537   14.447733    ( 0.0000,  0.0000,  0.0000)
   7 Ru     1.317481    2.326246   16.557254    ( 0.0000,  0.0000,  0.0000)
   8 Ru    -2.710035    4.693918    9.999999    ( 0.0000,  0.0000,  0.0000)
   9 Ru    -1.355017    5.476238   12.212733    ( 0.0000,  0.0000,  0.0000)
  10 Ru    -2.713777    6.253339   14.450107    ( 0.0000,  0.0000,  0.0000)
  11 Ru    -0.000000    4.682756   16.568364    ( 0.0000,  0.0000,  0.0000)
  12 Ru     2.710035    0.000000    9.999999    ( 0.0000,  0.0000,  0.0000)
  13 Ru     4.065052    0.782320   12.212733    ( 0.0000,  0.0000,  0.0000)
  14 Ru     2.711555    1.573408   14.448758    ( 0.0000,  0.0000,  0.0000)
  15 Ru     5.429891    0.007456   16.568715    ( 0.0000,  0.0000,  0.0000)
  16 Ru     1.355017    2.346959    9.999999    ( 0.0000,  0.0000,  0.0000)
  17 Ru     2.710035    3.129279   12.212733    ( 0.0000,  0.0000,  0.0000)
  18 Ru     1.364652    3.913537   14.447733    ( 0.0000,  0.0000,  0.0000)
  19 Ru     4.065052    2.267437   16.628142    ( 0.0000,  0.0000,  0.0000)
  20 Ru     0.000000    4.693918    9.999999    ( 0.0000,  0.0000,  0.0000)
  21 Ru     1.355017    5.476238   12.212733    ( 0.0000,  0.0000,  0.0000)
  22 Ru    -0.000000    6.263018   14.443783    ( 0.0000,  0.0000,  0.0000)
  23 Ru     2.636592    4.738596   16.629988    ( 0.0000,  0.0000,  0.0000)
  24 Ru     5.420070    0.000000    9.999999    ( 0.0000,  0.0000,  0.0000)
  25 Ru     6.775087    0.782320   12.212733    ( 0.0000,  0.0000,  0.0000)
  26 Ru     5.418550    1.573408   14.448758    ( 0.0000,  0.0000,  0.0000)
  27 Ru     8.130105    0.045045   16.557370    ( 0.0000,  0.0000,  0.0000)
  28 Ru     4.065052    2.346959    9.999999    ( 0.0000,  0.0000,  0.0000)
  29 Ru     5.420070    3.129279   12.212733    ( 0.0000,  0.0000,  0.0000)
  30 Ru     4.065052    3.913868   14.414560    ( 0.0000,  0.0000,  0.0000)
  31 Ru     6.812624    2.326246   16.557254    ( 0.0000,  0.0000,  0.0000)
  32 Ru     2.710035    4.693918    9.999999    ( 0.0000,  0.0000,  0.0000)
  33 Ru     4.065052    5.476238   12.212733    ( 0.0000,  0.0000,  0.0000)
  34 Ru     2.713777    6.253339   14.450107    ( 0.0000,  0.0000,  0.0000)
  35 Ru     5.493513    4.738596   16.629988    ( 0.0000,  0.0000,  0.0000)
  36 C      4.065052    3.914353   17.644397    ( 0.0000,  0.0000,  0.0000)

Unit cell:
           periodic     x           y           z      points  spacing
  1. axis:    yes    8.130105    0.000000    0.000000    40     0.1760
  2. axis:    yes   -4.065052    7.040877    0.000000    40     0.1760
  3. axis:    no     0.000000    0.000000   26.638201   148     0.1800

  Lengths:   8.130105   8.130105  26.638201
  Angles:   90.000000  90.000000 120.000000

Effective grid spacing dv^(1/3) = 0.1860

     iter     time        total  log10-change:
                         energy  eigst   dens
iter:   1 06:47:47 -5056.065378  -3.88
iter:   2 06:48:27 -5056.550018  -3.25  -2.92
iter:   3 06:49:08 -5056.041849  -3.67  -2.22
iter:   4 06:49:48 -5056.041734  -4.63  -3.57
iter:   5 06:50:29 -5056.041646c -5.39  -4.06c
iter:   6 06:51:09 -5056.041569c -5.73  -4.18c
iter:   7 06:51:49 -5056.041574c -6.05  -4.33c
iter:   8 06:52:29 -5056.041573c -6.81  -4.59c
iter:   9 06:53:10 -5056.041548c -7.07  -4.60c
iter:  10 06:53:50 -5056.041561c -7.49c -4.61c

Converged after 10 iterations.

Dipole moment: (-8.959572, -9.800283, -0.105076) |e|*Ang

Energy contributions relative to reference atoms: (reference = -4437852.127500)

Kinetic:       +614.782825
Potential:     -700.772970
External:        +0.000000
XC:            -4961.541142
Entropy (-ST):   -1.884498
Local:           -7.568026
--------------------------
Free energy:   -5056.983810
Extrapolated:  -5056.041561

Showing only first 2 kpts
 Kpt  Band  Eigenvalues  Occupancy
  0   288     -5.32348    1.24217
  0   289     -5.27960    1.02769
  0   290     -5.24671    0.86407
  0   291     -5.21637    0.71926

  1   288     -5.22670    0.76751
  1   289     -5.21952    0.73385
  1   290     -5.19473    0.62291
  1   291     -5.15039    0.45003


Fermi level: -5.27406

No gap

Forces in eV/Ang:
  0 Ru    0.00000    0.06577    0.67189
  1 Ru   -0.01318    0.01154   -0.88915
  2 Ru    0.00000    0.00194    0.03983
  3 Ru    0.01796   -0.00094    0.03434
  4 Ru    0.05004   -0.02242    0.68116
  5 Ru    0.00000   -0.05393   -0.85875
  6 Ru    0.00510   -0.01021    0.01608
  7 Ru   -0.01764   -0.00400    0.02122
  8 Ru    0.01384    0.00236    0.65977
  9 Ru    0.01003    0.01036   -0.68509
 10 Ru   -0.00349    0.01645    0.00739
 11 Ru    0.00000    0.02367    0.03400
 12 Ru   -0.01046    0.01684    0.68877
 13 Ru    0.00000   -0.03850   -0.70228
 14 Ru   -0.01753    0.00507    0.01381
 15 Ru   -0.01796   -0.00094    0.03434
 16 Ru   -0.05004   -0.02242    0.68116
 17 Ru    0.06841    0.03274   -0.61364
 18 Ru   -0.00510   -0.01021    0.01608
 19 Ru    0.00000    0.01096    0.01980
 20 Ru    0.00000   -0.01725    0.70960
 21 Ru   -0.01003    0.01036   -0.68509
 22 Ru    0.00000    0.00389   -0.00346
 23 Ru   -0.00252    0.00807    0.02041
 24 Ru    0.01046    0.01684    0.68877
 25 Ru    0.01318    0.01154   -0.88915
 26 Ru    0.01753    0.00507    0.01381
 27 Ru    0.00000    0.03130    0.01762
 28 Ru    0.00000   -0.00717    0.68306
 29 Ru   -0.06841    0.03274   -0.61364
 30 Ru    0.00000    0.00922    0.03620
 31 Ru    0.01764   -0.00400    0.02122
 32 Ru   -0.01384    0.00236    0.65977
 33 Ru    0.00000   -0.08814   -0.62584
 34 Ru    0.00349    0.01645    0.00739
 35 Ru    0.00252    0.00807    0.02041
 36 C     0.00000    0.01476   -0.02018

BFGS:   11 06:54:10    -5056.041561        0.0414
Timing:                                      incl.     excl.
-------------------------------------------------------------------
Density initialized from wave functions:    15.303    14.903   0.1% |
 Symmetrize density:                         0.400     0.400   0.0% |
Forces:                                    241.431   241.431   2.3% ||
Hamiltonian:                                43.955     0.002   0.0% |
 Atomic:                                     0.003     0.003   0.0% |
  XC Correction:                             0.000     0.000   0.0% |
 Calculate atomic Hamiltonians:              0.004     0.004   0.0% |
 Communicate:                                2.723     2.723   0.0% |
 Hartree integrate/restrict:                 0.113     0.113   0.0% |
 Initialize Hamiltonian:                     0.001     0.001   0.0% |
 Poisson:                                    2.124     0.084   0.0% |
  Communicate from 1D:                       0.162     0.162   0.0% |
  Communicate from 2D:                       0.345     0.345   0.0% |
  Communicate to 1D:                         0.101     0.101   0.0% |
  Communicate to 2D:                         0.382     0.382   0.0% |
  FFT 1D:                                    0.536     0.536   0.0% |
  FFT 2D:                                    0.515     0.515   0.0% |
 XC 3D grid:                                38.944     9.220   0.1% |
  VdW-DF integral:                          29.725     1.517   0.0% |
   Convolution:                              2.485     2.485   0.0% |
   FFT:                                      1.770     1.770   0.0% |
   gather:                                   8.612     8.612   0.1% |
   hmm1:                                     0.474     0.474   0.0% |
   hmm2:                                     1.046     1.046   0.0% |
   iFFT:                                     1.680     1.680   0.0% |
   potential:                                7.997     0.181   0.0% |
    collect:                                 0.539     0.539   0.0% |
    p1:                                      4.770     4.770   0.0% |
    p2:                                      1.601     1.601   0.0% |
    sum:                                     0.906     0.906   0.0% |
   splines:                                  4.143     4.143   0.0% |
 vbar:                                       0.040     0.040   0.0% |
LCAO initialization:                        74.634     1.225   0.0% |
 LCAO eigensolver:                          61.408     0.005   0.0% |
  Calculate projections:                     0.000     0.000   0.0% |
  DenseAtomicCorrection:                     0.000     0.000   0.0% |
  Distribute overlap matrix:                60.267    60.267   0.6% |
  Orbital Layouts:                           0.910     0.910   0.0% |
  Potential matrix:                          0.068     0.068   0.0% |
  Sum over cells:                            0.158     0.158   0.0% |
 LCAO to grid:                               9.565     9.565   0.1% |
 Set positions (LCAO WFS):                   2.435     1.591   0.0% |
  Basic WFS set positions:                   0.002     0.002   0.0% |
  Basis functions set positions:             0.000     0.000   0.0% |
  P tci:                                     0.001     0.001   0.0% |
  ST tci:                                    0.720     0.720   0.0% |
  mktci:                                     0.122     0.122   0.0% |
Redistribute:                                0.008     0.008   0.0% |
SCF-cycle:                                9275.834   218.019   2.1% ||
 Davidson:                                8245.910  2638.215  25.3% |---------|
  Apply hamiltonian:                       187.202   187.202   1.8% ||
  Subspace diag:                           808.460     0.032   0.0% |
   calc_h_matrix:                          398.220   223.209   2.1% ||
    Apply hamiltonian:                     175.011   175.011   1.7% ||
   diagonalize:                             19.454    19.454   0.2% |
   rotate_psi:                             390.754   390.754   3.7% ||
  calc. matrices:                         3730.712  1470.040  14.1% |-----|
   Apply hamiltonian:                     2260.673  2260.673  21.7% |--------|
  diagonalize:                             127.630   127.630   1.2% |
  rotate_psi:                              753.689   753.689   7.2% |--|
 Density:                                   22.084     0.005   0.0% |
  Atomic density matrices:                   1.283     1.283   0.0% |
  Mix:                                       3.824     3.824   0.0% |
  Multipole moments:                         0.103     0.103   0.0% |
  Pseudo density:                           16.870    10.466   0.1% |
   Symmetrize density:                       6.404     6.404   0.1% |
 Hamiltonian:                              721.508     0.031   0.0% |
  Atomic:                                    0.058     0.057   0.0% |
   XC Correction:                            0.001     0.001   0.0% |
  Calculate atomic Hamiltonians:             0.082     0.082   0.0% |
  Communicate:                              48.388    48.388   0.5% |
  Hartree integrate/restrict:                2.025     2.025   0.0% |
  Poisson:                                  38.471     1.510   0.0% |
   Communicate from 1D:                      2.932     2.932   0.0% |
   Communicate from 2D:                      6.420     6.420   0.1% |
   Communicate to 1D:                        1.799     1.799   0.0% |
   Communicate to 2D:                        6.972     6.972   0.1% |
   FFT 1D:                                   9.604     9.604   0.1% |
   FFT 2D:                                   9.235     9.235   0.1% |
  XC 3D grid:                              632.055   169.866   1.6% ||
   VdW-DF integral:                        462.188    27.477   0.3% |
    Convolution:                            45.204    45.204   0.4% |
    FFT:                                    32.332    32.332   0.3% |
    gather:                                153.962   153.962   1.5% ||
    hmm1:                                    8.193     8.193   0.1% |
    hmm2:                                   19.118    19.118   0.2% |
    iFFT:                                   30.646    30.646   0.3% |
    potential:                             145.256     3.307   0.0% |
     collect:                                9.742     9.742   0.1% |
     p1:                                    86.957    86.957   0.8% |
     p2:                                    29.253    29.253   0.3% |
     sum:                                   15.997    15.997   0.2% |
    splines:                                 0.001     0.001   0.0% |
  vbar:                                      0.398     0.398   0.0% |
 Orthonormalize:                            68.313     0.003   0.0% |
  calc_s_matrix:                             5.301     5.301   0.1% |
  inverse-cholesky:                         52.954    52.954   0.5% |
  projections:                               0.001     0.001   0.0% |
  rotate_psi_s:                             10.054    10.054   0.1% |
Set symmetry:                                0.002     0.002   0.0% |
Other:                                     770.303   770.303   7.4% |--|
-------------------------------------------------------------------
Total:                                             10421.470 100.0%

Memory usage: 1.62 GiB
Date: Thu Sep 28 06:54:10 2023
