
  ___ ___ ___ _ _ _  
 |   |   |_  | | | | 
 | | | | | . | | | | 
 |__ |  _|___|_____|  22.8.0
 |___|_|             

User:   s204775@a035.nifl.fysik.dtu.dk
Date:   Thu Sep 28 04:18:05 2023
Arch:   x86_64
Pid:    40925
CWD:    /home/cat/s204775/projects/Bachelor_project/C_missing_features
Python: 3.10.4
gpaw:   /home/modules/software/GPAW/22.8.0-intel-2022a/lib/python3.10/site-packages/gpaw
_gpaw:  /home/modules/software/GPAW/22.8.0-intel-2022a/lib/python3.10/site-packages/
        _gpaw.cpython-310-x86_64-linux-gnu.so
ase:    /home/modules/software/ASE/3.22.1-intel-2022a/lib/python3.10/site-packages/ase (version 3.22.1)
numpy:  /home/modules/software/SciPy-bundle/2022.05-intel-2022a/lib/python3.10/site-packages/numpy (version 1.22.3)
scipy:  /home/modules/software/SciPy-bundle/2022.05-intel-2022a/lib/python3.10/site-packages/scipy (version 1.8.1)
libxc:  5.2.3
units:  Angstrom and eV
cores: 40
OpenMP: False
OMP_NUM_THREADS: 1

Input parameters:
  basis: dzp
  h: 0.18
  kpts: {size: (4, 4, 1)}
  xc: BEEF-vdW

System changes: positions, numbers, cell, pbc, initial_charges, initial_magmoms 

Initialize ...

species:
  Sn:
    name: Tin
    id: d1329c6b410f1e0bd923643368775dcd
    Z: 50.0
    valence: 14
    core: 36
    charge: 0.0
    file: /home/modules/software/GPAW-setups/0.9.20000/Sn.PBE.gz
    compensation charges: {type: gauss,
                           rc: 0.38,
                           lmax: 2}
    cutoffs: {filter: 2.23,
              core: 2.35}
    valence states:
      #              energy  rcut
      - 5s(2.00)   -10.538   1.201
      - 5p(2.00)    -3.696   1.270
      - 4d(10.00)   -25.845   1.185
      -  s          16.674   1.201
      -  p          23.515   1.270
      -  d           1.367   1.185
  
    # LCAO basis set for Sn:
    #   Name: dzp
    #   File: /home/modules/software/GPAW-setups/0.9.20000/Sn.dzp.basis.gz
    #   Number of radial functions: 7
    #   Number of spherical harmonics: 23
    #     l=0, rc=7.1250 Bohr: 5s-sz confined orbital
    #     l=1, rc=9.5469 Bohr: 5p-sz confined orbital
    #     l=2, rc=4.0625 Bohr: 4d-sz confined orbital
    #     l=0, rc=4.1250 Bohr: 5s-dz split-valence wave
    #     l=1, rc=5.6719 Bohr: 5p-dz split-valence wave
    #     l=2, rc=2.5938 Bohr: 4d-dz split-valence wave
    #     l=2, rc=9.5469 Bohr: d-type Gaussian polarization
    #   Number of RI-basis functions 0

  C:
    name: Carbon
    id: 4aa54d4b901d75f77cc0ea3eec22967b
    Z: 6.0
    valence: 4
    core: 2
    charge: 0.0
    file: /home/modules/software/GPAW-setups/0.9.20000/C.PBE.gz
    compensation charges: {type: gauss,
                           rc: 0.20,
                           lmax: 2}
    cutoffs: {filter: 1.14,
              core: 1.14}
    valence states:
      #              energy  rcut
      - 2s(2.00)   -13.751   0.635
      - 2p(2.00)    -5.284   0.635
      -  s          13.461   0.635
      -  p          21.927   0.635
      -  d           0.000   0.635
  
    # LCAO basis set for C:
    #   Name: dzp
    #   File: /home/modules/software/GPAW-setups/0.9.20000/C.dzp.basis.gz
    #   Number of radial functions: 5
    #   Number of spherical harmonics: 13
    #     l=0, rc=5.5469 Bohr: 2s-sz confined orbital
    #     l=1, rc=6.6719 Bohr: 2p-sz confined orbital
    #     l=0, rc=3.0312 Bohr: 2s-dz split-valence wave
    #     l=1, rc=3.7500 Bohr: 2p-dz split-valence wave
    #     l=2, rc=6.6719 Bohr: d-type Gaussian polarization
    #   Number of RI-basis functions 0

Reference energy: -6049412.587171  # eV

Spin-paired calculation

Convergence criteria:
 Maximum [total energy] change in last 3 cyles: 0.0005 eV / electron
 Maximum integral of absolute [dens]ity change: 0.0001 electrons / valence electron
 Maximum integral of absolute [eigenst]ate change: 4e-08 eV^2 / valence electron
 Maximum number of scf [iter]ations: 333
 (Square brackets indicate name in SCF output, whereas a 'c' in
 the SCF output indicates the quantity has converged.)

Symmetries present (total): 2

  ( 1  0  0)  ( 0 -1  0)
  ( 0  1  0)  (-1  0  0)
  ( 0  0  1)  ( 0  0  1)

16 k-points: 4 x 4 x 1 Monkhorst-Pack grid
6 k-points in the irreducible part of the Brillouin zone
       k-points in crystal coordinates                weights
   0:     0.12500000   -0.12500000    0.00000000          2/16
   1:     0.12500000    0.12500000    0.00000000          2/16
   2:     0.37500000   -0.37500000    0.00000000          2/16
   3:     0.37500000   -0.12500000    0.00000000          4/16
   4:     0.37500000    0.12500000    0.00000000          4/16
   5:     0.37500000    0.37500000    0.00000000          2/16

Wave functions: Uniform real-space grid
  Kinetic energy operator: 8*3+1=25 point O(h^6) finite-difference Laplacian
  ScaLapack parameters: grid=1x1, blocksize=None
  Wavefunction extrapolation:
    Improved wavefunction reuse through dual PAW basis 

Occupation numbers: Fermi-Dirac:
  width: 0.1000  # eV
 

Eigensolver
   Davidson(niter=2) 

Densities:
  Coarse grid: 48*48*156 grid
  Fine grid: 96*96*312 grid
  Total Charge: 0.000000 

Density mixing:
  Method: separate
  Backend: pulay
  Linear mixing parameter: 0.05
  old densities: 5
  Damping of long wavelength oscillations: 50 

Hamiltonian:
  XC and Coulomb potentials evaluated on a 96*96*312 grid
  Using the BEEF-vdW Exchange-Correlation functional
  Interpolation: tri-quintic (5. degree polynomial)
  Poisson solver: FastPoissonSolver using
    Stencil: 8*3+1=25 point O(h^6) finite-difference Laplacian
    FFT axes: [0, 1]
    FST axes: [2]
 

XC parameters: BEEF-vdW with 2 nearest neighbor stencil

Memory estimate:
  Process memory now: 174.20 MiB
  Calculator: 372.26 MiB
    Density: 14.46 MiB
      Arrays: 3.54 MiB
      Localized functions: 9.56 MiB
      Mixer: 1.36 MiB
    Hamiltonian: 3.03 MiB
      Arrays: 2.32 MiB
      XC: 0.00 MiB
      Poisson: 0.00 MiB
      vbar: 0.71 MiB
    Wavefunctions: 354.77 MiB
      Arrays psit_nG: 252.57 MiB
      Eigensolver: 100.13 MiB
      Projections: 0.47 MiB
      Projectors: 1.60 MiB

Total number of cores used: 40
Parallelization over k-points: 2
Domain decomposition: 2 x 2 x 5

Number of atoms: 37
Number of atomic orbitals: 841
Number of bands in calculation: 309
Number of valence electrons: 508
Bands to converge: occupied

... initialized

Initializing position-dependent things.

Density initialized from atomic densities
Creating initial wave functions:
  309 bands from LCAO basis set

                                                  
                                                  
                                                  
                                                  
                                                  
                      C                           
           Sn      Sn      Sn                     
                                                  
            SSn     SSn     SnSn                  
               Sn       Sn      Sn                
              Sn      Sn       Sn                 
                 Sn      Sn      Sn               
               Sn       Sn      Sn                
                                                  
                  Sn      Sn      Sn              
                                                  
           Sn      SSn     SnSn      Sn           
                                                  
             Sn      Sn       Sn                  
               Sn       Sn      Sn                
                                                  
                                                  
                                                  
                                                  

Positions:
   0 Sn    -0.000000    0.000000   10.000000    ( 0.0000,  0.0000,  0.0000)
   1 Sn     1.710646    0.987642   12.793473    ( 0.0000,  0.0000,  0.0000)
   2 Sn     0.000000    1.975283   15.709250    ( 0.0000,  0.0000,  0.0000)
   3 Sn     0.000000    0.000000   18.391826    ( 0.0000,  0.0000,  0.0000)
   4 Sn    -1.710646    2.962925   10.000000    ( 0.0000,  0.0000,  0.0000)
   5 Sn    -0.000000    3.950567   12.793473    ( 0.0000,  0.0000,  0.0000)
   6 Sn    -1.710645    4.938209   15.709250    ( 0.0000,  0.0000,  0.0000)
   7 Sn    -1.710646    2.962925   18.391826    ( 0.0000,  0.0000,  0.0000)
   8 Sn    -3.421291    5.925850   10.000000    ( 0.0000,  0.0000,  0.0000)
   9 Sn    -1.710646    6.913492   12.793473    ( 0.0000,  0.0000,  0.0000)
  10 Sn    -3.421292    7.901134   15.709250    ( 0.0000,  0.0000,  0.0000)
  11 Sn    -3.421291    5.925850   18.391826    ( 0.0000,  0.0000,  0.0000)
  12 Sn     3.421291    0.000000   10.000000    ( 0.0000,  0.0000,  0.0000)
  13 Sn     5.131937    0.987642   12.793473    ( 0.0000,  0.0000,  0.0000)
  14 Sn     3.421292    1.975284   15.709250    ( 0.0000,  0.0000,  0.0000)
  15 Sn     3.421291    0.000000   18.391826    ( 0.0000,  0.0000,  0.0000)
  16 Sn     1.710646    2.962925   10.000000    ( 0.0000,  0.0000,  0.0000)
  17 Sn     3.421291    3.950567   12.793473    ( 0.0000,  0.0000,  0.0000)
  18 Sn     1.710645    4.938209   15.709250    ( 0.0000,  0.0000,  0.0000)
  19 Sn     1.710646    2.962925   18.391826    ( 0.0000,  0.0000,  0.0000)
  20 Sn    -0.000000    5.925850   10.000000    ( 0.0000,  0.0000,  0.0000)
  21 Sn     1.710646    6.913492   12.793473    ( 0.0000,  0.0000,  0.0000)
  22 Sn    -0.000000    7.901133   15.709250    ( 0.0000,  0.0000,  0.0000)
  23 Sn     0.000000    5.925850   18.391826    ( 0.0000,  0.0000,  0.0000)
  24 Sn     6.842582    0.000000   10.000000    ( 0.0000,  0.0000,  0.0000)
  25 Sn     8.553228    0.987642   12.793473    ( 0.0000,  0.0000,  0.0000)
  26 Sn     6.842582    1.975284   15.709250    ( 0.0000,  0.0000,  0.0000)
  27 Sn     6.842582    0.000000   18.391826    ( 0.0000,  0.0000,  0.0000)
  28 Sn     5.131937    2.962925   10.000000    ( 0.0000,  0.0000,  0.0000)
  29 Sn     6.842582    3.950567   12.793473    ( 0.0000,  0.0000,  0.0000)
  30 Sn     5.131937    4.938208   15.709250    ( 0.0000,  0.0000,  0.0000)
  31 Sn     5.131937    2.962925   18.391826    ( 0.0000,  0.0000,  0.0000)
  32 Sn     3.421291    5.925850   10.000000    ( 0.0000,  0.0000,  0.0000)
  33 Sn     5.131937    6.913492   12.793473    ( 0.0000,  0.0000,  0.0000)
  34 Sn     3.421292    7.901134   15.709250    ( 0.0000,  0.0000,  0.0000)
  35 Sn     3.421291    5.925850   18.391826    ( 0.0000,  0.0000,  0.0000)
  36 C      1.710646    4.938208   19.379468    ( 0.0000,  0.0000,  0.0000)

Unit cell:
           periodic     x           y           z      points  spacing
  1. axis:    yes   10.263874    0.000000    0.000000    48     0.1852
  2. axis:    yes   -5.131937    8.888775    0.000000    48     0.1852
  3. axis:    no     0.000000    0.000000   28.380418   156     0.1819

  Lengths:  10.263874  10.263874  28.380418
  Angles:   90.000000  90.000000 120.000000

Effective grid spacing dv^(1/3) = 0.1931

     iter     time        total  log10-change:
                         energy  eigst   dens
iter:   1 04:18:48 -5900.946198
iter:   2 04:19:11 -5900.334093  -0.92  -1.58
iter:   3 04:19:35 -5899.760814  -1.28  -1.60
iter:   4 04:19:59 -5899.785961  -2.02  -1.68
iter:   5 04:20:22 -5900.088010  -1.83  -1.70
iter:   6 04:20:46 -5899.866989  -1.87  -1.78
iter:   7 04:21:09 -5899.847548c -2.11  -2.10
iter:   8 04:21:33 -5899.813833c -2.34  -2.35
iter:   9 04:21:56 -5899.797931c -2.78  -2.54
iter:  10 04:22:20 -5899.788191c -3.15  -2.66
iter:  11 04:22:43 -5899.786801c -3.54  -2.80
iter:  12 04:23:07 -5899.779510c -3.71  -2.83
iter:  13 04:23:31 -5899.778945c -3.68  -3.02
iter:  14 04:23:54 -5899.778369c -4.07  -3.13
iter:  15 04:24:18 -5899.778848c -4.27  -3.29
iter:  16 04:24:41 -5899.778790c -4.95  -3.34
iter:  17 04:25:05 -5899.778889c -4.89  -3.38
iter:  18 04:25:28 -5899.778730c -5.06  -3.50
iter:  19 04:25:52 -5899.778482c -5.11  -3.66
iter:  20 04:26:16 -5899.778405c -5.19  -3.87
iter:  21 04:26:39 -5899.778379c -5.96  -4.05c
iter:  22 04:27:03 -5899.778358c -6.34  -4.13c
iter:  23 04:27:26 -5899.778386c -6.35  -4.34c
iter:  24 04:27:50 -5899.778378c -6.66  -4.48c
iter:  25 04:28:13 -5899.778382c -7.35  -4.62c
iter:  26 04:28:37 -5899.778373c -7.27  -4.68c
iter:  27 04:29:00 -5899.778377c -7.61c -4.90c

Converged after 27 iterations.

Dipole moment: (-7.165934, -12.495674, -0.206722) |e|*Ang

Energy contributions relative to reference atoms: (reference = -6049412.587171)

Kinetic:       +929.811792
Potential:     -887.218489
External:        +0.000000
XC:            -5939.811278
Entropy (-ST):   -0.698668
Local:           -2.211069
--------------------------
Free energy:   -5900.127711
Extrapolated:  -5899.778377

Showing only first 2 kpts
 Kpt  Band  Eigenvalues  Occupancy
  0   252     -4.92540    1.99084
  0   253     -4.90764    1.98906
  0   254     -4.73908    1.94238
  0   255     -4.68320    1.90137

  1   252     -4.76908    1.95699
  1   253     -4.71770    1.92913
  1   254     -4.68946    1.90707
  1   255     -4.51883    1.57679


Fermi level: -4.38730

No gap

Forces in eV/Ang:
  0 Sn   -0.02314    0.01336    0.10728
  1 Sn   -0.00283    0.01857   -0.23649
  2 Sn   -0.04883    0.03553   -0.11214
  3 Sn   -0.00888    0.00513    0.05072
  4 Sn   -0.02655   -0.04008    0.12511
  5 Sn   -0.04871   -0.02256   -0.13522
  6 Sn    0.02696   -0.09548   -0.10265
  7 Sn   -0.10696   -0.05631   -0.01804
  8 Sn   -0.01024   -0.01474    0.13242
  9 Sn    0.00795   -0.00459   -0.25908
 10 Sn   -0.01664    0.00961    0.12095
 11 Sn   -0.00347   -0.01975    0.08296
 12 Sn    0.00764    0.01624    0.13242
 13 Sn   -0.01452    0.00911   -0.19009
 14 Sn    0.06500    0.05953   -0.11764
 15 Sn    0.01537    0.01288    0.08296
 16 Sn    0.00508   -0.06578    0.17690
 17 Sn    0.03934   -0.02272   -0.12711
 18 Sn    0.02244   -0.01296   -0.36355
 19 Sn    0.00052   -0.27498    0.27541
 20 Sn   -0.05133    0.02963    0.18753
 21 Sn   -0.00482    0.05346   -0.13522
 22 Sn    0.09617    0.02439   -0.10265
 23 Sn   -0.25870    0.14936    0.29180
 24 Sn    0.02144    0.04303    0.12511
 25 Sn    0.00538   -0.00311   -0.18361
 26 Sn    0.01536   -0.00887    0.04473
 27 Sn   -0.00472    0.12078   -0.01804
 28 Sn    0.02218   -0.01281    0.14124
 29 Sn   -0.01516    0.00802   -0.19009
 30 Sn   -0.01906   -0.08605   -0.11764
 31 Sn    0.08647   -0.04993   -0.00667
 32 Sn    0.05951    0.02849    0.17690
 33 Sn   -0.01749   -0.00683   -0.23649
 34 Sn   -0.05518    0.02452   -0.11214
 35 Sn    0.23840    0.13704    0.27541
 36 C     0.00189   -0.00109   -0.34386

      Step     Time          Energy         fmax
BFGS:    0 04:29:09    -5899.778377        0.4176
System changes: positions 

Initializing position-dependent things.

Density initialized from wave functions
                                                  
                                                  
                                                  
                                                  
                                                  
                      C                           
           Sn      Sn      Sn                     
                                                  
            SSn     SSn     SnSn                  
               Sn       Sn      Sn                
              Sn      Sn       Sn                 
                 Sn      Sn      Sn               
               Sn       Sn      Sn                
                                                  
                  Sn      Sn      Sn              
                                                  
           Sn      SSn     SnSn      Sn           
                                                  
             Sn      Sn       Sn                  
               Sn       Sn      Sn                
                                                  
                                                  
                                                  
                                                  

Positions:
   0 Sn    -0.000000    0.000000   10.000000    ( 0.0000,  0.0000,  0.0000)
   1 Sn     1.710646    0.987642   12.793473    ( 0.0000,  0.0000,  0.0000)
   2 Sn    -0.000698    1.975791   15.707648    ( 0.0000,  0.0000,  0.0000)
   3 Sn    -0.000127    0.000073   18.392550    ( 0.0000,  0.0000,  0.0000)
   4 Sn    -1.710646    2.962925   10.000000    ( 0.0000,  0.0000,  0.0000)
   5 Sn    -0.000000    3.950567   12.793473    ( 0.0000,  0.0000,  0.0000)
   6 Sn    -1.710260    4.936845   15.707783    ( 0.0000,  0.0000,  0.0000)
   7 Sn    -1.712174    2.962121   18.391568    ( 0.0000,  0.0000,  0.0000)
   8 Sn    -3.421291    5.925850   10.000000    ( 0.0000,  0.0000,  0.0000)
   9 Sn    -1.710646    6.913492   12.793473    ( 0.0000,  0.0000,  0.0000)
  10 Sn    -3.421529    7.901271   15.710978    ( 0.0000,  0.0000,  0.0000)
  11 Sn    -3.421341    5.925568   18.393011    ( 0.0000,  0.0000,  0.0000)
  12 Sn     3.421291    0.000000   10.000000    ( 0.0000,  0.0000,  0.0000)
  13 Sn     5.131937    0.987642   12.793473    ( 0.0000,  0.0000,  0.0000)
  14 Sn     3.422220    1.976134   15.707569    ( 0.0000,  0.0000,  0.0000)
  15 Sn     3.421511    0.000184   18.393011    ( 0.0000,  0.0000,  0.0000)
  16 Sn     1.710646    2.962925   10.000000    ( 0.0000,  0.0000,  0.0000)
  17 Sn     3.421291    3.950567   12.793473    ( 0.0000,  0.0000,  0.0000)
  18 Sn     1.710966    4.938024   15.704056    ( 0.0000,  0.0000,  0.0000)
  19 Sn     1.710653    2.958997   18.395760    ( 0.0000,  0.0000,  0.0000)
  20 Sn    -0.000000    5.925850   10.000000    ( 0.0000,  0.0000,  0.0000)
  21 Sn     1.710646    6.913492   12.793473    ( 0.0000,  0.0000,  0.0000)
  22 Sn     0.001374    7.901482   15.707783    ( 0.0000,  0.0000,  0.0000)
  23 Sn    -0.003696    5.927984   18.395994    ( 0.0000,  0.0000,  0.0000)
  24 Sn     6.842582    0.000000   10.000000    ( 0.0000,  0.0000,  0.0000)
  25 Sn     8.553228    0.987642   12.793473    ( 0.0000,  0.0000,  0.0000)
  26 Sn     6.842802    1.975157   15.709889    ( 0.0000,  0.0000,  0.0000)
  27 Sn     6.842515    0.001725   18.391568    ( 0.0000,  0.0000,  0.0000)
  28 Sn     5.131937    2.962925   10.000000    ( 0.0000,  0.0000,  0.0000)
  29 Sn     6.842582    3.950567   12.793473    ( 0.0000,  0.0000,  0.0000)
  30 Sn     5.131665    4.936979   15.707569    ( 0.0000,  0.0000,  0.0000)
  31 Sn     5.133172    2.962212   18.391731    ( 0.0000,  0.0000,  0.0000)
  32 Sn     3.421291    5.925850   10.000000    ( 0.0000,  0.0000,  0.0000)
  33 Sn     5.131937    6.913492   12.793473    ( 0.0000,  0.0000,  0.0000)
  34 Sn     3.420503    7.901484   15.707648    ( 0.0000,  0.0000,  0.0000)
  35 Sn     3.424697    5.927808   18.395760    ( 0.0000,  0.0000,  0.0000)
  36 C      1.710673    4.938193   19.374555    ( 0.0000,  0.0000,  0.0000)

Unit cell:
           periodic     x           y           z      points  spacing
  1. axis:    yes   10.263874    0.000000    0.000000    48     0.1852
  2. axis:    yes   -5.131937    8.888775    0.000000    48     0.1852
  3. axis:    no     0.000000    0.000000   28.380418   156     0.1819

  Lengths:  10.263874  10.263874  28.380418
  Angles:   90.000000  90.000000 120.000000

Effective grid spacing dv^(1/3) = 0.1931

     iter     time        total  log10-change:
                         energy  eigst   dens
iter:   1 04:29:51 -5899.790914  -3.51
iter:   2 04:30:14 -5899.790903  -4.43  -3.69
iter:   3 04:30:38 -5899.790882c -5.08  -3.75
iter:   4 04:31:02 -5899.790850c -5.19  -3.88
iter:   5 04:31:26 -5899.790830c -5.88  -4.15c
iter:   6 04:31:49 -5899.790830c -6.02  -4.27c
iter:   7 04:32:13 -5899.790840c -6.39  -4.42c
iter:   8 04:32:37 -5899.790830c -6.84  -4.57c
iter:   9 04:33:00 -5899.790836c -7.11  -4.66c
iter:  10 04:33:24 -5899.790831c -7.79c -4.85c

Converged after 10 iterations.

Dipole moment: (-6.987200, -12.597648, -0.204441) |e|*Ang

Energy contributions relative to reference atoms: (reference = -6049412.587171)

Kinetic:       +929.483982
Potential:     -886.945141
External:        +0.000000
XC:            -5939.769325
Entropy (-ST):   -0.699078
Local:           -2.210808
--------------------------
Free energy:   -5900.140370
Extrapolated:  -5899.790831

Showing only first 2 kpts
 Kpt  Band  Eigenvalues  Occupancy
  0   252     -4.92493    1.99099
  0   253     -4.90738    1.98927
  0   254     -4.73760    1.94276
  0   255     -4.68166    1.90195

  1   252     -4.76926    1.95797
  1   253     -4.71657    1.92983
  1   254     -4.68832    1.90798
  1   255     -4.51569    1.57351


Fermi level: -4.38514

No gap

Forces in eV/Ang:
  0 Sn   -0.02400    0.01385    0.10650
  1 Sn   -0.00278    0.01723   -0.23518
  2 Sn   -0.04062    0.03474   -0.10284
  3 Sn   -0.01052    0.00608    0.04655
  4 Sn   -0.02540   -0.03941    0.12519
  5 Sn   -0.04898   -0.02284   -0.14194
  6 Sn    0.02899   -0.08611   -0.09225
  7 Sn   -0.09805   -0.05103   -0.01675
  8 Sn   -0.01017   -0.01589    0.13191
  9 Sn    0.00686   -0.00396   -0.25827
 10 Sn   -0.01464    0.00845    0.12251
 11 Sn   -0.00359   -0.02177    0.07526
 12 Sn    0.00868    0.01676    0.13191
 13 Sn   -0.01405    0.00921   -0.19045
 14 Sn    0.05700    0.05692   -0.10724
 15 Sn    0.01705    0.01399    0.07526
 16 Sn    0.00518   -0.06278    0.17763
 17 Sn    0.03971   -0.02293   -0.13347
 18 Sn    0.02106   -0.01216   -0.33242
 19 Sn    0.00085   -0.24923    0.25465
 20 Sn   -0.04865    0.02809    0.18846
 21 Sn   -0.00471    0.05384   -0.14194
 22 Sn    0.08907    0.01795   -0.09225
 23 Sn   -0.23400    0.13510    0.27064
 24 Sn    0.02143    0.04170    0.12519
 25 Sn    0.00487   -0.00281   -0.18345
 26 Sn    0.01397   -0.00806    0.04102
 27 Sn   -0.00483    0.11043   -0.01675
 28 Sn    0.02093   -0.01208    0.14159
 29 Sn   -0.01500    0.00757   -0.19045
 30 Sn   -0.02079   -0.07782   -0.10724
 31 Sn    0.07857   -0.04536   -0.00646
 32 Sn    0.05696    0.02690    0.17763
 33 Sn   -0.01631   -0.00620   -0.23518
 34 Sn   -0.05040    0.01780   -0.10284
 35 Sn    0.21627    0.12388    0.25465
 36 C    -0.00046    0.00026   -0.33291

BFGS:    1 04:33:33    -5899.790831        0.3824
System changes: positions 

Initializing position-dependent things.

Density initialized from wave functions
                                                  
                                                  
                                                  
                                                  
                                                  
                      C                           
           Sn      Sn      Sn                     
                                                  
            SSn     SSn     SnSn                  
               Sn       Sn      Sn                
              Sn       Sn      Sn                 
                 Sn      Sn      Sn               
               Sn       Sn      Sn                
                                                  
                  Sn      Sn      Sn              
                    Sn       Sn      Sn           
           Sn      Sn      Sn                     
                                                  
             Sn      Sn       Sn                  
               Sn       Sn      Sn                
                                                  
                                                  
                                                  
                                                  

Positions:
   0 Sn    -0.000000    0.000000   10.000000    ( 0.0000,  0.0000,  0.0000)
   1 Sn     1.710646    0.987642   12.793473    ( 0.0000,  0.0000,  0.0000)
   2 Sn    -0.008303    1.982286   15.688410    ( 0.0000,  0.0000,  0.0000)
   3 Sn    -0.002091    0.001207   18.401259    ( 0.0000,  0.0000,  0.0000)
   4 Sn    -1.710646    2.962925   10.000000    ( 0.0000,  0.0000,  0.0000)
   5 Sn    -0.000000    3.950567   12.793473    ( 0.0000,  0.0000,  0.0000)
   6 Sn    -1.704845    4.920734   15.690524    ( 0.0000,  0.0000,  0.0000)
   7 Sn    -1.730516    2.952574   18.388435    ( 0.0000,  0.0000,  0.0000)
   8 Sn    -3.421291    5.925850   10.000000    ( 0.0000,  0.0000,  0.0000)
   9 Sn    -1.710646    6.913492   12.793473    ( 0.0000,  0.0000,  0.0000)
  10 Sn    -3.424270    7.902853   15.733875    ( 0.0000,  0.0000,  0.0000)
  11 Sn    -3.422012    5.921503   18.407091    ( 0.0000,  0.0000,  0.0000)
  12 Sn     3.421291    0.000000   10.000000    ( 0.0000,  0.0000,  0.0000)
  13 Sn     5.131937    0.987642   12.793473    ( 0.0000,  0.0000,  0.0000)
  14 Sn     3.432886    1.986777   15.687508    ( 0.0000,  0.0000,  0.0000)
  15 Sn     3.424696    0.002798   18.407091    ( 0.0000,  0.0000,  0.0000)
  16 Sn     1.710646    2.962925   10.000000    ( 0.0000,  0.0000,  0.0000)
  17 Sn     3.421291    3.950567   12.793473    ( 0.0000,  0.0000,  0.0000)
  18 Sn     1.714905    4.935749   15.641871    ( 0.0000,  0.0000,  0.0000)
  19 Sn     1.710811    2.912370   18.443393    ( 0.0000,  0.0000,  0.0000)
  20 Sn    -0.000000    5.925850   10.000000    ( 0.0000,  0.0000,  0.0000)
  21 Sn     1.710646    6.913492   12.793473    ( 0.0000,  0.0000,  0.0000)
  22 Sn     0.018034    7.904847   15.690524    ( 0.0000,  0.0000,  0.0000)
  23 Sn    -0.047474    5.953260   18.446616    ( 0.0000,  0.0000,  0.0000)
  24 Sn     6.842582    0.000000   10.000000    ( 0.0000,  0.0000,  0.0000)
  25 Sn     8.553228    0.987642   12.793473    ( 0.0000,  0.0000,  0.0000)
  26 Sn     6.845415    1.973648   15.717562    ( 0.0000,  0.0000,  0.0000)
  27 Sn     6.841612    0.022384   18.388435    ( 0.0000,  0.0000,  0.0000)
  28 Sn     5.131937    2.962925   10.000000    ( 0.0000,  0.0000,  0.0000)
  29 Sn     6.842582    3.950567   12.793473    ( 0.0000,  0.0000,  0.0000)
  30 Sn     5.127781    4.922420   15.687508    ( 0.0000,  0.0000,  0.0000)
  31 Sn     5.147871    2.953725   18.390523    ( 0.0000,  0.0000,  0.0000)
  32 Sn     3.421291    5.925850   10.000000    ( 0.0000,  0.0000,  0.0000)
  33 Sn     5.131937    6.913492   12.793473    ( 0.0000,  0.0000,  0.0000)
  34 Sn     3.411075    7.904823   15.688410    ( 0.0000,  0.0000,  0.0000)
  35 Sn     3.465156    5.950984   18.443393    ( 0.0000,  0.0000,  0.0000)
  36 C      1.710591    4.938240   19.312312    ( 0.0000,  0.0000,  0.0000)

Unit cell:
           periodic     x           y           z      points  spacing
  1. axis:    yes   10.263874    0.000000    0.000000    48     0.1852
  2. axis:    yes   -5.131937    8.888775    0.000000    48     0.1852
  3. axis:    no     0.000000    0.000000   28.380418   156     0.1819

  Lengths:  10.263874  10.263874  28.380418
  Angles:   90.000000  90.000000 120.000000

Effective grid spacing dv^(1/3) = 0.1931

     iter     time        total  log10-change:
                         energy  eigst   dens
iter:   1 04:34:15 -5899.972887  -1.38
iter:   2 04:34:38 -5899.955213  -2.29  -2.41
iter:   3 04:35:02 -5899.909758c -2.96  -2.49
iter:   4 04:35:26 -5899.898064c -3.01  -2.79
iter:   5 04:35:50 -5899.897828c -3.95  -3.12
iter:   6 04:36:14 -5899.897712c -3.97  -3.19
iter:   7 04:36:38 -5899.899420c -3.88  -3.38
iter:   8 04:37:01 -5899.898219c -4.55  -3.38
iter:   9 04:37:25 -5899.898462c -5.13  -3.64
iter:  10 04:37:49 -5899.898317c -5.26  -3.69
iter:  11 04:38:13 -5899.898333c -5.86  -3.85
iter:  12 04:38:37 -5899.898328c -6.09  -3.97
iter:  13 04:39:01 -5899.898395c -6.14  -4.07c
iter:  14 04:39:24 -5899.898418c -6.14  -4.22c
iter:  15 04:39:48 -5899.898417c -6.84  -4.53c
iter:  16 04:40:12 -5899.898417c -7.14  -4.58c
iter:  17 04:40:36 -5899.898421c -7.01  -4.66c
iter:  18 04:41:00 -5899.898421c -7.55c -4.82c

Converged after 18 iterations.

Dipole moment: (-4.739467, -13.865847, -0.177026) |e|*Ang

Energy contributions relative to reference atoms: (reference = -6049412.587171)

Kinetic:       +927.126346
Potential:     -885.116535
External:        +0.000000
XC:            -5939.340649
Entropy (-ST):   -0.704300
Local:           -2.215433
--------------------------
Free energy:   -5900.250570
Extrapolated:  -5899.898421

Showing only first 2 kpts
 Kpt  Band  Eigenvalues  Occupancy
  0   252     -4.90542    1.99165
  0   253     -4.89815    1.99102
  0   254     -4.71564    1.94559
  0   255     -4.66012    1.90708

  1   252     -4.77407    1.96930
  1   253     -4.69997    1.93666
  1   254     -4.66868    1.91438
  1   255     -4.49518    1.59548


Fermi level: -4.35796

No gap

Forces in eV/Ang:
  0 Sn   -0.03229    0.01864    0.10902
  1 Sn   -0.00115    0.00393   -0.22157
  2 Sn    0.02162    0.01709   -0.03870
  3 Sn   -0.02055    0.01187    0.01962
  4 Sn   -0.03328   -0.04295    0.13264
  5 Sn   -0.05178   -0.02601   -0.18105
  6 Sn    0.03730   -0.01393   -0.01833
  7 Sn   -0.01731   -0.00396    0.00257
  8 Sn   -0.01116   -0.02815    0.13441
  9 Sn   -0.00552    0.00319   -0.24639
 10 Sn   -0.00470    0.00271    0.12154
 11 Sn   -0.00293   -0.03470    0.02891
 12 Sn    0.01880    0.02374    0.13441
 13 Sn   -0.01208    0.01003   -0.20364
 14 Sn   -0.00367    0.02768   -0.03463
 15 Sn    0.02859    0.01989    0.02891
 16 Sn    0.00702   -0.05341    0.18830
 17 Sn    0.04489   -0.02592   -0.17092
 18 Sn    0.01506   -0.00869   -0.09326
 19 Sn    0.00282   -0.07752    0.18458
 20 Sn   -0.03994    0.02306    0.19999
 21 Sn   -0.00337    0.05785   -0.18105
 22 Sn    0.03072   -0.02534   -0.01833
 23 Sn   -0.06110    0.03528    0.19717
 24 Sn    0.02056    0.05030    0.13264
 25 Sn    0.00121   -0.00070   -0.19417
 26 Sn    0.00486   -0.00281    0.00419
 27 Sn   -0.00522    0.01697    0.00257
 28 Sn    0.02714   -0.01567    0.15038
 29 Sn   -0.01473    0.00544   -0.20364
 30 Sn   -0.02581   -0.01066   -0.03463
 31 Sn    0.00596   -0.00344    0.00190
 32 Sn    0.04977    0.02062    0.18830
 33 Sn   -0.00398   -0.00097   -0.22157
 34 Sn   -0.00400   -0.02727   -0.03870
 35 Sn    0.06854    0.03632    0.18458
 36 C    -0.01608    0.00928   -0.39875

BFGS:    2 04:41:09    -5899.898421        0.3992
System changes: positions 

Initializing position-dependent things.

Density initialized from wave functions
                                                  
                                                  
                                                  
                                                  
                                                  
                      C                           
           Sn      Sn       Sn                    
                     Sn                           
            SSn     Sn      SnSn                  
               Sn       Sn      Sn                
              Sn       Sn      Sn                 
                 Sn      Sn      Sn               
               Sn       Sn      Sn                
                                                  
                  Sn      Sn      Sn              
                    Sn       Sn      Sn           
           Sn      Sn      Sn                     
                                                  
             Sn      Sn       Sn                  
               Sn       Sn      Sn                
                                                  
                                                  
                                                  
                                                  

Positions:
   0 Sn    -0.000000    0.000000   10.000000    ( 0.0000,  0.0000,  0.0000)
   1 Sn     1.710646    0.987642   12.793473    ( 0.0000,  0.0000,  0.0000)
   2 Sn    -0.016160    1.990075   15.665686    ( 0.0000,  0.0000,  0.0000)
   3 Sn    -0.004917    0.002839   18.411610    ( 0.0000,  0.0000,  0.0000)
   4 Sn    -1.710646    2.962925   10.000000    ( 0.0000,  0.0000,  0.0000)
   5 Sn    -0.000000    3.950567   12.793473    ( 0.0000,  0.0000,  0.0000)
   6 Sn    -1.697647    4.902270   15.670636    ( 0.0000,  0.0000,  0.0000)
   7 Sn    -1.751577    2.941766   18.385009    ( 0.0000,  0.0000,  0.0000)
   8 Sn    -3.421291    5.925850   10.000000    ( 0.0000,  0.0000,  0.0000)
   9 Sn    -1.710646    6.913492   12.793473    ( 0.0000,  0.0000,  0.0000)
  10 Sn    -3.427484    7.904709   15.763214    ( 0.0000,  0.0000,  0.0000)
  11 Sn    -3.422852    5.915894   18.423743    ( 0.0000,  0.0000,  0.0000)
  12 Sn     3.421291    0.000000   10.000000    ( 0.0000,  0.0000,  0.0000)
  13 Sn     5.131937    0.987642   12.793473    ( 0.0000,  0.0000,  0.0000)
  14 Sn     3.444718    1.999534   15.663986    ( 0.0000,  0.0000,  0.0000)
  15 Sn     3.429133    0.006330   18.423743    ( 0.0000,  0.0000,  0.0000)
  16 Sn     1.710646    2.962925   10.000000    ( 0.0000,  0.0000,  0.0000)
  17 Sn     3.421291    3.950567   12.793473    ( 0.0000,  0.0000,  0.0000)
  18 Sn     1.719778    4.932936   15.569399    ( 0.0000,  0.0000,  0.0000)
  19 Sn     1.711075    2.857787   18.502391    ( 0.0000,  0.0000,  0.0000)
  20 Sn    -0.000000    5.925850   10.000000    ( 0.0000,  0.0000,  0.0000)
  21 Sn     1.710646    6.913492   12.793473    ( 0.0000,  0.0000,  0.0000)
  22 Sn     0.037623    7.907846   15.670636    ( 0.0000,  0.0000,  0.0000)
  23 Sn    -0.098364    5.982640   18.509345    ( 0.0000,  0.0000,  0.0000)
  24 Sn     6.842582    0.000000   10.000000    ( 0.0000,  0.0000,  0.0000)
  25 Sn     8.553228    0.987642   12.793473    ( 0.0000,  0.0000,  0.0000)
  26 Sn     6.848489    1.971873   15.726278    ( 0.0000,  0.0000,  0.0000)
  27 Sn     6.840441    0.046027   18.385009    ( 0.0000,  0.0000,  0.0000)
  28 Sn     5.131937    2.962925   10.000000    ( 0.0000,  0.0000,  0.0000)
  29 Sn     6.842582    3.950567   12.793473    ( 0.0000,  0.0000,  0.0000)
  30 Sn     5.122648    4.905795   15.663986    ( 0.0000,  0.0000,  0.0000)
  31 Sn     5.164507    2.944121   18.389232    ( 0.0000,  0.0000,  0.0000)
  32 Sn     3.421291    5.925850   10.000000    ( 0.0000,  0.0000,  0.0000)
  33 Sn     5.131937    6.913492   12.793473    ( 0.0000,  0.0000,  0.0000)
  34 Sn     3.400401    7.907733   15.665686    ( 0.0000,  0.0000,  0.0000)
  35 Sn     3.512558    5.978048   18.502391    ( 0.0000,  0.0000,  0.0000)
  36 C      1.710010    4.938575   19.230398    ( 0.0000,  0.0000,  0.0000)

Unit cell:
           periodic     x           y           z      points  spacing
  1. axis:    yes   10.263874    0.000000    0.000000    48     0.1852
  2. axis:    yes   -5.131937    8.888775    0.000000    48     0.1852
  3. axis:    no     0.000000    0.000000   28.380418   156     0.1819

  Lengths:  10.263874  10.263874  28.380418
  Angles:   90.000000  90.000000 120.000000

Effective grid spacing dv^(1/3) = 0.1931

     iter     time        total  log10-change:
                         energy  eigst   dens
iter:   1 04:41:50 -5900.028035  -1.22
iter:   2 04:42:14 -5900.008595  -2.13  -2.33
iter:   3 04:42:38 -5899.943068c -2.81  -2.43
iter:   4 04:43:02 -5899.931245c -3.02  -2.76
iter:   5 04:43:26 -5899.930567c -3.58  -3.03
iter:   6 04:43:50 -5899.930631c -3.86  -3.16
iter:   7 04:44:13 -5899.931283c -4.17  -3.32
iter:   8 04:44:37 -5899.931493c -4.72  -3.45
iter:   9 04:45:01 -5899.931660c -5.00  -3.56
iter:  10 04:45:25 -5899.931706c -5.52  -3.70
iter:  11 04:45:49 -5899.931780c -5.46  -3.76
iter:  12 04:46:13 -5899.931814c -6.07  -3.97
iter:  13 04:46:37 -5899.931841c -5.91  -4.04c
iter:  14 04:47:00 -5899.931846c -6.13  -4.28c
iter:  15 04:47:24 -5899.931842c -6.67  -4.32c
iter:  16 04:47:48 -5899.931842c -6.64  -4.46c
iter:  17 04:48:12 -5899.931840c -7.02  -4.64c
iter:  18 04:48:36 -5899.931838c -7.49c -4.84c

Converged after 18 iterations.

Dipole moment: (-2.046755, -15.349712, -0.147586) |e|*Ang

Energy contributions relative to reference atoms: (reference = -6049412.587171)

Kinetic:       +925.186842
Potential:     -883.590140
External:        +0.000000
XC:            -5938.953719
Entropy (-ST):   -0.710491
Local:           -2.219577
--------------------------
Free energy:   -5900.287084
Extrapolated:  -5899.931838

Showing only first 2 kpts
 Kpt  Band  Eigenvalues  Occupancy
  0   252     -4.89408    1.99324
  0   253     -4.86579    1.99104
  0   254     -4.68385    1.94599
  0   255     -4.62933    1.90862

  1   252     -4.78228    1.97947
  1   253     -4.67586    1.94163
  1   254     -4.63814    1.91600
  1   255     -4.47101    1.62182


Fermi level: -4.32542

No gap

Forces in eV/Ang:
  0 Sn   -0.03942    0.02276    0.10853
  1 Sn    0.00039   -0.01499   -0.20594
  2 Sn    0.08075   -0.00557    0.03708
  3 Sn   -0.03564    0.02058    0.00369
  4 Sn   -0.04260   -0.04511    0.13597
  5 Sn   -0.05616   -0.02990   -0.23739
  6 Sn    0.04253    0.06191    0.06090
  7 Sn    0.04623    0.03341    0.04203
  8 Sn   -0.01099   -0.03980    0.13227
  9 Sn   -0.02198    0.01269   -0.22970
 10 Sn    0.02040   -0.01178    0.11869
 11 Sn   -0.00482   -0.05790    0.02080
 12 Sn    0.02897    0.02941    0.13227
 13 Sn   -0.01052    0.00814   -0.21298
 14 Sn   -0.06646   -0.00884    0.04805
 15 Sn    0.04774    0.03313    0.02080
 16 Sn    0.00836   -0.04489    0.19563
 17 Sn    0.05259   -0.03036   -0.22819
 18 Sn    0.01267   -0.00731    0.13395
 19 Sn    0.00223    0.16194    0.05043
 20 Sn   -0.03343    0.01930    0.20875
 21 Sn   -0.00219    0.06358   -0.23739
 22 Sn   -0.03235   -0.06779    0.06090
 23 Sn    0.15415   -0.08900    0.07290
 24 Sn    0.01777    0.05945    0.13597
 25 Sn   -0.00055    0.00032   -0.20259
 26 Sn   -0.00025    0.00014   -0.04194
 27 Sn   -0.00582   -0.05674    0.04203
 28 Sn    0.03479   -0.02009    0.15406
 29 Sn   -0.01231    0.00504   -0.21298
 30 Sn   -0.02557    0.06197    0.04805
 31 Sn   -0.06132    0.03540    0.02796
 32 Sn    0.04305    0.01520    0.19563
 33 Sn    0.01318    0.00716   -0.20594
 34 Sn    0.04520   -0.06715    0.03708
 35 Sn   -0.13913   -0.08290    0.05043
 36 C    -0.03021    0.01744   -0.44524

BFGS:    3 04:48:45    -5899.931838        0.4466
System changes: positions 

Initializing position-dependent things.

Density initialized from wave functions
                                                  
                                                  
                                                  
                                                  
                                                  
                      C                           
           Sn      Sn       Sn                    
                     Sn                           
            SSn     Sn      SnSn                  
               Sn       Sn      Sn                
              Sn       Sn      Sn                 
                 Sn      Sn      Sn               
               Sn       Sn      Sn                
                                                  
                  Sn      Sn      Sn              
                    Sn       Sn      Sn           
           Sn      Sn      Sn                     
                                                  
             Sn      Sn       Sn                  
               Sn       Sn      Sn                
                                                  
                                                  
                                                  
                                                  

Positions:
   0 Sn    -0.000000    0.000000   10.000000    ( 0.0000,  0.0000,  0.0000)
   1 Sn     1.710646    0.987642   12.793473    ( 0.0000,  0.0000,  0.0000)
   2 Sn    -0.015151    1.990101   15.665884    ( 0.0000,  0.0000,  0.0000)
   3 Sn    -0.005450    0.003146   18.411809    ( 0.0000,  0.0000,  0.0000)
   4 Sn    -1.710646    2.962925   10.000000    ( 0.0000,  0.0000,  0.0000)
   5 Sn    -0.000000    3.950567   12.793473    ( 0.0000,  0.0000,  0.0000)
   6 Sn    -1.696961    4.902872   15.671203    ( 0.0000,  0.0000,  0.0000)
   7 Sn    -1.751227    2.942080   18.385550    ( 0.0000,  0.0000,  0.0000)
   8 Sn    -3.421291    5.925850   10.000000    ( 0.0000,  0.0000,  0.0000)
   9 Sn    -1.710646    6.913492   12.793473    ( 0.0000,  0.0000,  0.0000)
  10 Sn    -3.427245    7.904571   15.765260    ( 0.0000,  0.0000,  0.0000)
  11 Sn    -3.422931    5.915013   18.424274    ( 0.0000,  0.0000,  0.0000)
  12 Sn     3.421291    0.000000   10.000000    ( 0.0000,  0.0000,  0.0000)
  13 Sn     5.131937    0.987642   12.793473    ( 0.0000,  0.0000,  0.0000)
  14 Sn     3.443961    1.999584   15.664325    ( 0.0000,  0.0000,  0.0000)
  15 Sn     3.429857    0.006838   18.424274    ( 0.0000,  0.0000,  0.0000)
  16 Sn     1.710646    2.962925   10.000000    ( 0.0000,  0.0000,  0.0000)
  17 Sn     3.421291    3.950567   12.793473    ( 0.0000,  0.0000,  0.0000)
  18 Sn     1.720023    4.932795   15.570247    ( 0.0000,  0.0000,  0.0000)
  19 Sn     1.711108    2.859276   18.503929    ( 0.0000,  0.0000,  0.0000)
  20 Sn    -0.000000    5.925850   10.000000    ( 0.0000,  0.0000,  0.0000)
  21 Sn     1.710646    6.913492   12.793473    ( 0.0000,  0.0000,  0.0000)
  22 Sn     0.037444    7.906951   15.671203    ( 0.0000,  0.0000,  0.0000)
  23 Sn    -0.096932    5.981814   18.511247    ( 0.0000,  0.0000,  0.0000)
  24 Sn     6.842582    0.000000   10.000000    ( 0.0000,  0.0000,  0.0000)
  25 Sn     8.553228    0.987642   12.793473    ( 0.0000,  0.0000,  0.0000)
  26 Sn     6.848530    1.971850   15.725813    ( 0.0000,  0.0000,  0.0000)
  27 Sn     6.840344    0.045567   18.385550    ( 0.0000,  0.0000,  0.0000)
  28 Sn     5.131937    2.962925   10.000000    ( 0.0000,  0.0000,  0.0000)
  29 Sn     6.842582    3.950567   12.793473    ( 0.0000,  0.0000,  0.0000)
  30 Sn     5.122227    4.906425   15.664325    ( 0.0000,  0.0000,  0.0000)
  31 Sn     5.163885    2.944480   18.389607    ( 0.0000,  0.0000,  0.0000)
  32 Sn     3.421291    5.925850   10.000000    ( 0.0000,  0.0000,  0.0000)
  33 Sn     5.131937    6.913492   12.793473    ( 0.0000,  0.0000,  0.0000)
  34 Sn     3.400883    7.906846   15.665884    ( 0.0000,  0.0000,  0.0000)
  35 Sn     3.511285    5.977274   18.503929    ( 0.0000,  0.0000,  0.0000)
  36 C      1.709585    4.938821   19.223043    ( 0.0000,  0.0000,  0.0000)

Unit cell:
           periodic     x           y           z      points  spacing
  1. axis:    yes   10.263874    0.000000    0.000000    48     0.1852
  2. axis:    yes   -5.131937    8.888775    0.000000    48     0.1852
  3. axis:    no     0.000000    0.000000   28.380418   156     0.1819

  Lengths:  10.263874  10.263874  28.380418
  Angles:   90.000000  90.000000 120.000000

Effective grid spacing dv^(1/3) = 0.1931

     iter     time        total  log10-change:
                         energy  eigst   dens
iter:   1 04:49:27 -5899.940502  -3.85
iter:   2 04:49:50 -5899.939007  -4.68  -3.23
iter:   3 04:50:14 -5899.937540c -5.22  -3.26
iter:   4 04:50:38 -5899.937164c -5.15  -3.71
iter:   5 04:51:02 -5899.937103c -5.80  -4.13c
iter:   6 04:51:26 -5899.937073c -5.52  -4.22c
iter:   7 04:51:50 -5899.937062c -6.61  -4.41c
iter:   8 04:52:14 -5899.937059c -7.12  -4.55c
iter:   9 04:52:37 -5899.937063c -7.21  -4.64c
iter:  10 04:53:01 -5899.937062c -7.36  -4.70c
iter:  11 04:53:25 -5899.937062c -7.90c -4.90c

Converged after 11 iterations.

Dipole moment: (-1.970812, -15.397794, -0.144751) |e|*Ang

Energy contributions relative to reference atoms: (reference = -6049412.587171)

Kinetic:       +925.316316
Potential:     -883.683019
External:        +0.000000
XC:            -5938.995810
Entropy (-ST):   -0.710624
Local:           -2.219237
--------------------------
Free energy:   -5900.292374
Extrapolated:  -5899.937062

Showing only first 2 kpts
 Kpt  Band  Eigenvalues  Occupancy
  0   252     -4.89148    1.99319
  0   253     -4.86421    1.99106
  0   254     -4.68226    1.94611
  0   255     -4.62702    1.90820

  1   252     -4.77992    1.97936
  1   253     -4.67399    1.94160
  1   254     -4.63599    1.91574
  1   255     -4.46954    1.62292


Fermi level: -4.32359

No gap

Forces in eV/Ang:
  0 Sn   -0.04008    0.02314    0.10839
  1 Sn    0.00044   -0.01788   -0.20577
  2 Sn    0.08153   -0.00287    0.04217
  3 Sn   -0.03586    0.02070    0.00112
  4 Sn   -0.04267   -0.04501    0.13733
  5 Sn   -0.05757   -0.03068   -0.24141
  6 Sn    0.04459    0.06246    0.06467
  7 Sn    0.05093    0.03508    0.03864
  8 Sn   -0.01085   -0.04054    0.13219
  9 Sn   -0.02461    0.01421   -0.22979
 10 Sn    0.02231   -0.01288    0.11580
 11 Sn   -0.00422   -0.05798    0.01830
 12 Sn    0.02968    0.02966    0.13219
 13 Sn   -0.01128    0.00797   -0.21189
 14 Sn   -0.06744   -0.00743    0.05204
 15 Sn    0.04810    0.03264    0.01830
 16 Sn    0.00829   -0.04454    0.19694
 17 Sn    0.05425   -0.03132   -0.23253
 18 Sn    0.01183   -0.00683    0.13723
 19 Sn    0.00196    0.13556    0.03864
 20 Sn   -0.03322    0.01918    0.21017
 21 Sn   -0.00222    0.06520   -0.24141
 22 Sn   -0.03180   -0.06984    0.06467
 23 Sn    0.12556   -0.07249    0.05902
 24 Sn    0.01765    0.05946    0.13733
 25 Sn    0.00003   -0.00002   -0.20167
 26 Sn   -0.00037    0.00021   -0.04336
 27 Sn   -0.00491   -0.06165    0.03864
 28 Sn    0.03481   -0.02010    0.15521
 29 Sn   -0.01254    0.00578   -0.21189
 30 Sn   -0.02728    0.06213    0.05204
 31 Sn   -0.06571    0.03794    0.02455
 32 Sn    0.04272    0.01509    0.19694
 33 Sn    0.01571    0.00856   -0.20577
 34 Sn    0.04325   -0.06917    0.04217
 35 Sn   -0.11642   -0.06948    0.03864
 36 C    -0.02068    0.01194   -0.38688

BFGS:    4 04:53:34    -5899.937062        0.3876
System changes: positions 

Initializing position-dependent things.

Density initialized from wave functions
                                                  
                                                  
                                                  
                                                  
                                                  
                      C                           
           Sn      Sn      Sn                     
             Sn      Sn       Sn                  
            Sn      Sn      Sn                    
               Sn       Sn      Sn                
              Sn       Sn      Sn                 
                 Sn      Sn      Sn               
               Sn       Sn      Sn                
                                                  
                  Sn      Sn      Sn              
                    Sn       Sn      Sn           
           Sn      Sn      Sn                     
                                                  
             Sn      Sn       Sn                  
               Sn       Sn      Sn                
                                                  
                                                  
                                                  
                                                  

Positions:
   0 Sn    -0.000000    0.000000   10.000000    ( 0.0000,  0.0000,  0.0000)
   1 Sn     1.710646    0.987642   12.793473    ( 0.0000,  0.0000,  0.0000)
   2 Sn    -0.000858    1.988104   15.676520    ( 0.0000,  0.0000,  0.0000)
   3 Sn    -0.010582    0.006110   18.410185    ( 0.0000,  0.0000,  0.0000)
   4 Sn    -1.710646    2.962925   10.000000    ( 0.0000,  0.0000,  0.0000)
   5 Sn    -0.000000    3.950567   12.793473    ( 0.0000,  0.0000,  0.0000)
   6 Sn    -1.691317    4.916098   15.684921    ( 0.0000,  0.0000,  0.0000)
   7 Sn    -1.739417    2.949576   18.392410    ( 0.0000,  0.0000,  0.0000)
   8 Sn    -3.421291    5.925850   10.000000    ( 0.0000,  0.0000,  0.0000)
   9 Sn    -1.710646    6.913492   12.793473    ( 0.0000,  0.0000,  0.0000)
  10 Sn    -3.423212    7.902243   15.778235    ( 0.0000,  0.0000,  0.0000)
  11 Sn    -3.423454    5.906890   18.424235    ( 0.0000,  0.0000,  0.0000)
  12 Sn     3.421291    0.000000   10.000000    ( 0.0000,  0.0000,  0.0000)
  13 Sn     5.131937    0.987642   12.793473    ( 0.0000,  0.0000,  0.0000)
  14 Sn     3.431175    1.996006   15.676697    ( 0.0000,  0.0000,  0.0000)
  15 Sn     3.436629    0.011353   18.424235    ( 0.0000,  0.0000,  0.0000)
  16 Sn     1.710646    2.962925   10.000000    ( 0.0000,  0.0000,  0.0000)
  17 Sn     3.421291    3.950567   12.793473    ( 0.0000,  0.0000,  0.0000)
  18 Sn     1.721044    4.932205   15.605076    ( 0.0000,  0.0000,  0.0000)
  19 Sn     1.711377    2.891309   18.499962    ( 0.0000,  0.0000,  0.0000)
  20 Sn    -0.000000    5.925850   10.000000    ( 0.0000,  0.0000,  0.0000)
  21 Sn     1.710646    6.913492   12.793473    ( 0.0000,  0.0000,  0.0000)
  22 Sn     0.028813    7.895449   15.684921    ( 0.0000,  0.0000,  0.0000)
  23 Sn    -0.067047    5.964560   18.509876    ( 0.0000,  0.0000,  0.0000)
  24 Sn     6.842582    0.000000   10.000000    ( 0.0000,  0.0000,  0.0000)
  25 Sn     8.553228    0.987642   12.793473    ( 0.0000,  0.0000,  0.0000)
  26 Sn     6.847919    1.972202   15.717382    ( 0.0000,  0.0000,  0.0000)
  27 Sn     6.839758    0.031591   18.392410    ( 0.0000,  0.0000,  0.0000)
  28 Sn     5.131937    2.962925   10.000000    ( 0.0000,  0.0000,  0.0000)
  29 Sn     6.842582    3.950567   12.793473    ( 0.0000,  0.0000,  0.0000)
  30 Sn     5.118932    4.919287   15.676697    ( 0.0000,  0.0000,  0.0000)
  31 Sn     5.150543    2.952183   18.393842    ( 0.0000,  0.0000,  0.0000)
  32 Sn     3.421291    5.925850   10.000000    ( 0.0000,  0.0000,  0.0000)
  33 Sn     5.131937    6.913492   12.793473    ( 0.0000,  0.0000,  0.0000)
  34 Sn     3.409759    7.895466   15.676520    ( 0.0000,  0.0000,  0.0000)
  35 Sn     3.483678    5.961025   18.499962    ( 0.0000,  0.0000,  0.0000)
  36 C      1.706156    4.940801   19.174599    ( 0.0000,  0.0000,  0.0000)

Unit cell:
           periodic     x           y           z      points  spacing
  1. axis:    yes   10.263874    0.000000    0.000000    48     0.1852
  2. axis:    yes   -5.131937    8.888775    0.000000    48     0.1852
  3. axis:    no     0.000000    0.000000   28.380418   156     0.1819

  Lengths:  10.263874  10.263874  28.380418
  Angles:   90.000000  90.000000 120.000000

Effective grid spacing dv^(1/3) = 0.1931

     iter     time        total  log10-change:
                         energy  eigst   dens
iter:   1 04:54:16 -5900.368723  -1.76
iter:   2 04:54:40 -5900.182460  -2.55  -2.18
iter:   3 04:55:03 -5900.010677  -3.15  -2.24
iter:   4 04:55:27 -5899.965023c -3.10  -2.65
iter:   5 04:55:51 -5899.959822c -3.59  -3.04
iter:   6 04:56:15 -5899.957247c -3.63  -3.18
iter:   7 04:56:39 -5899.956944c -4.33  -3.38
iter:   8 04:57:03 -5899.956752c -4.94  -3.50
iter:   9 04:57:27 -5899.956896c -5.10  -3.64
iter:  10 04:57:50 -5899.956746c -5.44  -3.64
iter:  11 04:58:14 -5899.956789c -5.79  -3.84
iter:  12 04:58:38 -5899.956831c -5.79  -3.90
iter:  13 04:59:02 -5899.956839c -6.37  -4.10c
iter:  14 04:59:26 -5899.956842c -6.34  -4.15c
iter:  15 04:59:50 -5899.956847c -6.44  -4.38c
iter:  16 05:00:14 -5899.956842c -6.83  -4.55c
iter:  17 05:00:37 -5899.956845c -7.09  -4.62c
iter:  18 05:01:01 -5899.956847c -7.57c -4.74c

Converged after 18 iterations.

Dipole moment: (-2.083578, -15.405489, -0.123992) |e|*Ang

Energy contributions relative to reference atoms: (reference = -6049412.587171)

Kinetic:       +928.189979
Potential:     -885.956808
External:        +0.000000
XC:            -5939.610261
Entropy (-ST):   -0.709531
Local:           -2.224991
--------------------------
Free energy:   -5900.311612
Extrapolated:  -5899.956847

Showing only first 2 kpts
 Kpt  Band  Eigenvalues  Occupancy
  0   252     -4.86730    1.99209
  0   253     -4.85711    1.99125
  0   254     -4.67548    1.94735
  0   255     -4.61342    1.90424

  1   252     -4.75225    1.97522
  1   253     -4.66157    1.93973
  1   254     -4.62353    1.91305
  1   255     -4.46131    1.62579


Fermi level: -4.31442

No gap

Forces in eV/Ang:
  0 Sn   -0.04022    0.02322    0.10351
  1 Sn    0.00025   -0.01773   -0.20332
  2 Sn    0.01637    0.00801    0.01863
  3 Sn   -0.01414    0.00817    0.01393
  4 Sn   -0.04056   -0.04560    0.13900
  5 Sn   -0.05292   -0.02750   -0.21989
  6 Sn    0.03314    0.00344    0.03286
  7 Sn    0.01933    0.01124   -0.00997
  8 Sn   -0.01165   -0.03857    0.12947
  9 Sn   -0.02305    0.01331   -0.22874
 10 Sn    0.01775   -0.01025    0.10173
 11 Sn   -0.00116   -0.03512    0.04224
 12 Sn    0.02758    0.02937    0.12947
 13 Sn   -0.01758    0.00642   -0.19878
 14 Sn   -0.01148    0.00749    0.01847
 15 Sn    0.02984    0.01857    0.04224
 16 Sn    0.00731   -0.04696    0.19749
 17 Sn    0.04965   -0.02867   -0.21160
 18 Sn   -0.00161    0.00093    0.07633
 19 Sn    0.00060   -0.28180   -0.04893
 20 Sn   -0.03423    0.01977    0.21073
 21 Sn   -0.00265    0.05958   -0.21989
 22 Sn    0.01359   -0.03042    0.03286
 23 Sn   -0.29242    0.16883   -0.04503
 24 Sn    0.01921    0.05793    0.13900
 25 Sn    0.00605   -0.00349   -0.19039
 26 Sn    0.00178   -0.00103    0.00312
 27 Sn   -0.00007   -0.02236   -0.00997
 28 Sn    0.03330   -0.01922    0.15378
 29 Sn   -0.01435    0.01201   -0.19878
 30 Sn   -0.01223    0.00620    0.01847
 31 Sn   -0.02170    0.01253   -0.01547
 32 Sn    0.04432    0.01715    0.19749
 33 Sn    0.01548    0.00865   -0.20332
 34 Sn    0.00125   -0.01818    0.01863
 35 Sn    0.24434    0.14038   -0.04893
 36 C     0.03842   -0.02218   -0.06267

BFGS:    5 05:01:10    -5899.956847        0.3406
System changes: positions 

Initializing position-dependent things.

Density initialized from wave functions
                                                  
                                                  
                                                  
                                                  
                                                  
                      C                           
           Sn      Sn      Sn                     
             Sn      Sn       Sn                  
            Sn      Sn      Sn                    
               Sn       Sn      Sn                
              Sn       Sn      Sn                 
                 Sn      Sn      Sn               
               Sn       Sn      Sn                
                                                  
                  Sn      Sn      Sn              
                    Sn       Sn      Sn           
           Sn      Sn      Sn                     
                                                  
             Sn      Sn       Sn                  
               Sn       Sn      Sn                
                                                  
                                                  
                                                  
                                                  

Positions:
   0 Sn    -0.000000    0.000000   10.000000    ( 0.0000,  0.0000,  0.0000)
   1 Sn     1.710646    0.987642   12.793473    ( 0.0000,  0.0000,  0.0000)
   2 Sn    -0.002874    1.990287   15.670754    ( 0.0000,  0.0000,  0.0000)
   3 Sn    -0.011439    0.006605   18.413047    ( 0.0000,  0.0000,  0.0000)
   4 Sn    -1.710646    2.962925   10.000000    ( 0.0000,  0.0000,  0.0000)
   5 Sn    -0.000000    3.950567   12.793473    ( 0.0000,  0.0000,  0.0000)
   6 Sn    -1.689099    4.911178   15.679991    ( 0.0000,  0.0000,  0.0000)
   7 Sn    -1.744809    2.946796   18.391323    ( 0.0000,  0.0000,  0.0000)
   8 Sn    -3.421291    5.925850   10.000000    ( 0.0000,  0.0000,  0.0000)
   9 Sn    -1.710646    6.913492   12.793473    ( 0.0000,  0.0000,  0.0000)
  10 Sn    -3.423847    7.902609   15.786855    ( 0.0000,  0.0000,  0.0000)
  11 Sn    -3.423677    5.905099   18.429088    ( 0.0000,  0.0000,  0.0000)
  12 Sn     3.421291    0.000000   10.000000    ( 0.0000,  0.0000,  0.0000)
  13 Sn     5.131937    0.987642   12.793473    ( 0.0000,  0.0000,  0.0000)
  14 Sn     3.434260    1.999478   15.670684    ( 0.0000,  0.0000,  0.0000)
  15 Sn     3.438069    0.012442   18.429088    ( 0.0000,  0.0000,  0.0000)
  16 Sn     1.710646    2.962925   10.000000    ( 0.0000,  0.0000,  0.0000)
  17 Sn     3.421291    3.950567   12.793473    ( 0.0000,  0.0000,  0.0000)
  18 Sn     1.722289    4.931486   15.586569    ( 0.0000,  0.0000,  0.0000)
  19 Sn     1.711441    2.873375   18.514658    ( 0.0000,  0.0000,  0.0000)
  20 Sn    -0.000000    5.925850   10.000000    ( 0.0000,  0.0000,  0.0000)
  21 Sn     1.710646    6.913492   12.793473    ( 0.0000,  0.0000,  0.0000)
  22 Sn     0.034182    7.895989   15.679991    ( 0.0000,  0.0000,  0.0000)
  23 Sn    -0.084185    5.974454   18.525560    ( 0.0000,  0.0000,  0.0000)
  24 Sn     6.842582    0.000000   10.000000    ( 0.0000,  0.0000,  0.0000)
  25 Sn     8.553228    0.987642   12.793473    ( 0.0000,  0.0000,  0.0000)
  26 Sn     6.848756    1.971719   15.719745    ( 0.0000,  0.0000,  0.0000)
  27 Sn     6.839469    0.037651   18.391323    ( 0.0000,  0.0000,  0.0000)
  28 Sn     5.131937    2.962925   10.000000    ( 0.0000,  0.0000,  0.0000)
  29 Sn     6.842582    3.950567   12.793473    ( 0.0000,  0.0000,  0.0000)
  30 Sn     5.117468    4.914880   15.670684    ( 0.0000,  0.0000,  0.0000)
  31 Sn     5.154746    2.949756   18.393276    ( 0.0000,  0.0000,  0.0000)
  32 Sn     3.421291    5.925850   10.000000    ( 0.0000,  0.0000,  0.0000)
  33 Sn     5.131937    6.913492   12.793473    ( 0.0000,  0.0000,  0.0000)
  34 Sn     3.406860    7.896121   15.670754    ( 0.0000,  0.0000,  0.0000)
  35 Sn     3.499241    5.969936   18.514658    ( 0.0000,  0.0000,  0.0000)
  36 C      1.706598    4.940545   19.153834    ( 0.0000,  0.0000,  0.0000)

Unit cell:
           periodic     x           y           z      points  spacing
  1. axis:    yes   10.263874    0.000000    0.000000    48     0.1852
  2. axis:    yes   -5.131937    8.888775    0.000000    48     0.1852
  3. axis:    no     0.000000    0.000000   28.380418   156     0.1819

  Lengths:  10.263874  10.263874  28.380418
  Angles:   90.000000  90.000000 120.000000

Effective grid spacing dv^(1/3) = 0.1931

     iter     time        total  log10-change:
                         energy  eigst   dens
iter:   1 05:01:52 -5899.982849  -2.29
iter:   2 05:02:16 -5899.977799  -3.17  -2.79
iter:   3 05:02:40 -5899.968695c -3.85  -2.89
iter:   4 05:03:04 -5899.967795c -4.25  -3.34
iter:   5 05:03:28 -5899.967585c -4.60  -3.50
iter:   6 05:03:52 -5899.967589c -4.89  -3.68
iter:   7 05:04:16 -5899.967628c -5.28  -3.83
iter:   8 05:04:40 -5899.967687c -5.69  -3.97
iter:   9 05:05:04 -5899.967681c -6.18  -4.13c
iter:  10 05:05:28 -5899.967689c -6.64  -4.18c
iter:  11 05:05:52 -5899.967683c -6.67  -4.30c
iter:  12 05:06:16 -5899.967689c -6.83  -4.49c
iter:  13 05:06:40 -5899.967691c -7.12  -4.67c
iter:  14 05:07:04 -5899.967691c -7.24  -4.87c
iter:  15 05:07:28 -5899.967691c -7.79c -5.02c

Converged after 15 iterations.

Dipole moment: (-1.356386, -15.807024, -0.118726) |e|*Ang

Energy contributions relative to reference atoms: (reference = -6049412.587171)

Kinetic:       +927.220054
Potential:     -885.187147
External:        +0.000000
XC:            -5939.422158
Entropy (-ST):   -0.710768
Local:           -2.223056
--------------------------
Free energy:   -5900.323075
Extrapolated:  -5899.967691

Showing only first 2 kpts
 Kpt  Band  Eigenvalues  Occupancy
  0   252     -4.86546    1.99253
  0   253     -4.84967    1.99125
  0   254     -4.66713    1.94693
  0   255     -4.60609    1.90443

  1   252     -4.75572    1.97777
  1   253     -4.65655    1.94119
  1   254     -4.61733    1.91415
  1   255     -4.45570    1.63161


Fermi level: -4.30689

No gap

Forces in eV/Ang:
  0 Sn   -0.04154    0.02398    0.10578
  1 Sn    0.00067   -0.02313   -0.20076
  2 Sn    0.03349    0.00236    0.03825
  3 Sn   -0.01971    0.01138    0.01500
  4 Sn   -0.04162   -0.04532    0.14207
  5 Sn   -0.05434   -0.02875   -0.23723
  6 Sn    0.03448    0.02373    0.05196
  7 Sn    0.02869    0.01761    0.00095
  8 Sn   -0.01150   -0.04113    0.13124
  9 Sn   -0.02763    0.01595   -0.22595
 10 Sn    0.02355   -0.01360    0.08707
 11 Sn   -0.00190   -0.04618    0.04681
 12 Sn    0.02987    0.03052    0.13124
 13 Sn   -0.01697    0.00578   -0.20323
 14 Sn   -0.02854   -0.00112    0.03865
 15 Sn    0.03904    0.02474    0.04681
 16 Sn    0.00741   -0.04403    0.20003
 17 Sn    0.05215   -0.03011   -0.22908
 18 Sn    0.00217   -0.00125    0.12280
 19 Sn    0.00130   -0.17160   -0.03663
 20 Sn   -0.03182    0.01837    0.21392
 21 Sn   -0.00227    0.06143   -0.23723
 22 Sn   -0.00331   -0.04173    0.05196
 23 Sn   -0.18476    0.10667   -0.02710
 24 Sn    0.01844    0.05870    0.14207
 25 Sn    0.00566   -0.00327   -0.19488
 26 Sn    0.00066   -0.00038   -0.00858
 27 Sn   -0.00090   -0.03365    0.00095
 28 Sn    0.03402   -0.01964    0.15710
 29 Sn   -0.01349    0.01180   -0.20323
 30 Sn   -0.01330    0.02527    0.03865
 31 Sn   -0.03511    0.02027   -0.00982
 32 Sn    0.04184    0.01560    0.20003
 33 Sn    0.02037    0.01099   -0.20076
 34 Sn    0.01470   -0.03018    0.03825
 35 Sn    0.14926    0.08467   -0.03663
 36 C     0.01105   -0.00638   -0.11760

BFGS:    6 05:07:37    -5899.967691        0.2151
System changes: positions 

Initializing position-dependent things.

Density initialized from wave functions
                                                  
                                                  
                                                  
                                                  
                                                  
                   Sn C     Sn                    
           Sn                                     
             Sn      Sn       Sn                  
            Sn      Sn      Sn                    
               Sn       Sn      Sn                
              Sn       Sn      Sn                 
                 Sn      Sn      Sn               
               Sn       Sn      Sn                
                                                  
                  Sn      Sn      Sn              
                    Sn       Sn      Sn           
           Sn      Sn      Sn                     
                                                  
             Sn      Sn       Sn                  
               Sn       Sn      Sn                
                                                  
                                                  
                                                  
                                                  

Positions:
   0 Sn    -0.000000    0.000000   10.000000    ( 0.0000,  0.0000,  0.0000)
   1 Sn     1.710646    0.987642   12.793473    ( 0.0000,  0.0000,  0.0000)
   2 Sn    -0.000822    1.994641   15.662239    ( 0.0000,  0.0000,  0.0000)
   3 Sn    -0.016109    0.009301   18.419525    ( 0.0000,  0.0000,  0.0000)
   4 Sn    -1.710646    2.962925   10.000000    ( 0.0000,  0.0000,  0.0000)
   5 Sn    -0.000000    3.950567   12.793473    ( 0.0000,  0.0000,  0.0000)
   6 Sn    -1.680775    4.905647   15.675028    ( 0.0000,  0.0000,  0.0000)
   7 Sn    -1.752217    2.943655   18.391858    ( 0.0000,  0.0000,  0.0000)
   8 Sn    -3.421291    5.925850   10.000000    ( 0.0000,  0.0000,  0.0000)
   9 Sn    -1.710646    6.913492   12.793473    ( 0.0000,  0.0000,  0.0000)
  10 Sn    -3.423211    7.902242   15.814381    ( 0.0000,  0.0000,  0.0000)
  11 Sn    -3.424487    5.896398   18.441601    ( 0.0000,  0.0000,  0.0000)
  12 Sn     3.421291    0.000000   10.000000    ( 0.0000,  0.0000,  0.0000)
  13 Sn     5.131937    0.987642   12.793473    ( 0.0000,  0.0000,  0.0000)
  14 Sn     3.435520    2.006178   15.662338    ( 0.0000,  0.0000,  0.0000)
  15 Sn     3.445200    0.017494   18.441601    ( 0.0000,  0.0000,  0.0000)
  16 Sn     1.710646    2.962925   10.000000    ( 0.0000,  0.0000,  0.0000)
  17 Sn     3.421291    3.950567   12.793473    ( 0.0000,  0.0000,  0.0000)
  18 Sn     1.725843    4.929434   15.559323    ( 0.0000,  0.0000,  0.0000)
  19 Sn     1.711744    2.843155   18.548261    ( 0.0000,  0.0000,  0.0000)
  20 Sn    -0.000000    5.925850   10.000000    ( 0.0000,  0.0000,  0.0000)
  21 Sn     1.710646    6.913492   12.793473    ( 0.0000,  0.0000,  0.0000)
  22 Sn     0.043134    7.891546   15.675028    ( 0.0000,  0.0000,  0.0000)
  23 Sn    -0.113630    5.991454   18.562916    ( 0.0000,  0.0000,  0.0000)
  24 Sn     6.842582    0.000000   10.000000    ( 0.0000,  0.0000,  0.0000)
  25 Sn     8.553228    0.987642   12.793473    ( 0.0000,  0.0000,  0.0000)
  26 Sn     6.850512    1.970705   15.721516    ( 0.0000,  0.0000,  0.0000)
  27 Sn     6.838485    0.045637   18.391858    ( 0.0000,  0.0000,  0.0000)
  28 Sn     5.131937    2.962925   10.000000    ( 0.0000,  0.0000,  0.0000)
  29 Sn     6.842582    3.950567   12.793473    ( 0.0000,  0.0000,  0.0000)
  30 Sn     5.112295    4.910438   15.662338    ( 0.0000,  0.0000,  0.0000)
  31 Sn     5.158451    2.947617   18.393698    ( 0.0000,  0.0000,  0.0000)
  32 Sn     3.421291    5.925850   10.000000    ( 0.0000,  0.0000,  0.0000)
  33 Sn     5.131937    6.913492   12.793473    ( 0.0000,  0.0000,  0.0000)
  34 Sn     3.404116    7.892167   15.662239    ( 0.0000,  0.0000,  0.0000)
  35 Sn     3.525564    5.984784   18.548261    ( 0.0000,  0.0000,  0.0000)
  36 C      1.705865    4.940968   19.079748    ( 0.0000,  0.0000,  0.0000)

Unit cell:
           periodic     x           y           z      points  spacing
  1. axis:    yes   10.263874    0.000000    0.000000    48     0.1852
  2. axis:    yes   -5.131937    8.888775    0.000000    48     0.1852
  3. axis:    no     0.000000    0.000000   28.380418   156     0.1819

  Lengths:  10.263874  10.263874  28.380418
  Angles:   90.000000  90.000000 120.000000

Effective grid spacing dv^(1/3) = 0.1931

     iter     time        total  log10-change:
                         energy  eigst   dens
iter:   1 05:08:18 -5899.984133  -1.69
iter:   2 05:08:42 -5899.987276  -2.57  -2.82
iter:   3 05:09:06 -5899.984543c -3.20  -2.91
iter:   4 05:09:30 -5899.981747c -3.41  -3.09
iter:   5 05:09:53 -5899.980950c -3.81  -3.24
iter:   6 05:10:17 -5899.980821c -4.16  -3.42
iter:   7 05:10:41 -5899.980876c -4.72  -3.58
iter:   8 05:11:05 -5899.980967c -5.24  -3.69
iter:   9 05:11:29 -5899.981118c -5.39  -3.78
iter:  10 05:11:53 -5899.981148c -5.92  -3.93
iter:  11 05:12:17 -5899.981159c -5.88  -3.98
iter:  12 05:12:41 -5899.981154c -6.22  -4.22c
iter:  13 05:13:04 -5899.981143c -6.54  -4.35c
iter:  14 05:13:28 -5899.981135c -6.75  -4.45c
iter:  15 05:13:52 -5899.981135c -7.00  -4.57c
iter:  16 05:14:16 -5899.981139c -7.36  -4.70c
iter:  17 05:14:40 -5899.981141c -7.59c -4.84c

Converged after 17 iterations.

Dipole moment: (0.387427, -16.796801, -0.098184) |e|*Ang

Energy contributions relative to reference atoms: (reference = -6049412.587171)

Kinetic:       +926.276819
Potential:     -884.453284
External:        +0.000000
XC:            -5939.229912
Entropy (-ST):   -0.712293
Local:           -2.218618
--------------------------
Free energy:   -5900.337287
Extrapolated:  -5899.981141

Showing only first 2 kpts
 Kpt  Band  Eigenvalues  Occupancy
  0   252     -4.84990    1.99295
  0   253     -4.82870    1.99129
  0   254     -4.64378    1.94592
  0   255     -4.58194    1.90190

  1   252     -4.75160    1.98127
  1   253     -4.63830    1.94296
  1   254     -4.59706    1.91507
  1   255     -4.43888    1.64517


Fermi level: -4.28548

No gap

Forces in eV/Ang:
  0 Sn   -0.04482    0.02588    0.10631
  1 Sn    0.00142   -0.03343   -0.19156
  2 Sn    0.03901   -0.01054    0.07288
  3 Sn   -0.03260    0.01882    0.02658
  4 Sn   -0.04465   -0.04566    0.14816
  5 Sn   -0.05467   -0.03059   -0.26994
  6 Sn    0.02145    0.04782    0.08612
  7 Sn    0.04363    0.02458    0.01296
  8 Sn   -0.01154   -0.04626    0.13130
  9 Sn   -0.03588    0.02072   -0.21492
 10 Sn    0.02947   -0.01702    0.03756
 11 Sn   -0.00571   -0.07039    0.05202
 12 Sn    0.03430    0.03313    0.13130
 13 Sn   -0.01697    0.00424   -0.20346
 14 Sn   -0.04161   -0.02404    0.07388
 15 Sn    0.05810    0.04014    0.05202
 16 Sn    0.00691   -0.03945    0.20589
 17 Sn    0.05527   -0.03191   -0.26437
 18 Sn    0.01572   -0.00908    0.21692
 19 Sn   -0.00249   -0.06263   -0.08744
 20 Sn   -0.02745    0.01585    0.22056
 21 Sn   -0.00084    0.06264   -0.26994
 22 Sn   -0.03068   -0.04249    0.08612
 23 Sn   -0.06043    0.03489   -0.07243
 24 Sn    0.01722    0.06150    0.14816
 25 Sn    0.00613   -0.00354   -0.19712
 26 Sn    0.00013   -0.00008   -0.02047
 27 Sn    0.00052   -0.05008    0.01296
 28 Sn    0.03609   -0.02084    0.16208
 29 Sn   -0.01216    0.01258   -0.20346
 30 Sn    0.00001    0.04806    0.07388
 31 Sn   -0.05352    0.03090   -0.00686
 32 Sn    0.03762    0.01374    0.20589
 33 Sn    0.02966    0.01549   -0.19156
 34 Sn    0.02863   -0.02851    0.07288
 35 Sn    0.05300    0.03347   -0.08744
 36 C     0.01788   -0.01032   -0.18430

BFGS:    7 05:14:49    -5899.981141        0.2177
System changes: positions 

Initializing position-dependent things.

Density initialized from wave functions
                                                  
                                                  
                                                  
                                                  
                                                  
                   Sn C     Sn                    
           Sn                                     
             Sn      Sn       Sn                  
            Sn      Sn      Sn                    
              SSn       Sn      Sn                
                       Sn      Sn                 
                 Sn      Sn      Sn               
               Sn       Sn      Sn                
                                                  
                  Sn      Sn      Sn              
                    Sn       Sn      Sn           
           Sn      Sn      Sn                     
                                                  
             Sn      Sn       Sn                  
               Sn       Sn      Sn                
                                                  
                                                  
                                                  
                                                  

Positions:
   0 Sn    -0.000000    0.000000   10.000000    ( 0.0000,  0.0000,  0.0000)
   1 Sn     1.710646    0.987642   12.793473    ( 0.0000,  0.0000,  0.0000)
   2 Sn     0.005094    1.996741   15.660850    ( 0.0000,  0.0000,  0.0000)
   3 Sn    -0.021115    0.012191   18.423730    ( 0.0000,  0.0000,  0.0000)
   4 Sn    -1.710646    2.962925   10.000000    ( 0.0000,  0.0000,  0.0000)
   5 Sn    -0.000000    3.950567   12.793473    ( 0.0000,  0.0000,  0.0000)
   6 Sn    -1.673411    4.906481   15.677075    ( 0.0000,  0.0000,  0.0000)
   7 Sn    -1.752952    2.944140   18.394282    ( 0.0000,  0.0000,  0.0000)
   8 Sn    -3.421291    5.925850   10.000000    ( 0.0000,  0.0000,  0.0000)
   9 Sn    -1.710646    6.913492   12.793473    ( 0.0000,  0.0000,  0.0000)
  10 Sn    -3.421185    7.901072   15.836795    ( 0.0000,  0.0000,  0.0000)
  11 Sn    -3.425256    5.887307   18.450590    ( 0.0000,  0.0000,  0.0000)
  12 Sn     3.421291    0.000000   10.000000    ( 0.0000,  0.0000,  0.0000)
  13 Sn     5.131937    0.987642   12.793473    ( 0.0000,  0.0000,  0.0000)
  14 Sn     3.432128    2.009140   15.661573    ( 0.0000,  0.0000,  0.0000)
  15 Sn     3.452688    0.022706   18.450590    ( 0.0000,  0.0000,  0.0000)
  16 Sn     1.710646    2.962925   10.000000    ( 0.0000,  0.0000,  0.0000)
  17 Sn     3.421291    3.950567   12.793473    ( 0.0000,  0.0000,  0.0000)
  18 Sn     1.728665    4.927805   15.555118    ( 0.0000,  0.0000,  0.0000)
  19 Sn     1.711965    2.830309   18.567099    ( 0.0000,  0.0000,  0.0000)
  20 Sn    -0.000000    5.925850   10.000000    ( 0.0000,  0.0000,  0.0000)
  21 Sn     1.710646    6.913492   12.793473    ( 0.0000,  0.0000,  0.0000)
  22 Sn     0.046094    7.884751   15.677075    ( 0.0000,  0.0000,  0.0000)
  23 Sn    -0.126518    5.998895   18.585136    ( 0.0000,  0.0000,  0.0000)
  24 Sn     6.842582    0.000000   10.000000    ( 0.0000,  0.0000,  0.0000)
  25 Sn     8.553228    0.987642   12.793473    ( 0.0000,  0.0000,  0.0000)
  26 Sn     6.851487    1.970142   15.720031    ( 0.0000,  0.0000,  0.0000)
  27 Sn     6.837697    0.046031   18.394282    ( 0.0000,  0.0000,  0.0000)
  28 Sn     5.131937    2.962925   10.000000    ( 0.0000,  0.0000,  0.0000)
  29 Sn     6.842582    3.950567   12.793473    ( 0.0000,  0.0000,  0.0000)
  30 Sn     5.108034    4.911895   15.661573    ( 0.0000,  0.0000,  0.0000)
  31 Sn     5.156230    2.948899   18.395000    ( 0.0000,  0.0000,  0.0000)
  32 Sn     3.421291    5.925850   10.000000    ( 0.0000,  0.0000,  0.0000)
  33 Sn     5.131937    6.913492   12.793473    ( 0.0000,  0.0000,  0.0000)
  34 Sn     3.405255    7.885993   15.660850    ( 0.0000,  0.0000,  0.0000)
  35 Sn     3.536800    5.991016   18.567099    ( 0.0000,  0.0000,  0.0000)
  36 C      1.705032    4.941450   19.015038    ( 0.0000,  0.0000,  0.0000)

Unit cell:
           periodic     x           y           z      points  spacing
  1. axis:    yes   10.263874    0.000000    0.000000    48     0.1852
  2. axis:    yes   -5.131937    8.888775    0.000000    48     0.1852
  3. axis:    no     0.000000    0.000000   28.380418   156     0.1819

  Lengths:  10.263874  10.263874  28.380418
  Angles:   90.000000  90.000000 120.000000

Effective grid spacing dv^(1/3) = 0.1931

     iter     time        total  log10-change:
                         energy  eigst   dens
iter:   1 05:15:30 -5900.011769  -2.07
iter:   2 05:15:54 -5900.005454  -2.95  -2.88
iter:   3 05:16:18 -5900.000111c -3.49  -2.86
iter:   4 05:16:42 -5899.994305c -3.50  -3.08
iter:   5 05:17:05 -5899.993328c -4.24  -3.36
iter:   6 05:17:29 -5899.992788c -4.30  -3.53
iter:   7 05:17:53 -5899.992870c -4.65  -3.70
iter:   8 05:18:17 -5899.992859c -5.50  -3.84
iter:   9 05:18:41 -5899.992877c -5.90  -3.96
iter:  10 05:19:05 -5899.992903c -6.21  -4.07c
iter:  11 05:19:28 -5899.992902c -6.42  -4.12c
iter:  12 05:19:52 -5899.992892c -6.74  -4.24c
iter:  13 05:20:16 -5899.992892c -6.75  -4.42c
iter:  14 05:20:40 -5899.992898c -7.35  -4.56c
iter:  15 05:21:04 -5899.992900c -7.22  -4.73c
iter:  16 05:21:28 -5899.992900c -8.04c -4.96c

Converged after 16 iterations.

Dipole moment: (1.523864, -17.463313, -0.080918) |e|*Ang

Energy contributions relative to reference atoms: (reference = -6049412.587171)

Kinetic:       +926.187009
Potential:     -884.393812
External:        +0.000000
XC:            -5939.211531
Entropy (-ST):   -0.711696
Local:           -2.218719
--------------------------
Free energy:   -5900.348748
Extrapolated:  -5899.992900

Showing only first 2 kpts
 Kpt  Band  Eigenvalues  Occupancy
  0   252     -4.83403    1.99291
  0   253     -4.81299    1.99125
  0   254     -4.62727    1.94526
  0   255     -4.56339    1.89879

  1   252     -4.74133    1.98217
  1   253     -4.62351    1.94322
  1   254     -4.58252    1.91567
  1   255     -4.42655    1.65369


Fermi level: -4.27021

No gap

Forces in eV/Ang:
  0 Sn   -0.04597    0.02654    0.10726
  1 Sn    0.00191   -0.04146   -0.18748
  2 Sn    0.02237   -0.01422    0.08754
  3 Sn   -0.04028    0.02326    0.03906
  4 Sn   -0.04627   -0.04598    0.15537
  5 Sn   -0.05364   -0.03081   -0.28466
  6 Sn    0.01019    0.04241    0.10026
  7 Sn    0.04234    0.02113    0.00421
  8 Sn   -0.01133   -0.04793    0.13246
  9 Sn   -0.04187    0.02417   -0.21014
 10 Sn    0.03280   -0.01894    0.02729
 11 Sn   -0.00519   -0.07163    0.04684
 12 Sn    0.03585    0.03378    0.13246
 13 Sn   -0.01856    0.00288   -0.20167
 14 Sn   -0.03164   -0.03194    0.08656
 15 Sn    0.05944    0.04031    0.04684
 16 Sn    0.00601   -0.03858    0.21160
 17 Sn    0.05605   -0.03236   -0.28150
 18 Sn    0.01286   -0.00742    0.26508
 19 Sn   -0.00644   -0.06689   -0.11625
 20 Sn   -0.02633    0.01520    0.22681
 21 Sn   -0.00014    0.06186   -0.28466
 22 Sn   -0.03163   -0.03003    0.10026
 23 Sn   -0.05820    0.03360   -0.12334
 24 Sn    0.01669    0.06306    0.15537
 25 Sn    0.00792   -0.00457   -0.19730
 26 Sn    0.00081   -0.00047   -0.01204
 27 Sn    0.00287   -0.04723    0.00421
 28 Sn    0.03723   -0.02149    0.16775
 29 Sn   -0.01178    0.01464   -0.20167
 30 Sn    0.01184    0.04337    0.08656
 31 Sn   -0.04903    0.02831   -0.01861
 32 Sn    0.03641    0.01409    0.21160
 33 Sn    0.03686    0.01907   -0.18748
 34 Sn    0.02351   -0.01226    0.08754
 35 Sn    0.05471    0.03902   -0.11625
 36 C    -0.00114    0.00066   -0.18921

BFGS:    8 05:21:36    -5899.992900        0.2655
System changes: positions 

Initializing position-dependent things.

Density initialized from wave functions
                                                  
                                                  
                                                  
                                                  
                                                  
           Sn      Sn C     Sn                    
                                                  
            SSn      Sn       Sn                  
                    Sn      Sn                    
              SSn      SSn     SSn                
                                                  
                 Sn      Sn      Sn               
               Sn       Sn      Sn                
                                                  
                  Sn      Sn      Sn              
                    Sn       Sn      Sn           
           Sn      Sn      Sn                     
                                                  
             Sn      Sn       Sn                  
               Sn       Sn      Sn                
                                                  
                                                  
                                                  
                                                  

Positions:
   0 Sn    -0.000000    0.000000   10.000000    ( 0.0000,  0.0000,  0.0000)
   1 Sn     1.710646    0.987642   12.793473    ( 0.0000,  0.0000,  0.0000)
   2 Sn     0.026644    2.001571   15.662871    ( 0.0000,  0.0000,  0.0000)
   3 Sn    -0.037773    0.021808   18.435934    ( 0.0000,  0.0000,  0.0000)
   4 Sn    -1.710646    2.962925   10.000000    ( 0.0000,  0.0000,  0.0000)
   5 Sn    -0.000000    3.950567   12.793473    ( 0.0000,  0.0000,  0.0000)
   6 Sn    -1.650755    4.914090   15.690081    ( 0.0000,  0.0000,  0.0000)
   7 Sn    -1.749852    2.948565   18.403109    ( 0.0000,  0.0000,  0.0000)
   8 Sn    -3.421291    5.925850   10.000000    ( 0.0000,  0.0000,  0.0000)
   9 Sn    -1.710646    6.913492   12.793473    ( 0.0000,  0.0000,  0.0000)
  10 Sn    -3.413287    7.896512   15.904877    ( 0.0000,  0.0000,  0.0000)
  11 Sn    -3.427661    5.857621   18.476706    ( 0.0000,  0.0000,  0.0000)
  12 Sn     3.421291    0.000000   10.000000    ( 0.0000,  0.0000,  0.0000)
  13 Sn     5.131937    0.987642   12.793473    ( 0.0000,  0.0000,  0.0000)
  14 Sn     3.417811    2.015386   15.665870    ( 0.0000,  0.0000,  0.0000)
  15 Sn     3.477195    0.039631   18.476706    ( 0.0000,  0.0000,  0.0000)
  16 Sn     1.710646    2.962925   10.000000    ( 0.0000,  0.0000,  0.0000)
  17 Sn     3.421291    3.950567   12.793473    ( 0.0000,  0.0000,  0.0000)
  18 Sn     1.736922    4.923038   15.562738    ( 0.0000,  0.0000,  0.0000)
  19 Sn     1.712479    2.800676   18.614105    ( 0.0000,  0.0000,  0.0000)
  20 Sn    -0.000000    5.925850   10.000000    ( 0.0000,  0.0000,  0.0000)
  21 Sn     1.710646    6.913492   12.793473    ( 0.0000,  0.0000,  0.0000)
  22 Sn     0.050832    7.861326   15.690081    ( 0.0000,  0.0000,  0.0000)
  23 Sn    -0.156869    6.016419   18.641819    ( 0.0000,  0.0000,  0.0000)
  24 Sn     6.842582    0.000000   10.000000    ( 0.0000,  0.0000,  0.0000)
  25 Sn     8.553228    0.987642   12.793473    ( 0.0000,  0.0000,  0.0000)
  26 Sn     6.854010    1.968685   15.713034    ( 0.0000,  0.0000,  0.0000)
  27 Sn     6.835416    0.041134   18.403109    ( 0.0000,  0.0000,  0.0000)
  28 Sn     5.131937    2.962925   10.000000    ( 0.0000,  0.0000,  0.0000)
[...]
  16 Sn     1.710646    2.962925   10.000000    ( 0.0000,  0.0000,  0.0000)
  17 Sn     3.421291    3.950567   12.793473    ( 0.0000,  0.0000,  0.0000)
  18 Sn     1.734342    4.924527   15.858429    ( 0.0000,  0.0000,  0.0000)
  19 Sn     1.699883    2.792222   18.638747    ( 0.0000,  0.0000,  0.0000)
  20 Sn    -0.000000    5.925850   10.000000    ( 0.0000,  0.0000,  0.0000)
  21 Sn     1.710646    6.913492   12.793473    ( 0.0000,  0.0000,  0.0000)
  22 Sn     0.050864    7.878924   15.806881    ( 0.0000,  0.0000,  0.0000)
  23 Sn    -0.156019    6.015928   18.605732    ( 0.0000,  0.0000,  0.0000)
  24 Sn     6.842582    0.000000   10.000000    ( 0.0000,  0.0000,  0.0000)
  25 Sn     8.553228    0.987642   12.793473    ( 0.0000,  0.0000,  0.0000)
  26 Sn     6.886185    1.950109   15.776814    ( 0.0000,  0.0000,  0.0000)
  27 Sn     6.861102    0.043910   18.493335    ( 0.0000,  0.0000,  0.0000)
  28 Sn     5.131937    2.962925   10.000000    ( 0.0000,  0.0000,  0.0000)
  29 Sn     6.842582    3.950567   12.793473    ( 0.0000,  0.0000,  0.0000)
  30 Sn     5.132361    4.921655   15.795234    ( 0.0000,  0.0000,  0.0000)
  31 Sn     5.156061    2.948997   18.471972    ( 0.0000,  0.0000,  0.0000)
  32 Sn     3.421291    5.925850   10.000000    ( 0.0000,  0.0000,  0.0000)
  33 Sn     5.131937    6.913492   12.793473    ( 0.0000,  0.0000,  0.0000)
  34 Sn     3.454598    7.868633   15.782279    ( 0.0000,  0.0000,  0.0000)
  35 Sn     3.563743    6.020523   18.638747    ( 0.0000,  0.0000,  0.0000)
  36 C      1.709501    4.938869   18.118360    ( 0.0000,  0.0000,  0.0000)

Unit cell:
           periodic     x           y           z      points  spacing
  1. axis:    yes   10.263874    0.000000    0.000000    48     0.1852
  2. axis:    yes   -5.131937    8.888775    0.000000    48     0.1852
  3. axis:    no     0.000000    0.000000   28.380418   156     0.1819

  Lengths:  10.263874  10.263874  28.380418
  Angles:   90.000000  90.000000 120.000000

Effective grid spacing dv^(1/3) = 0.1931

     iter     time        total  log10-change:
                         energy  eigst   dens
iter:   1 07:46:43 -5900.615807  -2.47
iter:   2 07:47:07 -5900.614502  -3.42  -3.03
iter:   3 07:47:31 -5900.612019c -4.05  -3.11
iter:   4 07:47:54 -5900.610208c -4.03  -3.29
iter:   5 07:48:18 -5900.609916c -4.63  -3.48
iter:   6 07:48:42 -5900.609877c -4.57  -3.64
iter:   7 07:49:05 -5900.609746c -5.40  -3.77
iter:   8 07:49:30 -5900.609675c -5.69  -3.94
iter:   9 07:49:53 -5900.609772c -5.94  -4.04c
iter:  10 07:50:17 -5900.609718c -6.44  -4.17c
iter:  11 07:50:41 -5900.609745c -7.07  -4.28c
iter:  12 07:51:04 -5900.609746c -6.78  -4.33c
iter:  13 07:51:28 -5900.609754c -7.41c -4.53c

Converged after 13 iterations.

Dipole moment: (5.862545, -19.947820, 0.014741) |e|*Ang

Energy contributions relative to reference atoms: (reference = -6049412.587171)

Kinetic:       +925.313570
Potential:     -884.014847
External:        +0.000000
XC:            -5939.360970
Entropy (-ST):   -0.665762
Local:           -2.214626
--------------------------
Free energy:   -5900.942634
Extrapolated:  -5900.609754

Showing only first 2 kpts
 Kpt  Band  Eigenvalues  Occupancy
  0   252     -4.75846    1.98977
  0   253     -4.69136    1.98009
  0   254     -4.58124    1.94128
  0   255     -4.48528    1.85363

  1   252     -4.59171    1.94696
  1   253     -4.55463    1.92406
  1   254     -4.54380    1.91574
  1   255     -4.38984    1.65962


Fermi level: -4.23141

No gap

Forces in eV/Ang:
  0 Sn   -0.03405    0.01966    0.13882
  1 Sn    0.00542   -0.02569   -0.12816
  2 Sn    0.01337   -0.00200    0.02056
  3 Sn    0.00631   -0.00364   -0.00541
  4 Sn   -0.01325   -0.01678    0.22700
  5 Sn   -0.00940   -0.00765   -0.26956
  6 Sn   -0.02043    0.00521   -0.01049
  7 Sn    0.01850    0.01020   -0.01305
  8 Sn   -0.00381   -0.03997    0.15841
  9 Sn   -0.03079    0.01778   -0.13750
 10 Sn    0.02470   -0.01426   -0.02328
 11 Sn   -0.00431    0.00380   -0.01800
 12 Sn    0.03271    0.02329    0.15841
 13 Sn   -0.05351   -0.01816   -0.19926
 14 Sn   -0.01942   -0.02042    0.01159
 15 Sn   -0.00545    0.00183   -0.01800
 16 Sn    0.00092   -0.00872    0.19134
 17 Sn    0.01878   -0.01084   -0.26995
 18 Sn    0.00746   -0.00430   -0.10245
 19 Sn   -0.01417   -0.02987    0.00791
 20 Sn    0.01036   -0.00598    0.21340
 21 Sn    0.00192    0.01196   -0.26956
 22 Sn   -0.01473    0.01509   -0.01049
 23 Sn   -0.03299    0.01905    0.01679
 24 Sn    0.00791    0.01987    0.22700
 25 Sn    0.03793   -0.02190   -0.21166
 26 Sn    0.01121   -0.00647    0.02277
 27 Sn    0.00042   -0.02112   -0.01305
 28 Sn    0.00001   -0.00001    0.22679
 29 Sn   -0.01103    0.05542   -0.19926
 30 Sn    0.00798    0.02703    0.01159
 31 Sn    0.00036   -0.00021    0.02550
 32 Sn    0.00801    0.00357    0.19134
 33 Sn    0.02495    0.00815   -0.12816
 34 Sn    0.00842   -0.01058    0.02056
 35 Sn    0.01878    0.02721    0.00791
 36 C     0.01298   -0.00749    0.05044

BFGS:   31 07:51:37    -5900.609754        0.1028
System changes: positions 

Initializing position-dependent things.

Density initialized from wave functions
                                                  
                                                  
                                                  
                                                  
                                                  
          Sn       Sn       Sn                    
                       C                          
            SSn     SSn     SnSn                  
                        Sn                        
              SSn      Sn      SSn                
                                                  
                 Sn      Sn      Sn               
               Sn       Sn      Sn                
                  Sn      Sn      Sn              
                                                  
                    Sn       Sn      Sn           
           Sn      Sn      Sn                     
                                                  
             Sn      Sn       Sn                  
               Sn       Sn      Sn                
                                                  
                                                  
                                                  
                                                  

Positions:
   0 Sn    -0.000000    0.000000   10.000000    ( 0.0000,  0.0000,  0.0000)
   1 Sn     1.710646    0.987642   12.793473    ( 0.0000,  0.0000,  0.0000)
   2 Sn     0.045975    1.962490   15.782202    ( 0.0000,  0.0000,  0.0000)
   3 Sn    -0.031731    0.018320   18.474108    ( 0.0000,  0.0000,  0.0000)
   4 Sn    -1.710646    2.962925   10.000000    ( 0.0000,  0.0000,  0.0000)
   5 Sn    -0.000000    3.950567   12.793473    ( 0.0000,  0.0000,  0.0000)
   6 Sn    -1.666394    4.905237   15.805119    ( 0.0000,  0.0000,  0.0000)
   7 Sn    -1.740588    2.923705   18.495897    ( 0.0000,  0.0000,  0.0000)
   8 Sn    -3.421291    5.925850   10.000000    ( 0.0000,  0.0000,  0.0000)
   9 Sn    -1.710646    6.913492   12.793473    ( 0.0000,  0.0000,  0.0000)
  10 Sn    -3.376970    7.875545   15.888031    ( 0.0000,  0.0000,  0.0000)
  11 Sn    -3.423081    5.834174   18.541893    ( 0.0000,  0.0000,  0.0000)
  12 Sn     3.421291    0.000000   10.000000    ( 0.0000,  0.0000,  0.0000)
  13 Sn     5.131937    0.987642   12.793473    ( 0.0000,  0.0000,  0.0000)
  14 Sn     3.434797    1.983256   15.795673    ( 0.0000,  0.0000,  0.0000)
  15 Sn     3.499790    0.047388   18.541893    ( 0.0000,  0.0000,  0.0000)
  16 Sn     1.710646    2.962925   10.000000    ( 0.0000,  0.0000,  0.0000)
  17 Sn     3.421291    3.950567   12.793473    ( 0.0000,  0.0000,  0.0000)
  18 Sn     1.734373    4.924509   15.855462    ( 0.0000,  0.0000,  0.0000)
  19 Sn     1.699588    2.790742   18.638245    ( 0.0000,  0.0000,  0.0000)
  20 Sn    -0.000000    5.925850   10.000000    ( 0.0000,  0.0000,  0.0000)
  21 Sn     1.710646    6.913492   12.793473    ( 0.0000,  0.0000,  0.0000)
  22 Sn     0.050680    7.879296   15.805119    ( 0.0000,  0.0000,  0.0000)
  23 Sn    -0.156645    6.016289   18.603712    ( 0.0000,  0.0000,  0.0000)
  24 Sn     6.842582    0.000000   10.000000    ( 0.0000,  0.0000,  0.0000)
  25 Sn     8.553228    0.987642   12.793473    ( 0.0000,  0.0000,  0.0000)
  26 Sn     6.887273    1.949481   15.777693    ( 0.0000,  0.0000,  0.0000)
  27 Sn     6.861577    0.045541   18.495897    ( 0.0000,  0.0000,  0.0000)
  28 Sn     5.131937    2.962925   10.000000    ( 0.0000,  0.0000,  0.0000)
  29 Sn     6.842582    3.950567   12.793473    ( 0.0000,  0.0000,  0.0000)
  30 Sn     5.131785    4.922526   15.795673    ( 0.0000,  0.0000,  0.0000)
  31 Sn     5.158141    2.947796   18.474276    ( 0.0000,  0.0000,  0.0000)
  32 Sn     3.421291    5.925850   10.000000    ( 0.0000,  0.0000,  0.0000)
  33 Sn     5.131937    6.913492   12.793473    ( 0.0000,  0.0000,  0.0000)
  34 Sn     3.455358    7.867715   15.782202    ( 0.0000,  0.0000,  0.0000)
  35 Sn     3.564878    6.021518   18.638245    ( 0.0000,  0.0000,  0.0000)
  36 C      1.710026    4.938566   18.120479    ( 0.0000,  0.0000,  0.0000)

Unit cell:
           periodic     x           y           z      points  spacing
  1. axis:    yes   10.263874    0.000000    0.000000    48     0.1852
  2. axis:    yes   -5.131937    8.888775    0.000000    48     0.1852
  3. axis:    no     0.000000    0.000000   28.380418   156     0.1819

  Lengths:  10.263874  10.263874  28.380418
  Angles:   90.000000  90.000000 120.000000

Effective grid spacing dv^(1/3) = 0.1931

     iter     time        total  log10-change:
                         energy  eigst   dens
iter:   1 07:52:18 -5900.611454  -3.72
iter:   2 07:52:42 -5900.610477  -4.63  -3.41
iter:   3 07:53:06 -5900.610179c -5.31  -3.50
iter:   4 07:53:29 -5900.610025c -5.31  -3.98
iter:   5 07:53:53 -5900.610039c -6.30  -4.25c
iter:   6 07:54:17 -5900.610028c -6.14  -4.32c
iter:   7 07:54:40 -5900.610027c -6.32  -4.55c
iter:   8 07:55:04 -5900.610037c -7.18  -4.61c
iter:   9 07:55:28 -5900.610039c -7.32  -4.76c
iter:  10 07:55:52 -5900.610033c -7.91c -4.85c

Converged after 10 iterations.

Dipole moment: (5.739491, -19.878912, 0.014820) |e|*Ang

Energy contributions relative to reference atoms: (reference = -6049412.587171)

Kinetic:       +924.937595
Potential:     -883.698630
External:        +0.000000
XC:            -5939.303475
Entropy (-ST):   -0.665973
Local:           -2.212537
--------------------------
Free energy:   -5900.943020
Extrapolated:  -5900.610033

Showing only first 2 kpts
 Kpt  Band  Eigenvalues  Occupancy
  0   252     -4.75868    1.98980
  0   253     -4.69073    1.97998
  0   254     -4.58136    1.94141
  0   255     -4.48516    1.85360

  1   252     -4.59181    1.94707
  1   253     -4.55431    1.92390
  1   254     -4.54447    1.91636
  1   255     -4.39023    1.66103


Fermi level: -4.23130

No gap

Forces in eV/Ang:
  0 Sn   -0.03526    0.02035    0.13500
  1 Sn    0.00506   -0.02405   -0.12497
  2 Sn    0.00370   -0.00740    0.02126
  3 Sn   -0.00499    0.00288   -0.00742
  4 Sn   -0.01402   -0.01800    0.22399
  5 Sn   -0.00934   -0.00808   -0.26722
  6 Sn   -0.02093    0.00335   -0.00327
  7 Sn    0.02732    0.01790   -0.01564
  8 Sn   -0.00408   -0.04118    0.15462
  9 Sn   -0.02997    0.01730   -0.13493
 10 Sn    0.02572   -0.01485   -0.01786
 11 Sn   -0.00196   -0.00645   -0.01811
 12 Sn    0.03362    0.02413    0.15462
 13 Sn   -0.05434   -0.01752   -0.19684
 14 Sn   -0.00794   -0.02233    0.01056
 15 Sn    0.00460    0.00492   -0.01811
 16 Sn    0.00130   -0.00890    0.18800
 17 Sn    0.01901   -0.01097   -0.26649
 18 Sn    0.00349   -0.00201   -0.03208
 19 Sn   -0.01136   -0.02075   -0.00016
 20 Sn    0.01056   -0.00610    0.21026
 21 Sn    0.00233    0.01213   -0.26722
 22 Sn   -0.01337    0.01645   -0.00327
 23 Sn   -0.03655    0.02110    0.00522
 24 Sn    0.00857    0.02114    0.22399
 25 Sn    0.03925   -0.02266   -0.21084
 26 Sn    0.00684   -0.00395    0.02389
 27 Sn   -0.00184   -0.03261   -0.01564
 28 Sn    0.00065   -0.00037    0.22241
 29 Sn   -0.01200    0.05582   -0.19684
 30 Sn    0.01537    0.01804    0.01056
 31 Sn   -0.00915    0.00528    0.02081
 32 Sn    0.00836    0.00333    0.18800
 33 Sn    0.02336    0.00765   -0.12497
 34 Sn    0.00826    0.00049    0.02126
 35 Sn    0.01229    0.02022   -0.00016
 36 C     0.02486   -0.01435   -0.00325

BFGS:   32 07:56:00    -5900.610033        0.0425
Timing:                                      incl.     excl.
-------------------------------------------------------------------
Density initialized from wave functions:     4.936     3.767   0.0% |
 Symmetrize density:                         1.169     1.169   0.0% |
Forces:                                    287.508   287.508   2.2% ||
Hamiltonian:                               105.439     0.004   0.0% |
 Atomic:                                     0.007     0.007   0.0% |
  XC Correction:                             0.000     0.000   0.0% |
 Calculate atomic Hamiltonians:              0.009     0.009   0.0% |
 Communicate:                                4.023     4.023   0.0% |
 Hartree integrate/restrict:                 0.112     0.112   0.0% |
 Initialize Hamiltonian:                     0.000     0.000   0.0% |
 Poisson:                                    2.383     0.076   0.0% |
  Communicate from 1D:                       0.408     0.408   0.0% |
  Communicate from 2D:                       0.353     0.353   0.0% |
  Communicate to 1D:                         0.340     0.340   0.0% |
  Communicate to 2D:                         0.451     0.451   0.0% |
  FFT 1D:                                    0.363     0.363   0.0% |
  FFT 2D:                                    0.391     0.391   0.0% |
 XC 3D grid:                                98.855     9.014   0.1% |
  VdW-DF integral:                          89.842     1.139   0.0% |
   Convolution:                             12.007    12.007   0.1% |
   FFT:                                      6.664     6.664   0.1% |
   gather:                                  24.073    24.073   0.2% |
   hmm1:                                     1.937     1.937   0.0% |
   hmm2:                                     4.048     4.048   0.0% |
   iFFT:                                     6.982     6.982   0.1% |
   potential:                               29.323     0.552   0.0% |
    collect:                                 2.750     2.750   0.0% |
    p1:                                     17.245    17.245   0.1% |
    p2:                                      6.157     6.157   0.0% |
    sum:                                     2.619     2.619   0.0% |
   splines:                                  3.668     3.668   0.0% |
 vbar:                                       0.047     0.047   0.0% |
LCAO initialization:                        12.380     0.688   0.0% |
 LCAO eigensolver:                           2.210     0.006   0.0% |
  Calculate projections:                     0.000     0.000   0.0% |
  DenseAtomicCorrection:                     0.000     0.000   0.0% |
  Distribute overlap matrix:                 1.095     1.095   0.0% |
  Orbital Layouts:                           1.076     1.076   0.0% |
  Potential matrix:                          0.002     0.002   0.0% |
  Sum over cells:                            0.032     0.032   0.0% |
 LCAO to grid:                               8.944     8.944   0.1% |
 Set positions (LCAO WFS):                   0.538     0.442   0.0% |
  Basic WFS set positions:                   0.002     0.002   0.0% |
  Basis functions set positions:             0.000     0.000   0.0% |
  P tci:                                     0.001     0.001   0.0% |
  ST tci:                                    0.064     0.064   0.0% |
  mktci:                                     0.030     0.030   0.0% |
Redistribute:                                0.020     0.020   0.0% |
SCF-cycle:                               12174.351     7.573   0.1% |
 Davidson:                               10549.677  2235.861  17.1% |------|
  Apply hamiltonian:                       356.129   356.129   2.7% ||
  Subspace diag:                          1487.817     0.177   0.0% |
   calc_h_matrix:                          737.213   383.648   2.9% ||
    Apply hamiltonian:                     353.564   353.564   2.7% ||
   diagonalize:                             35.099    35.099   0.3% |
   rotate_psi:                             715.329   715.329   5.5% |-|
  calc. matrices:                         4608.347  2599.597  19.9% |-------|
   Apply hamiltonian:                     2008.750  2008.750  15.4% |-----|
  diagonalize:                             443.239   443.239   3.4% ||
  rotate_psi:                             1418.284  1418.284  10.8% |---|
 Density:                                   42.263     0.009   0.0% |
  Atomic density matrices:                   1.600     1.600   0.0% |
  Mix:                                       2.428     2.428   0.0% |
  Multipole moments:                         0.069     0.069   0.0% |
  Pseudo density:                           38.156    20.603   0.2% |
   Symmetrize density:                      17.553    17.553   0.1% |
 Hamiltonian:                             1497.856     0.051   0.0% |
  Atomic:                                    0.097     0.095   0.0% |
   XC Correction:                            0.001     0.001   0.0% |
  Calculate atomic Hamiltonians:             0.128     0.128   0.0% |
  Communicate:                              58.378    58.378   0.4% |
  Hartree integrate/restrict:                1.667     1.667   0.0% |
  Poisson:                                  34.671     0.987   0.0% |
   Communicate from 1D:                      5.922     5.922   0.0% |
   Communicate from 2D:                      5.201     5.201   0.0% |
   Communicate to 1D:                        4.966     4.966   0.0% |
   Communicate to 2D:                        6.590     6.590   0.1% |
   FFT 1D:                                   5.284     5.284   0.0% |
   FFT 2D:                                   5.721     5.721   0.0% |
  XC 3D grid:                             1402.423   131.984   1.0% |
   VdW-DF integral:                       1270.439    17.525   0.1% |
    Convolution:                           181.129   181.129   1.4% ||
    FFT:                                    98.438    98.438   0.8% |
    gather:                                357.254   357.254   2.7% ||
    hmm1:                                   27.804    27.804   0.2% |
    hmm2:                                   59.019    59.019   0.5% |
    iFFT:                                  101.556   101.556   0.8% |
    potential:                             427.710     8.267   0.1% |
     collect:                               40.220    40.220   0.3% |
     p1:                                   253.769   253.769   1.9% ||
     p2:                                    89.985    89.985   0.7% |
     sum:                                   35.469    35.469   0.3% |
    splines:                                 0.003     0.003   0.0% |
  vbar:                                      0.441     0.441   0.0% |
 Orthonormalize:                            76.983     0.013   0.0% |
  calc_s_matrix:                            10.960    10.960   0.1% |
  inverse-cholesky:                         41.858    41.858   0.3% |
  projections:                               0.004     0.004   0.0% |
  rotate_psi_s:                             24.147    24.147   0.2% |
Set symmetry:                                0.001     0.001   0.0% |
Other:                                     491.074   491.074   3.8% |-|
-------------------------------------------------------------------
Total:                                             13075.711 100.0%

Memory usage: 1.48 GiB
Date: Thu Sep 28 07:56:00 2023
