
  ___ ___ ___ _ _ _  
 |   |   |_  | | | | 
 | | | | | . | | | | 
 |__ |  _|___|_____|  22.8.0
 |___|_|             

User:   s204775@c115.nifl.fysik.dtu.dk
Date:   Thu Sep 28 05:02:51 2023
Arch:   x86_64
Pid:    70376
CWD:    /home/cat/s204775/projects/Bachelor_project/C_missing_features
Python: 3.10.4
gpaw:   /home/modules/software/GPAW/22.8.0-intel-2022a/lib/python3.10/site-packages/gpaw
_gpaw:  /home/modules/software/GPAW/22.8.0-intel-2022a/lib/python3.10/site-packages/
        _gpaw.cpython-310-x86_64-linux-gnu.so
ase:    /home/modules/software/ASE/3.22.1-intel-2022a/lib/python3.10/site-packages/ase (version 3.22.1)
numpy:  /home/modules/software/SciPy-bundle/2022.05-intel-2022a/lib/python3.10/site-packages/numpy (version 1.22.3)
scipy:  /home/modules/software/SciPy-bundle/2022.05-intel-2022a/lib/python3.10/site-packages/scipy (version 1.8.1)
libxc:  5.2.3
units:  Angstrom and eV
cores: 40
OpenMP: False
OMP_NUM_THREADS: 1

Input parameters:
  basis: dzp
  h: 0.18
  kpts: {size: (4, 4, 1)}
  xc: BEEF-vdW

System changes: positions, numbers, cell, pbc, initial_charges, initial_magmoms 

Initialize ...

species:
  Ti:
    name: Titanium
    id: d282db07e62ae71292040bf25b25ccdd
    Z: 22.0
    valence: 12
    core: 10
    charge: 0.0
    file: /home/modules/software/GPAW-setups/0.9.20000/Ti.PBE.gz
    compensation charges: {type: gauss,
                           rc: 0.38,
                           lmax: 2}
    cutoffs: {filter: 2.23,
              core: 1.02}
    valence states:
      #              energy  rcut
      - 3s(2.00)   -62.623   1.270
      - 4s(2.00)    -4.466   1.270
      - 3p(6.00)   -38.862   1.058
      - 4p(0.00)    -1.466   1.058
      - 3d(2.00)    -4.258   1.058
      -  d          22.953   1.058
  
    # LCAO basis set for Ti:
    #   Name: dzp
    #   File: /home/modules/software/GPAW-setups/0.9.20000/Ti.dzp.basis.gz
    #   Number of radial functions: 11
    #   Number of spherical harmonics: 29
    #     l=0, rc=3.4375 Bohr: 3s-sz confined orbital
    #     l=0, rc=9.9062 Bohr: 4s-sz confined orbital
    #     l=1, rc=3.8906 Bohr: 3p-sz confined orbital
    #     l=1, rc=13.1094 Bohr: 4p-sz confined orbital
    #     l=2, rc=6.6250 Bohr: 3d-sz confined orbital
    #     l=0, rc=2.1406 Bohr: 3s-dz split-valence wave
    #     l=0, rc=6.0156 Bohr: 4s-dz split-valence wave
    #     l=1, rc=2.3125 Bohr: 3p-dz split-valence wave
    #     l=1, rc=8.1094 Bohr: 4p-dz split-valence wave
    #     l=2, rc=3.8594 Bohr: 3d-dz split-valence wave
    #     l=1, rc=9.9062 Bohr: p-type Gaussian polarization
    #   Number of RI-basis functions 0

  C:
    name: Carbon
    id: 4aa54d4b901d75f77cc0ea3eec22967b
    Z: 6.0
    valence: 4
    core: 2
    charge: 0.0
    file: /home/modules/software/GPAW-setups/0.9.20000/C.PBE.gz
    compensation charges: {type: gauss,
                           rc: 0.20,
                           lmax: 2}
    cutoffs: {filter: 1.14,
              core: 1.14}
    valence states:
      #              energy  rcut
      - 2s(2.00)   -13.751   0.635
      - 2p(2.00)    -5.284   0.635
      -  s          13.461   0.635
      -  p          21.927   0.635
      -  d           0.000   0.635
  
    # LCAO basis set for C:
    #   Name: dzp
    #   File: /home/modules/software/GPAW-setups/0.9.20000/C.dzp.basis.gz
    #   Number of radial functions: 5
    #   Number of spherical harmonics: 13
    #     l=0, rc=5.5469 Bohr: 2s-sz confined orbital
    #     l=1, rc=6.6719 Bohr: 2p-sz confined orbital
    #     l=0, rc=3.0312 Bohr: 2s-dz split-valence wave
    #     l=1, rc=3.7500 Bohr: 2p-dz split-valence wave
    #     l=2, rc=6.6719 Bohr: d-type Gaussian polarization
    #   Number of RI-basis functions 0

Reference energy: -837092.142256  # eV

Spin-paired calculation

Convergence criteria:
 Maximum [total energy] change in last 3 cyles: 0.0005 eV / electron
 Maximum integral of absolute [dens]ity change: 0.0001 electrons / valence electron
 Maximum integral of absolute [eigenst]ate change: 4e-08 eV^2 / valence electron
 Maximum number of scf [iter]ations: 333
 (Square brackets indicate name in SCF output, whereas a 'c' in
 the SCF output indicates the quantity has converged.)

Symmetries present (total): 1

  ( 1  0  0)
  ( 0  1  0)
  ( 0  0  1)

16 k-points: 4 x 4 x 1 Monkhorst-Pack grid
8 k-points in the irreducible part of the Brillouin zone
       k-points in crystal coordinates                weights
   0:     0.12500000   -0.37500000    0.00000000          2/16
   1:     0.12500000   -0.12500000    0.00000000          2/16
   2:     0.12500000    0.12500000    0.00000000          2/16
   3:     0.12500000    0.37500000    0.00000000          2/16
   4:     0.37500000   -0.37500000    0.00000000          2/16
   5:     0.37500000   -0.12500000    0.00000000          2/16
   6:     0.37500000    0.12500000    0.00000000          2/16
   7:     0.37500000    0.37500000    0.00000000          2/16

Wave functions: Uniform real-space grid
  Kinetic energy operator: 8*3+1=25 point O(h^6) finite-difference Laplacian
  ScaLapack parameters: grid=1x1, blocksize=None
  Wavefunction extrapolation:
    Improved wavefunction reuse through dual PAW basis 

Occupation numbers: Fermi-Dirac:
  width: 0.1000  # eV
 

Eigensolver
   Davidson(niter=2) 

Densities:
  Coarse grid: 40*40*152 grid
  Fine grid: 80*80*304 grid
  Total Charge: 0.000000 

Density mixing:
  Method: separate
  Backend: pulay
  Linear mixing parameter: 0.05
  old densities: 5
  Damping of long wavelength oscillations: 50 

Hamiltonian:
  XC and Coulomb potentials evaluated on a 80*80*304 grid
  Using the BEEF-vdW Exchange-Correlation functional
  Interpolation: tri-quintic (5. degree polynomial)
  Poisson solver: FastPoissonSolver using
    Stencil: 8*3+1=25 point O(h^6) finite-difference Laplacian
    FFT axes: [0, 1]
    FST axes: [2]
 

XC parameters: BEEF-vdW with 2 nearest neighbor stencil

Memory estimate:
  Process memory now: 213.74 MiB
  Calculator: 470.46 MiB
    Density: 50.48 MiB
      Arrays: 9.52 MiB
      Localized functions: 37.29 MiB
      Mixer: 3.66 MiB
    Hamiltonian: 9.03 MiB
      Arrays: 6.23 MiB
      XC: 0.00 MiB
      Poisson: 0.00 MiB
      vbar: 2.80 MiB
    Wavefunctions: 410.96 MiB
      Arrays psit_nG: 194.82 MiB
      Eigensolver: 209.29 MiB
      Projections: 0.54 MiB
      Projectors: 6.30 MiB

Total number of cores used: 40
Parallelization over k-points: 8
Domain decomposition: 1 x 1 x 5

Number of atoms: 37
Number of atomic orbitals: 1057
Number of bands in calculation: 266
Number of valence electrons: 436
Bands to converge: occupied

... initialized

Initializing position-dependent things.

Density initialized from atomic densities
Creating initial wave functions:
  266 bands from LCAO basis set

                                              
                                              
                                              
                                              
                                              
                     C                        
           Ti     Ti     Ti                   
                                              
            Ti     TTi    TTi                 
              Ti     TTi    TTi               
                                              
               TTi    TTi    TTi              
                                              
                 Ti     Ti     Ti             
                                              
           Ti     TTi    TTi     Ti           
                                              
            Ti      Ti     Ti                 
              Ti      Ti     Ti               
                                              
                                              
                                              
                                              

Positions:
   0 Ti     0.000000    0.000000   10.000000    ( 0.0000,  0.0000,  0.0000)
   1 Ti     1.450615    0.837513   12.368845    ( 0.0000,  0.0000,  0.0000)
   2 Ti    -0.000000    1.683540   14.802718    ( 0.0000,  0.0000,  0.0000)
   3 Ti    -0.000000   -0.000000   17.052536    ( 0.0000,  0.0000,  0.0000)
   4 Ti    -1.450615    2.512539   10.000000    ( 0.0000,  0.0000,  0.0000)
   5 Ti    -0.000000    3.350052   12.368845    ( 0.0000,  0.0000,  0.0000)
   6 Ti    -1.460491    4.181864   14.810195    ( 0.0000,  0.0000,  0.0000)
   7 Ti    -1.445663    2.504765   17.063618    ( 0.0000,  0.0000,  0.0000)
   8 Ti    -2.901231    5.025079   10.000000    ( 0.0000,  0.0000,  0.0000)
   9 Ti    -1.450615    5.862592   12.368845    ( 0.0000,  0.0000,  0.0000)
  10 Ti    -2.893857    6.695848   14.802718    ( 0.0000,  0.0000,  0.0000)
  11 Ti    -2.905487    5.033254   17.063618    ( 0.0000,  0.0000,  0.0000)
  12 Ti     2.901231    0.000000   10.000000    ( 0.0000,  0.0000,  0.0000)
  13 Ti     4.351846    0.837513   12.368845    ( 0.0000,  0.0000,  0.0000)
  14 Ti     2.888236    1.667524   14.807912    ( 0.0000,  0.0000,  0.0000)
  15 Ti     2.892022   -0.000402   17.063618    ( 0.0000,  0.0000,  0.0000)
  16 Ti     1.450615    2.512539   10.000000    ( 0.0000,  0.0000,  0.0000)
  17 Ti     2.901231    3.350052   12.368845    ( 0.0000,  0.0000,  0.0000)
  18 Ti     1.460491    4.181864   14.810195    ( 0.0000,  0.0000,  0.0000)
  19 Ti     1.445663    2.504765   17.063618    ( 0.0000,  0.0000,  0.0000)
  20 Ti    -0.000000    5.025079   10.000000    ( 0.0000,  0.0000,  0.0000)
  21 Ti     1.450615    5.862592   12.368845    ( 0.0000,  0.0000,  0.0000)
  22 Ti    -0.000000    6.711509   14.810195    ( 0.0000,  0.0000,  0.0000)
  23 Ti    -0.000000    5.025079   17.031043    ( 0.0000,  0.0000,  0.0000)
  24 Ti     5.802461    0.000000   10.000000    ( 0.0000,  0.0000,  0.0000)
  25 Ti     7.253076    0.837513   12.368845    ( 0.0000,  0.0000,  0.0000)
  26 Ti     5.815456    1.667524   14.807912    ( 0.0000,  0.0000,  0.0000)
  27 Ti     5.811670   -0.000402   17.063618    ( 0.0000,  0.0000,  0.0000)
  28 Ti     4.351846    2.512539   10.000000    ( 0.0000,  0.0000,  0.0000)
  29 Ti     5.802461    3.350052   12.368845    ( 0.0000,  0.0000,  0.0000)
  30 Ti     4.351846    4.202570   14.807912    ( 0.0000,  0.0000,  0.0000)
  31 Ti     4.351846    2.512539   17.027545    ( 0.0000,  0.0000,  0.0000)
  32 Ti     2.901231    5.025079   10.000000    ( 0.0000,  0.0000,  0.0000)
  33 Ti     4.351846    5.862592   12.368845    ( 0.0000,  0.0000,  0.0000)
  34 Ti     2.893857    6.695848   14.802718    ( 0.0000,  0.0000,  0.0000)
  35 Ti     2.905487    5.033254   17.063618    ( 0.0000,  0.0000,  0.0000)
  36 C      1.445663    4.182361   17.902416    ( 0.0000,  0.0000,  0.0000)

Unit cell:
           periodic     x           y           z      points  spacing
  1. axis:    yes    8.703692    0.000000    0.000000    40     0.1884
  2. axis:    yes   -4.351846    7.537618    0.000000    40     0.1884
  3. axis:    no     0.000000    0.000000   27.106534   152     0.1783

  Lengths:   8.703692   8.703692  27.106534
  Angles:   90.000000  90.000000 120.000000

Effective grid spacing dv^(1/3) = 0.1941

     iter     time        total  log10-change:
                         energy  eigst   dens
iter:   1 05:04:21 -1991.625339
iter:   2 05:04:49 -1992.839564  -0.03  -1.09
iter:   3 05:05:17 -1997.752176  -0.50  -1.11
iter:   4 05:05:45 -1982.706508  -0.99  -1.11
iter:   5 05:06:13 -1975.743146  -0.38  -1.21
iter:   6 05:06:40 -1972.981477  -0.21  -1.34
iter:   7 05:07:08 -1972.695655  -0.94  -1.59
iter:   8 05:07:36 -1972.196252  -1.23  -1.65
iter:   9 05:08:04 -1974.124580  -1.23  -1.72
iter:  10 05:08:32 -1977.977926  -1.26  -1.60
iter:  11 05:09:00 -1972.822239  -1.48  -1.38
iter:  12 05:09:27 -1972.909043  -1.77  -2.07
iter:  13 05:09:55 -1972.887942c -2.17  -2.15
iter:  14 05:10:23 -1972.554591  -1.93  -2.17
iter:  15 05:10:51 -1972.580036  -1.96  -2.35
iter:  16 05:11:19 -1972.698571c -2.36  -2.41
iter:  17 05:11:47 -1972.648689c -2.68  -2.23
iter:  18 05:12:14 -1972.633409c -2.85  -2.57
iter:  19 05:12:42 -1972.633264c -3.13  -2.55
iter:  20 05:13:10 -1972.629037c -2.69  -2.63
iter:  21 05:13:38 -1972.630690c -3.12  -2.85
iter:  22 05:14:06 -1972.619292c -3.30  -2.72
iter:  23 05:14:33 -1972.621119c -3.44  -3.07
iter:  24 05:15:01 -1972.619704c -3.63  -3.14
iter:  25 05:15:29 -1972.621520c -3.92  -3.19
iter:  26 05:15:57 -1972.621616c -3.92  -3.20
iter:  27 05:16:25 -1972.622325c -3.90  -3.25
iter:  28 05:16:52 -1972.622007c -4.04  -3.06
iter:  29 05:17:20 -1972.619857c -4.25  -3.30
iter:  30 05:17:48 -1972.620198c -4.41  -3.65
iter:  31 05:18:16 -1972.620035c -4.49  -3.68
iter:  32 05:18:44 -1972.621050c -4.53  -3.68
iter:  33 05:19:12 -1972.621081c -4.72  -3.92
iter:  34 05:19:39 -1972.620897c -4.84  -3.61
iter:  35 05:20:07 -1972.620685c -4.94  -4.04c
iter:  36 05:20:35 -1972.620580c -4.96  -4.14c
iter:  37 05:21:03 -1972.620894c -5.13  -4.10c
iter:  38 05:21:31 -1972.620963c -5.18  -4.11c
iter:  39 05:21:59 -1972.620864c -5.29  -4.40c
iter:  40 05:22:26 -1972.620833c -5.43  -4.49c
iter:  41 05:22:54 -1972.620860c -5.52  -4.59c
iter:  42 05:23:22 -1972.620825c -5.60  -4.60c
iter:  43 05:23:50 -1972.620878c -5.69  -4.80c
iter:  44 05:24:18 -1972.620862c -5.76  -4.82c
iter:  45 05:24:46 -1972.620866c -5.88  -4.91c
iter:  46 05:25:13 -1972.620847c -5.94  -4.92c
iter:  47 05:25:41 -1972.620824c -5.97  -5.01c
iter:  48 05:26:09 -1972.620831c -6.08  -4.98c
iter:  49 05:26:37 -1972.620844c -6.15  -5.20c
iter:  50 05:27:05 -1972.620830c -6.20  -5.28c
iter:  51 05:27:33 -1972.620844c -6.30  -5.32c
iter:  52 05:28:00 -1972.620847c -6.37  -5.43c
iter:  53 05:28:28 -1972.620850c -6.39  -5.43c
iter:  54 05:28:56 -1972.620849c -6.48  -5.15c
iter:  55 05:29:24 -1972.620844c -6.60  -5.54c
iter:  56 05:29:52 -1972.620847c -6.67  -5.52c
iter:  57 05:30:20 -1972.620845c -6.73  -5.53c
iter:  58 05:30:48 -1972.620843c -6.79  -5.72c
iter:  59 05:31:15 -1972.620842c -6.81  -5.81c
iter:  60 05:31:43 -1972.620845c -6.91  -5.60c
iter:  61 05:32:11 -1972.620844c -7.01  -6.09c
iter:  62 05:32:39 -1972.620846c -7.04  -6.12c
iter:  63 05:33:07 -1972.620845c -7.10  -6.19c
iter:  64 05:33:34 -1972.620845c -7.11  -6.30c
iter:  65 05:34:02 -1972.620846c -7.21  -6.37c
iter:  66 05:34:30 -1972.620845c -7.28  -6.36c
iter:  67 05:34:58 -1972.620845c -7.35  -6.38c
iter:  68 05:35:26 -1972.620845c -7.39  -6.37c
iter:  69 05:35:54 -1972.620845c -7.49c -6.28c

Converged after 69 iterations.

Dipole moment: (-4.817001, -8.077935, -0.066413) |e|*Ang

Energy contributions relative to reference atoms: (reference = -837092.142256)

Kinetic:       +645.845869
Potential:     -590.584588
External:        +0.000000
XC:            -2021.521105
Entropy (-ST):   -2.367210
Local:           -5.177416
--------------------------
Free energy:   -1973.804450
Extrapolated:  -1972.620845

Showing only first 2 kpts
 Kpt  Band  Eigenvalues  Occupancy
  0   216     -4.70958    1.16043
  0   217     -4.67321    0.97997
  0   218     -4.64536    0.84203
  0   219     -4.64229    0.82711

  1   216     -4.62731    0.75551
  1   217     -4.60050    0.63416
  1   218     -4.59103    0.59391
  1   219     -4.58415    0.56557


Fermi level: -4.67722

No gap

Forces in eV/Ang:
  0 Ti   -0.00099    0.00058    0.47630
  1 Ti    0.03903    0.02750   -0.32002
  2 Ti   -0.13879   -0.06921   -0.10917
  3 Ti    0.03732   -0.03134    0.06764
  4 Ti    0.01363   -0.03110    0.34967
  5 Ti    0.07683   -0.08532   -0.35443
  6 Ti   -0.15973   -0.09743   -0.11469
  7 Ti   -0.36894   -0.20649   -0.01334
  8 Ti   -0.01515    0.02497    0.35752
  9 Ti   -0.11079    0.06379   -0.39943
 10 Ti    0.00222   -0.00267   -0.00776
 11 Ti    0.00057    0.06646    0.05595
 12 Ti   -0.02916    0.00067    0.35751
 13 Ti   -0.00166   -0.09753   -0.30262
 14 Ti    0.14758   -0.07631   -0.11347
 15 Ti   -0.05184   -0.04027    0.05538
 16 Ti   -0.01526   -0.02734    0.34104
 17 Ti   -0.16604    0.09593   -0.27429
 18 Ti    0.01625   -0.00555   -0.67973
 19 Ti    0.02178   -2.16135   -0.18140
 20 Ti    0.00215   -0.00107    0.32021
 21 Ti    0.11239   -0.02429   -0.35381
 22 Ti    0.00429    0.18713   -0.11475
 23 Ti   -1.70960    0.99342   -0.11656
 24 Ti    0.03375    0.00366    0.34951
 25 Ti   -0.04300    0.02514   -0.30437
 26 Ti    0.00714   -0.00507   -0.11857
 27 Ti   -0.00123    0.42643   -0.01455
 28 Ti    0.00454   -0.00261    0.32746
 29 Ti    0.08388    0.05041   -0.30325
 30 Ti    0.13661   -0.08656   -0.11155
 31 Ti    0.35648   -0.20083    0.00424
 32 Ti    0.01612    0.02707    0.34097
 33 Ti   -0.00459   -0.04788   -0.32052
 34 Ti   -0.00829    0.15035   -0.10682
 35 Ti    1.75224    0.99322   -0.11065
 36 C    -0.02675    0.15303    1.70575

      Step     Time          Energy         fmax
BFGS:    0 05:36:08    -1972.620845        2.1691
System changes: positions 

Initializing position-dependent things.

Density initialized from wave functions
                                              
                                              
                                              
                                              
                                              
                     C                        
           Ti     Ti     Ti                   
                                              
            Ti     TTi    TTi                 
              Ti     TTi    TTi               
                                              
               TTi    TTi    TTi              
                                              
                 Ti     Ti     Ti             
                                              
           Ti     TTi    TTi     Ti           
                                              
            Ti      Ti     Ti                 
              Ti      Ti     Ti               
                                              
                                              
                                              
                                              

Positions:
   0 Ti     0.000000    0.000000   10.000000    ( 0.0000,  0.0000,  0.0000)
   1 Ti     1.450615    0.837513   12.368845    ( 0.0000,  0.0000,  0.0000)
   2 Ti    -0.001983    1.682552   14.801158    ( 0.0000,  0.0000,  0.0000)
   3 Ti     0.000533   -0.000448   17.053502    ( 0.0000,  0.0000,  0.0000)
   4 Ti    -1.450615    2.512539   10.000000    ( 0.0000,  0.0000,  0.0000)
   5 Ti    -0.000000    3.350052   12.368845    ( 0.0000,  0.0000,  0.0000)
   6 Ti    -1.462773    4.180472   14.808557    ( 0.0000,  0.0000,  0.0000)
   7 Ti    -1.450934    2.501816   17.063427    ( 0.0000,  0.0000,  0.0000)
   8 Ti    -2.901231    5.025079   10.000000    ( 0.0000,  0.0000,  0.0000)
   9 Ti    -1.450615    5.862592   12.368845    ( 0.0000,  0.0000,  0.0000)
  10 Ti    -2.893825    6.695810   14.802607    ( 0.0000,  0.0000,  0.0000)
  11 Ti    -2.905479    5.034204   17.064417    ( 0.0000,  0.0000,  0.0000)
  12 Ti     2.901231    0.000000   10.000000    ( 0.0000,  0.0000,  0.0000)
  13 Ti     4.351846    0.837513   12.368845    ( 0.0000,  0.0000,  0.0000)
  14 Ti     2.890344    1.666434   14.806291    ( 0.0000,  0.0000,  0.0000)
  15 Ti     2.891281   -0.000977   17.064409    ( 0.0000,  0.0000,  0.0000)
  16 Ti     1.450615    2.512539   10.000000    ( 0.0000,  0.0000,  0.0000)
  17 Ti     2.901231    3.350052   12.368845    ( 0.0000,  0.0000,  0.0000)
  18 Ti     1.460723    4.181785   14.800485    ( 0.0000,  0.0000,  0.0000)
  19 Ti     1.445974    2.473889   17.061027    ( 0.0000,  0.0000,  0.0000)
  20 Ti    -0.000000    5.025079   10.000000    ( 0.0000,  0.0000,  0.0000)
  21 Ti     1.450615    5.862592   12.368845    ( 0.0000,  0.0000,  0.0000)
  22 Ti     0.000061    6.714182   14.808556    ( 0.0000,  0.0000,  0.0000)
  23 Ti    -0.024423    5.039270   17.029378    ( 0.0000,  0.0000,  0.0000)
  24 Ti     5.802461    0.000000   10.000000    ( 0.0000,  0.0000,  0.0000)
  25 Ti     7.253076    0.837513   12.368845    ( 0.0000,  0.0000,  0.0000)
  26 Ti     5.815558    1.667451   14.806218    ( 0.0000,  0.0000,  0.0000)
  27 Ti     5.811652    0.005690   17.063410    ( 0.0000,  0.0000,  0.0000)
  28 Ti     4.351846    2.512539   10.000000    ( 0.0000,  0.0000,  0.0000)
  29 Ti     5.802461    3.350052   12.368845    ( 0.0000,  0.0000,  0.0000)
  30 Ti     4.353797    4.201334   14.806319    ( 0.0000,  0.0000,  0.0000)
  31 Ti     4.356938    2.509670   17.027606    ( 0.0000,  0.0000,  0.0000)
  32 Ti     2.901231    5.025079   10.000000    ( 0.0000,  0.0000,  0.0000)
  33 Ti     4.351846    5.862592   12.368845    ( 0.0000,  0.0000,  0.0000)
  34 Ti     2.893739    6.697996   14.801192    ( 0.0000,  0.0000,  0.0000)
  35 Ti     2.930519    5.047443   17.062037    ( 0.0000,  0.0000,  0.0000)
  36 C      1.445281    4.184547   17.926784    ( 0.0000,  0.0000,  0.0000)

Unit cell:
           periodic     x           y           z      points  spacing
  1. axis:    yes    8.703692    0.000000    0.000000    40     0.1884
  2. axis:    yes   -4.351846    7.537618    0.000000    40     0.1884
  3. axis:    no     0.000000    0.000000   27.106534   152     0.1783

  Lengths:   8.703692   8.703692  27.106534
  Angles:   90.000000  90.000000 120.000000

Effective grid spacing dv^(1/3) = 0.1941

     iter     time        total  log10-change:
                         energy  eigst   dens
iter:   1 05:37:27 -1973.764642  -1.35
iter:   2 05:37:55 -1992.807939  -0.90  -1.85
iter:   3 05:38:23 -1972.996393  -1.77  -1.16
iter:   4 05:38:52 -1972.857853  -2.15  -2.20
iter:   5 05:39:20 -1972.833488c -2.52  -2.46
iter:   6 05:39:48 -1972.818228c -2.72  -2.76
iter:   7 05:40:17 -1972.802785c -2.49  -2.80
iter:   8 05:40:45 -1972.804611c -2.73  -3.01
iter:   9 05:41:14 -1972.806140c -3.09  -3.17
iter:  10 05:41:42 -1972.809491c -3.60  -3.41
iter:  11 05:42:10 -1972.807705c -3.67  -3.23
iter:  12 05:42:39 -1972.810708c -3.79  -3.27
iter:  13 05:43:07 -1972.810658c -4.15  -3.41
iter:  14 05:43:35 -1972.808377c -3.47  -3.12
iter:  15 05:44:04 -1972.808495c -4.20  -3.58
iter:  16 05:44:32 -1972.808728c -4.29  -3.74
iter:  17 05:45:00 -1972.808477c -4.63  -3.80
iter:  18 05:45:29 -1972.808095c -4.65  -3.85
iter:  19 05:45:57 -1972.808555c -4.79  -3.97
iter:  20 05:46:26 -1972.808913c -5.25  -3.90
iter:  21 05:46:54 -1972.808309c -5.07  -3.48
iter:  22 05:47:22 -1972.808447c -5.34  -4.07c
iter:  23 05:47:51 -1972.808438c -5.31  -4.10c
iter:  24 05:48:19 -1972.808381c -5.32  -4.26c
iter:  25 05:48:47 -1972.808510c -5.63  -4.27c
iter:  26 05:49:16 -1972.808570c -5.78  -4.53c
iter:  27 05:49:44 -1972.808535c -5.84  -4.53c
iter:  28 05:50:13 -1972.808510c -6.01  -4.31c
iter:  29 05:50:41 -1972.808537c -6.17  -4.61c
iter:  30 05:51:09 -1972.808493c -6.24  -4.75c
iter:  31 05:51:38 -1972.808542c -6.35  -4.80c
iter:  32 05:52:06 -1972.808519c -6.48  -4.87c
iter:  33 05:52:34 -1972.808520c -6.61  -5.07c
iter:  34 05:53:03 -1972.808519c -6.62  -4.90c
iter:  35 05:53:31 -1972.808532c -6.80  -5.01c
iter:  36 05:53:59 -1972.808531c -6.89  -5.19c
iter:  37 05:54:28 -1972.808522c -6.91  -5.26c
iter:  38 05:54:56 -1972.808535c -7.04  -5.50c
iter:  39 05:55:24 -1972.808533c -7.13  -5.46c
iter:  40 05:55:53 -1972.808534c -7.20  -5.64c
iter:  41 05:56:21 -1972.808532c -7.26  -5.68c
iter:  42 05:56:49 -1972.808532c -7.37  -5.54c
iter:  43 05:57:18 -1972.808534c -7.47c -5.69c

Converged after 43 iterations.

Dipole moment: (-4.532940, -8.229052, -0.079215) |e|*Ang

Energy contributions relative to reference atoms: (reference = -837092.142256)

Kinetic:       +641.527981
Potential:     -587.326869
External:        +0.000000
XC:            -2020.658622
Entropy (-ST):   -2.362755
Local:           -5.169647
--------------------------
Free energy:   -1973.989912
Extrapolated:  -1972.808534

Showing only first 2 kpts
 Kpt  Band  Eigenvalues  Occupancy
  0   216     -4.71982    1.16126
  0   217     -4.68328    0.97998
  0   218     -4.65529    0.84138
  0   219     -4.65172    0.82401

  1   216     -4.63319    0.73591
  1   217     -4.61157    0.63855
  1   218     -4.60282    0.60113
  1   219     -4.59666    0.57553


Fermi level: -4.68729

No gap

Forces in eV/Ang:
  0 Ti   -0.00138    0.00083    0.47708
  1 Ti    0.03921    0.02648   -0.32157
  2 Ti   -0.14493   -0.06222   -0.11734
  3 Ti    0.04782   -0.03762    0.07702
  4 Ti    0.01237   -0.03189    0.34631
  5 Ti    0.07747   -0.08501   -0.35670
  6 Ti   -0.13343   -0.08621   -0.12668
  7 Ti   -0.30431   -0.17152   -0.01746
  8 Ti   -0.01516    0.02466    0.35825
  9 Ti   -0.11212    0.06459   -0.40114
 10 Ti    0.00123   -0.00084   -0.00441
 11 Ti    0.00445    0.07035    0.06737
 12 Ti   -0.02889    0.00085    0.35826
 13 Ti   -0.00177   -0.09771   -0.31123
 14 Ti    0.14288   -0.08518   -0.13235
 15 Ti   -0.05420   -0.04507    0.06766
 16 Ti   -0.01529   -0.02721    0.33870
 17 Ti   -0.16584    0.09589   -0.27696
 18 Ti    0.00617   -0.00300   -0.48490
 19 Ti    0.14415   -1.11689    0.15046
 20 Ti    0.00222   -0.00118    0.31821
 21 Ti    0.11249   -0.02467   -0.35607
 22 Ti    0.00813    0.15836   -0.12720
 23 Ti   -1.05515    0.60959    0.15867
 24 Ti    0.03380    0.00523    0.34622
 25 Ti   -0.04265    0.02473   -0.31250
 26 Ti    0.00526   -0.00364   -0.13328
 27 Ti   -0.00213    0.35395   -0.01812
 28 Ti    0.00578   -0.00332    0.32410
 29 Ti    0.08382    0.05049   -0.31124
 30 Ti    0.14144   -0.07830   -0.12830
 31 Ti    0.32021   -0.18266   -0.00009
 32 Ti    0.01600    0.02697    0.33871
 33 Ti   -0.00359   -0.04749   -0.32174
 34 Ti   -0.01761    0.15144   -0.11371
 35 Ti    0.98470    0.41469    0.17364
 36 C     0.00005    0.05994    0.78258

BFGS:    1 05:57:32    -1972.808534        1.2289
System changes: positions 

Initializing position-dependent things.

Density initialized from wave functions
                                              
                                              
                                              
                                              
                                              
                     C                        
           Ti     Ti     Ti                   
                                              
            Ti     TTi    TTi                 
              Ti     TTi    TTi               
                                              
               TTi    TTi    TTi              
                                              
                 Ti     Ti     Ti             
                                              
           Ti     TTi    TTi     Ti           
                                              
            Ti      Ti     Ti                 
              Ti      Ti     Ti               
                                              
                                              
                                              
                                              

Positions:
   0 Ti     0.000000    0.000000   10.000000    ( 0.0000,  0.0000,  0.0000)
   1 Ti     1.450615    0.837513   12.368845    ( 0.0000,  0.0000,  0.0000)
   2 Ti    -0.006808    1.680465   14.797257    ( 0.0000,  0.0000,  0.0000)
   3 Ti     0.002112   -0.001693   17.056057    ( 0.0000,  0.0000,  0.0000)
   4 Ti    -1.450615    2.512539   10.000000    ( 0.0000,  0.0000,  0.0000)
   5 Ti    -0.000000    3.350052   12.368845    ( 0.0000,  0.0000,  0.0000)
   6 Ti    -1.467265    4.177578   14.804350    ( 0.0000,  0.0000,  0.0000)
   7 Ti    -1.461186    2.496039   17.062852    ( 0.0000,  0.0000,  0.0000)
   8 Ti    -2.901231    5.025079   10.000000    ( 0.0000,  0.0000,  0.0000)
   9 Ti    -1.450615    5.862592   12.368845    ( 0.0000,  0.0000,  0.0000)
  10 Ti    -2.893783    6.695779   14.802455    ( 0.0000,  0.0000,  0.0000)
  11 Ti    -2.905336    5.036545   17.066647    ( 0.0000,  0.0000,  0.0000)
  12 Ti     2.901231    0.000000   10.000000    ( 0.0000,  0.0000,  0.0000)
  13 Ti     4.351846    0.837513   12.368845    ( 0.0000,  0.0000,  0.0000)
  14 Ti     2.895118    1.663606   14.801906    ( 0.0000,  0.0000,  0.0000)
  15 Ti     2.889477   -0.002473   17.066647    ( 0.0000,  0.0000,  0.0000)
  16 Ti     1.450615    2.512539   10.000000    ( 0.0000,  0.0000,  0.0000)
  17 Ti     2.901231    3.350052   12.368845    ( 0.0000,  0.0000,  0.0000)
  18 Ti     1.460945    4.181681   14.784004    ( 0.0000,  0.0000,  0.0000)
  19 Ti     1.450591    2.434994   17.065525    ( 0.0000,  0.0000,  0.0000)
  20 Ti    -0.000000    5.025079   10.000000    ( 0.0000,  0.0000,  0.0000)
  21 Ti     1.450615    5.862592   12.368845    ( 0.0000,  0.0000,  0.0000)
  22 Ti     0.000326    6.719509   14.804332    ( 0.0000,  0.0000,  0.0000)
  23 Ti    -0.060647    5.060207   17.034239    ( 0.0000,  0.0000,  0.0000)
  24 Ti     5.802461    0.000000   10.000000    ( 0.0000,  0.0000,  0.0000)
  25 Ti     7.253076    0.837513   12.368845    ( 0.0000,  0.0000,  0.0000)
  26 Ti     5.815736    1.667328   14.801795    ( 0.0000,  0.0000,  0.0000)
  27 Ti     5.811582    0.017611   17.062811    ( 0.0000,  0.0000,  0.0000)
  28 Ti     4.351846    2.512539   10.000000    ( 0.0000,  0.0000,  0.0000)
  29 Ti     5.802461    3.350052   12.368845    ( 0.0000,  0.0000,  0.0000)
  30 Ti     4.358508    4.198709   14.802065    ( 0.0000,  0.0000,  0.0000)
  31 Ti     4.367677    2.503549   17.027610    ( 0.0000,  0.0000,  0.0000)
  32 Ti     2.901231    5.025079   10.000000    ( 0.0000,  0.0000,  0.0000)
  33 Ti     4.351846    5.862592   12.368845    ( 0.0000,  0.0000,  0.0000)
  34 Ti     2.893166    6.703046   14.797409    ( 0.0000,  0.0000,  0.0000)
  35 Ti     2.964570    5.062184   17.067384    ( 0.0000,  0.0000,  0.0000)
  36 C      1.445240    4.186693   17.954337    ( 0.0000,  0.0000,  0.0000)

Unit cell:
           periodic     x           y           z      points  spacing
  1. axis:    yes    8.703692    0.000000    0.000000    40     0.1884
  2. axis:    yes   -4.351846    7.537618    0.000000    40     0.1884
  3. axis:    no     0.000000    0.000000   27.106534   152     0.1783

  Lengths:   8.703692   8.703692  27.106534
  Angles:   90.000000  90.000000 120.000000

Effective grid spacing dv^(1/3) = 0.1941

     iter     time        total  log10-change:
                         energy  eigst   dens
iter:   1 05:58:49 -1974.996369  -1.06
iter:   2 05:59:18 -2016.124974  -0.47  -1.67
iter:   3 05:59:46 -1973.355004  -1.45  -1.02
iter:   4 06:00:14 -1972.980997  -1.78  -1.98
iter:   5 06:00:43 -1972.979739  -2.13  -2.54
iter:   6 06:01:11 -1972.957590c -2.45  -2.51
iter:   7 06:01:39 -1972.930050c -2.30  -2.54
iter:   8 06:02:08 -1972.926487c -2.43  -2.82
iter:   9 06:02:36 -1972.928709c -2.73  -2.99
iter:  10 06:03:05 -1972.931913c -3.17  -3.25
iter:  11 06:03:33 -1972.933557c -3.30  -3.17
iter:  12 06:04:01 -1972.935686c -3.45  -3.24
iter:  13 06:04:30 -1972.934640c -3.84  -3.25
iter:  14 06:04:58 -1972.934916c -2.93  -3.02
iter:  15 06:05:27 -1972.932961c -3.86  -3.19
iter:  16 06:05:55 -1972.933942c -3.44  -3.52
iter:  17 06:06:23 -1972.933421c -4.30  -3.27
iter:  18 06:06:52 -1972.932875c -4.07  -3.58
iter:  19 06:07:20 -1972.933218c -4.49  -3.65
iter:  20 06:07:48 -1972.932600c -4.64  -3.77
iter:  21 06:08:17 -1972.932841c -4.72  -3.67
iter:  22 06:08:45 -1972.932943c -5.02  -3.93
iter:  23 06:09:14 -1972.932880c -5.03  -3.93
iter:  24 06:09:42 -1972.932961c -5.23  -3.99
iter:  25 06:10:10 -1972.933105c -5.08  -3.99
iter:  26 06:10:39 -1972.933164c -5.32  -4.30c
iter:  27 06:11:07 -1972.933033c -5.51  -4.36c
iter:  28 06:11:35 -1972.933173c -5.69  -4.40c
iter:  29 06:12:04 -1972.933089c -5.66  -4.41c
iter:  30 06:12:32 -1972.933069c -5.92  -4.56c
iter:  31 06:13:00 -1972.933072c -5.93  -4.53c
iter:  32 06:13:29 -1972.933069c -6.08  -4.43c
iter:  33 06:13:57 -1972.933098c -6.16  -4.67c
iter:  34 06:14:26 -1972.933090c -6.33  -5.01c
iter:  35 06:14:54 -1972.933118c -6.35  -5.05c
iter:  36 06:15:22 -1972.933093c -6.48  -4.90c
iter:  37 06:15:51 -1972.933102c -6.53  -5.04c
iter:  38 06:16:19 -1972.933104c -6.67  -4.69c
iter:  39 06:16:48 -1972.933107c -6.77  -5.18c
iter:  40 06:17:16 -1972.933106c -6.82  -5.25c
iter:  41 06:17:44 -1972.933117c -6.92  -5.45c
iter:  42 06:18:13 -1972.933108c -7.02  -5.35c
iter:  43 06:18:41 -1972.933109c -7.02  -5.50c
iter:  44 06:19:10 -1972.933110c -7.21  -5.56c
iter:  45 06:19:38 -1972.933110c -7.23  -5.54c
iter:  46 06:20:06 -1972.933108c -7.27  -5.73c
iter:  47 06:20:35 -1972.933110c -7.37  -5.97c
iter:  48 06:21:03 -1972.933108c -7.41c -6.09c

Converged after 48 iterations.

Dipole moment: (-4.046074, -8.474588, -0.095776) |e|*Ang

Energy contributions relative to reference atoms: (reference = -837092.142256)

Kinetic:       +636.602620
Potential:     -583.525068
External:        +0.000000
XC:            -2019.665733
Entropy (-ST):   -2.356631
Local:           -5.166611
--------------------------
Free energy:   -1974.111424
Extrapolated:  -1972.933108

Showing only first 2 kpts
 Kpt  Band  Eigenvalues  Occupancy
  0   216     -4.73227    1.15818
  0   217     -4.69637    0.98004
  0   218     -4.67118    0.85510
  0   219     -4.66115    0.80641

  1   216     -4.64385    0.72472
  1   217     -4.63007    0.66231
  1   218     -4.61836    0.61150
  1   219     -4.60939    0.57412


Fermi level: -4.70037

No gap

Forces in eV/Ang:
  0 Ti   -0.00180    0.00109    0.47679
  1 Ti    0.03900    0.02653   -0.32347
  2 Ti   -0.13050   -0.04279   -0.09328
  3 Ti    0.06228   -0.04651    0.08188
  4 Ti    0.01042   -0.03319    0.33896
  5 Ti    0.07732   -0.08508   -0.36100
  6 Ti   -0.06605   -0.04835   -0.12889
  7 Ti   -0.18003   -0.10827   -0.02605
  8 Ti   -0.01516    0.02455    0.35816
  9 Ti   -0.11308    0.06525   -0.40341
 10 Ti    0.00008    0.00115   -0.00463
 11 Ti    0.00662    0.05860    0.08012
 12 Ti   -0.02879    0.00091    0.35816
 13 Ti   -0.00071   -0.09746   -0.32649
 14 Ti    0.11444   -0.09721   -0.14114
 15 Ti   -0.04483   -0.04025    0.08099
 16 Ti   -0.01548   -0.02772    0.33540
 17 Ti   -0.16360    0.09468   -0.28141
 18 Ti    0.00774   -0.00725   -0.19606
 19 Ti    0.13389   -0.32429    0.37331
 20 Ti    0.00174   -0.00096    0.31517
 21 Ti    0.11251   -0.02425   -0.36038
 22 Ti    0.00978    0.08050   -0.12971
 23 Ti   -0.17127    0.09589    0.41061
 24 Ti    0.03397    0.00762    0.33891
 25 Ti   -0.04313    0.02480   -0.32508
 26 Ti    0.00124   -0.00089   -0.16843
 27 Ti    0.00256    0.21559   -0.02596
 28 Ti    0.00778   -0.00446    0.31735
 29 Ti    0.08394    0.04927   -0.32582
 30 Ti    0.13710   -0.04866   -0.13521
 31 Ti    0.26361   -0.15298   -0.00464
 32 Ti    0.01634    0.02733    0.33551
 33 Ti   -0.00370   -0.04729   -0.32324
 34 Ti   -0.02774    0.12927   -0.08997
 35 Ti    0.35737    0.02829    0.36221
 36 C    -0.05989    0.04636   -0.14945

BFGS:    2 06:21:18    -1972.933108        0.5123
System changes: positions 

Initializing position-dependent things.

Density initialized from wave functions
                                              
                                              
                                              
                                              
                                              
                     C                        
           Ti     Ti     Ti                   
                                              
            Ti     TTi    TTi                 
              Ti     TTi    TTi               
                                              
               TTi    TTi    TTi              
                                              
                 Ti     Ti     Ti             
                                              
           Ti     TTi    TTi     Ti           
                                              
            Ti      Ti     Ti                 
              Ti      Ti     Ti               
                                              
                                              
                                              
                                              

Positions:
   0 Ti     0.000000    0.000000   10.000000    ( 0.0000,  0.0000,  0.0000)
   1 Ti     1.450615    0.837513   12.368845    ( 0.0000,  0.0000,  0.0000)
   2 Ti    -0.010986    1.678922   14.794132    ( 0.0000,  0.0000,  0.0000)
   3 Ti     0.003865   -0.003025   17.058520    ( 0.0000,  0.0000,  0.0000)
   4 Ti    -1.450615    2.512539   10.000000    ( 0.0000,  0.0000,  0.0000)
   5 Ti    -0.000000    3.350052   12.368845    ( 0.0000,  0.0000,  0.0000)
   6 Ti    -1.470074    4.175660   14.800409    ( 0.0000,  0.0000,  0.0000)
   7 Ti    -1.468197    2.491952   17.062145    ( 0.0000,  0.0000,  0.0000)
   8 Ti    -2.901231    5.025079   10.000000    ( 0.0000,  0.0000,  0.0000)
   9 Ti    -1.450615    5.862592   12.368845    ( 0.0000,  0.0000,  0.0000)
  10 Ti    -2.893766    6.695790   14.802308    ( 0.0000,  0.0000,  0.0000)
  11 Ti    -2.905162    5.038475   17.068968    ( 0.0000,  0.0000,  0.0000)
  12 Ti     2.901231    0.000000   10.000000    ( 0.0000,  0.0000,  0.0000)
  13 Ti     4.351846    0.837513   12.368845    ( 0.0000,  0.0000,  0.0000)
  14 Ti     2.898969    1.660744   14.797669    ( 0.0000,  0.0000,  0.0000)
  15 Ti     2.887996   -0.003760   17.068987    ( 0.0000,  0.0000,  0.0000)
  16 Ti     1.450615    2.512539   10.000000    ( 0.0000,  0.0000,  0.0000)
  17 Ti     2.901231    3.350052   12.368845    ( 0.0000,  0.0000,  0.0000)
  18 Ti     1.461187    4.181497   14.774502    ( 0.0000,  0.0000,  0.0000)
  19 Ti     1.454608    2.414560   17.074075    ( 0.0000,  0.0000,  0.0000)
  20 Ti    -0.000000    5.025079   10.000000    ( 0.0000,  0.0000,  0.0000)
  21 Ti     1.450615    5.862592   12.368845    ( 0.0000,  0.0000,  0.0000)
  22 Ti     0.000604    6.722881   14.800370    ( 0.0000,  0.0000,  0.0000)
  23 Ti    -0.076572    5.069356   17.043743    ( 0.0000,  0.0000,  0.0000)
  24 Ti     5.802461    0.000000   10.000000    ( 0.0000,  0.0000,  0.0000)
  25 Ti     7.253076    0.837513   12.368845    ( 0.0000,  0.0000,  0.0000)
  26 Ti     5.815820    1.667268   14.796986    ( 0.0000,  0.0000,  0.0000)
  27 Ti     5.811613    0.025886   17.062098    ( 0.0000,  0.0000,  0.0000)
  28 Ti     4.351846    2.512539   10.000000    ( 0.0000,  0.0000,  0.0000)
  29 Ti     5.802461    3.350052   12.368845    ( 0.0000,  0.0000,  0.0000)
  30 Ti     4.362786    4.196874   14.797988    ( 0.0000,  0.0000,  0.0000)
  31 Ti     4.376501    2.498467   17.027523    ( 0.0000,  0.0000,  0.0000)
  32 Ti     2.901231    5.025079   10.000000    ( 0.0000,  0.0000,  0.0000)
  33 Ti     4.351846    5.862592   12.368845    ( 0.0000,  0.0000,  0.0000)
  34 Ti     2.892433    6.707278   14.794388    ( 0.0000,  0.0000,  0.0000)
  35 Ti     2.983746    5.068263   17.076045    ( 0.0000,  0.0000,  0.0000)
  36 C      1.443972    4.188449   17.961364    ( 0.0000,  0.0000,  0.0000)

Unit cell:
           periodic     x           y           z      points  spacing
  1. axis:    yes    8.703692    0.000000    0.000000    40     0.1884
  2. axis:    yes   -4.351846    7.537618    0.000000    40     0.1884
  3. axis:    no     0.000000    0.000000   27.106534   152     0.1783

  Lengths:   8.703692   8.703692  27.106534
  Angles:   90.000000  90.000000 120.000000

Effective grid spacing dv^(1/3) = 0.1941

     iter     time        total  log10-change:
                         energy  eigst   dens
iter:   1 06:22:35 -1973.563364  -1.63
iter:   2 06:23:03 -1987.863264  -1.03  -1.92
iter:   3 06:23:31 -1973.046074  -1.96  -1.22
iter:   4 06:24:00 -1972.975102  -2.28  -2.32
iter:   5 06:24:28 -1972.971737c -2.67  -2.62
iter:   6 06:24:56 -1972.965447c -2.98  -2.83
iter:   7 06:25:24 -1972.961663c -2.93  -3.08
iter:   8 06:25:53 -1972.961718c -3.08  -3.21
iter:   9 06:26:21 -1972.962163c -3.38  -3.31
iter:  10 06:26:49 -1972.962828c -3.77  -3.50
iter:  11 06:27:18 -1972.962586c -3.94  -3.56
iter:  12 06:27:46 -1972.963808c -3.99  -3.53
iter:  13 06:28:14 -1972.963480c -4.40  -3.52
iter:  14 06:28:43 -1972.963289c -3.85  -3.41
iter:  15 06:29:11 -1972.963137c -4.39  -3.45
iter:  16 06:29:39 -1972.962941c -4.42  -3.75
iter:  17 06:30:08 -1972.963138c -4.54  -3.44
iter:  18 06:30:36 -1972.963152c -5.05  -3.94
iter:  19 06:31:04 -1972.963156c -5.15  -3.95
iter:  20 06:31:33 -1972.963365c -4.97  -3.98
iter:  21 06:32:01 -1972.963161c -5.28  -4.00c
iter:  22 06:32:29 -1972.963216c -5.55  -4.23c
iter:  23 06:32:58 -1972.963219c -5.30  -4.24c
iter:  24 06:33:26 -1972.963332c -5.89  -4.29c
iter:  25 06:33:54 -1972.963183c -5.77  -4.02c
iter:  26 06:34:23 -1972.963180c -5.76  -4.21c
iter:  27 06:34:51 -1972.963270c -5.97  -4.45c
iter:  28 06:35:19 -1972.963235c -5.66  -4.35c
iter:  29 06:35:47 -1972.963230c -6.22  -4.40c
iter:  30 06:36:16 -1972.963314c -6.21  -4.49c
iter:  31 06:36:44 -1972.963245c -6.37  -4.30c
iter:  32 06:37:12 -1972.963252c -6.11  -4.65c
iter:  33 06:37:41 -1972.963256c -6.67  -4.73c
iter:  34 06:38:09 -1972.963255c -6.39  -4.96c
iter:  35 06:38:37 -1972.963266c -6.80  -5.06c
iter:  36 06:39:06 -1972.963254c -6.90  -5.14c
iter:  37 06:39:34 -1972.963245c -7.04  -5.09c
iter:  38 06:40:02 -1972.963255c -7.19  -5.04c
iter:  39 06:40:31 -1972.963251c -7.11  -5.29c
iter:  40 06:40:59 -1972.963253c -7.36  -5.38c
iter:  41 06:41:27 -1972.963253c -7.46c -5.41c

Converged after 41 iterations.

Dipole moment: (-3.762559, -8.604357, -0.103098) |e|*Ang

Energy contributions relative to reference atoms: (reference = -837092.142256)

Kinetic:       +634.469282
Potential:     -581.846812
External:        +0.000000
XC:            -2019.243604
Entropy (-ST):   -2.353287
Local:           -5.165476
--------------------------
Free energy:   -1974.139897
Extrapolated:  -1972.963253

Showing only first 2 kpts
 Kpt  Band  Eigenvalues  Occupancy
  0   216     -4.73710    1.15349
  0   217     -4.70222    0.98029
  0   218     -4.67828    0.86153
  0   219     -4.66502    0.79717

  1   216     -4.65047    0.72855
  1   217     -4.63993    0.68044
  1   218     -4.62450    0.61299
  1   219     -4.61423    0.57019


Fermi level: -4.70616

No gap

Forces in eV/Ang:
  0 Ti   -0.00178    0.00106    0.47547
  1 Ti    0.03844    0.02737   -0.32471
  2 Ti   -0.10714   -0.02805   -0.06192
  3 Ti    0.07164   -0.05262    0.07806
  4 Ti    0.00938   -0.03394    0.33333
  5 Ti    0.07690   -0.08499   -0.36249
  6 Ti   -0.01263   -0.01414   -0.11217
  7 Ti   -0.10560   -0.08028   -0.03759
  8 Ti   -0.01523    0.02485    0.35687
  9 Ti   -0.11345    0.06556   -0.40420
 10 Ti   -0.00212    0.00292   -0.00901
 11 Ti    0.01423    0.04103    0.08145
 12 Ti   -0.02908    0.00082    0.35684
 13 Ti    0.00055   -0.09755   -0.33658
 14 Ti    0.08402   -0.09811   -0.12807
 15 Ti   -0.02779   -0.03696    0.08229
 16 Ti   -0.01560   -0.02856    0.33398
 17 Ti   -0.16165    0.09357   -0.28380
 18 Ti    0.02157   -0.01654   -0.01908
 19 Ti   -0.00084    0.05454    0.39047
 20 Ti    0.00111   -0.00060    0.31381
 21 Ti    0.11226   -0.02393   -0.36189
 22 Ti    0.00725    0.01711   -0.11306
 23 Ti    0.20451   -0.12097    0.46814
 24 Ti    0.03411    0.00889    0.33325
 25 Ti   -0.04358    0.02492   -0.33367
 26 Ti   -0.00256    0.00154   -0.19431
 27 Ti    0.01515    0.13621   -0.03751
 28 Ti    0.00877   -0.00501    0.31206
 29 Ti    0.08453    0.04811   -0.33563
 30 Ti    0.12369   -0.02309   -0.12282
 31 Ti    0.21038   -0.12369   -0.01672
 32 Ti    0.01700    0.02785    0.33410
 33 Ti   -0.00466   -0.04716   -0.32427
 34 Ti   -0.02935    0.10189   -0.05924
 35 Ti    0.00370   -0.03214    0.36565
 36 C    -0.02335    0.00685   -0.45547

BFGS:    3 06:41:42    -1972.963253        0.5250
System changes: positions 

Initializing position-dependent things.

Density initialized from wave functions
                                              
                                              
                                              
                                              
                                              
                     C                        
           Ti     Ti     Ti                   
                                              
            Ti     TTi    TTi                 
              Ti     TTi    TTi               
                                              
               Ti     TTi    TTi              
                                              
                 Ti     Ti     Ti             
                                              
           Ti     TTi    TTi     Ti           
                                              
            Ti      Ti     Ti                 
              Ti      Ti     Ti               
                                              
                                              
                                              
                                              

Positions:
   0 Ti     0.000000    0.000000   10.000000    ( 0.0000,  0.0000,  0.0000)
   1 Ti     1.450615    0.837513   12.368845    ( 0.0000,  0.0000,  0.0000)
   2 Ti    -0.015286    1.677539   14.791278    ( 0.0000,  0.0000,  0.0000)
   3 Ti     0.006183   -0.004754   17.061337    ( 0.0000,  0.0000,  0.0000)
   4 Ti    -1.450615    2.512539   10.000000    ( 0.0000,  0.0000,  0.0000)
   5 Ti    -0.000000    3.350052   12.368845    ( 0.0000,  0.0000,  0.0000)
   6 Ti    -1.471858    4.174348   14.796154    ( 0.0000,  0.0000,  0.0000)
   7 Ti    -1.474122    2.488127   17.061033    ( 0.0000,  0.0000,  0.0000)
   8 Ti    -2.901231    5.025079   10.000000    ( 0.0000,  0.0000,  0.0000)
   9 Ti    -1.450615    5.862592   12.368845    ( 0.0000,  0.0000,  0.0000)
  10 Ti    -2.893799    6.695850   14.802044    ( 0.0000,  0.0000,  0.0000)
  11 Ti    -2.904789    5.040292   17.071771    ( 0.0000,  0.0000,  0.0000)
  12 Ti     2.901231    0.000000   10.000000    ( 0.0000,  0.0000,  0.0000)
  13 Ti     4.351846    0.837513   12.368845    ( 0.0000,  0.0000,  0.0000)
  14 Ti     2.902662    1.657323   14.792957    ( 0.0000,  0.0000,  0.0000)
  15 Ti     2.886676   -0.005164   17.071815    ( 0.0000,  0.0000,  0.0000)
  16 Ti     1.450615    2.512539   10.000000    ( 0.0000,  0.0000,  0.0000)
  17 Ti     2.901231    3.350052   12.368845    ( 0.0000,  0.0000,  0.0000)
  18 Ti     1.461765    4.181065   14.768728    ( 0.0000,  0.0000,  0.0000)
  19 Ti     1.456428    2.403057   17.085635    ( 0.0000,  0.0000,  0.0000)
  20 Ti    -0.000000    5.025079   10.000000    ( 0.0000,  0.0000,  0.0000)
  21 Ti     1.450615    5.862592   12.368845    ( 0.0000,  0.0000,  0.0000)
  22 Ti     0.000884    6.725054   14.796088    ( 0.0000,  0.0000,  0.0000)
  23 Ti    -0.082371    5.072635   17.057415    ( 0.0000,  0.0000,  0.0000)
  24 Ti     5.802461    0.000000   10.000000    ( 0.0000,  0.0000,  0.0000)
  25 Ti     7.253076    0.837513   12.368845    ( 0.0000,  0.0000,  0.0000)
  26 Ti     5.815818    1.667265   14.790650    ( 0.0000,  0.0000,  0.0000)
  27 Ti     5.811937    0.033102   17.060984    ( 0.0000,  0.0000,  0.0000)
  28 Ti     4.351846    2.512539   10.000000    ( 0.0000,  0.0000,  0.0000)
  29 Ti     5.802461    3.350052   12.368845    ( 0.0000,  0.0000,  0.0000)
  30 Ti     4.367466    4.195433   14.793458    ( 0.0000,  0.0000,  0.0000)
  31 Ti     4.385357    2.493322   17.027145    ( 0.0000,  0.0000,  0.0000)
  32 Ti     2.901231    5.025079   10.000000    ( 0.0000,  0.0000,  0.0000)
  33 Ti     4.351846    5.862592   12.368845    ( 0.0000,  0.0000,  0.0000)
  34 Ti     2.891489    6.711514   14.791639    ( 0.0000,  0.0000,  0.0000)
  35 Ti     2.995227    5.071931   17.087258    ( 0.0000,  0.0000,  0.0000)
  36 C      1.442920    4.189597   17.957983    ( 0.0000,  0.0000,  0.0000)

Unit cell:
           periodic     x           y           z      points  spacing
  1. axis:    yes    8.703692    0.000000    0.000000    40     0.1884
  2. axis:    yes   -4.351846    7.537618    0.000000    40     0.1884
  3. axis:    no     0.000000    0.000000   27.106534   152     0.1783

  Lengths:   8.703692   8.703692  27.106534
  Angles:   90.000000  90.000000 120.000000

Effective grid spacing dv^(1/3) = 0.1941

     iter     time        total  log10-change:
                         energy  eigst   dens
iter:   1 06:42:59 -1973.278144  -1.94
iter:   2 06:43:28 -1980.994858  -1.32  -2.06
iter:   3 06:43:56 -1973.010079  -2.26  -1.34
iter:   4 06:44:24 -1972.989319  -2.56  -2.53
iter:   5 06:44:53 -1972.988471c -2.99  -2.72
iter:   6 06:45:21 -1972.986031c -3.29  -2.98
iter:   7 06:45:49 -1972.985389c -3.37  -3.23
iter:   8 06:46:18 -1972.985742c -3.53  -3.40
iter:   9 06:46:46 -1972.985670c -3.77  -3.48
iter:  10 06:47:15 -1972.985678c -4.11  -3.53
iter:  11 06:47:43 -1972.985161c -4.31  -3.72
iter:  12 06:48:11 -1972.985462c -4.46  -3.75
iter:  13 06:48:40 -1972.985167c -4.65  -3.81
iter:  14 06:49:08 -1972.985374c -4.62  -3.79
iter:  15 06:49:36 -1972.985372c -4.95  -3.76
iter:  16 06:50:05 -1972.985443c -4.98  -4.07c
iter:  17 06:50:33 -1972.985505c -5.20  -4.15c
iter:  18 06:51:02 -1972.985657c -5.22  -4.28c
iter:  19 06:51:30 -1972.985541c -5.39  -4.27c
iter:  20 06:51:58 -1972.985624c -5.61  -4.28c
iter:  21 06:52:27 -1972.985610c -5.73  -4.50c
iter:  22 06:52:55 -1972.985556c -5.89  -4.54c
iter:  23 06:53:23 -1972.985557c -5.90  -4.47c
iter:  24 06:53:52 -1972.985558c -6.12  -4.73c
iter:  25 06:54:20 -1972.985632c -6.18  -4.76c
iter:  26 06:54:48 -1972.985591c -6.34  -5.00c
iter:  27 06:55:17 -1972.985607c -6.45  -5.04c
iter:  28 06:55:45 -1972.985595c -6.57  -5.08c
iter:  29 06:56:14 -1972.985615c -6.59  -5.02c
iter:  30 06:56:42 -1972.985611c -6.75  -4.69c
iter:  31 06:57:10 -1972.985610c -6.86  -5.14c
iter:  32 06:57:39 -1972.985602c -6.97  -5.32c
iter:  33 06:58:07 -1972.985609c -7.04  -5.32c
iter:  34 06:58:35 -1972.985598c -7.15  -5.35c
iter:  35 06:59:04 -1972.985596c -7.22  -5.42c
iter:  36 06:59:32 -1972.985595c -7.34  -5.55c
iter:  37 07:00:00 -1972.985601c -7.42c -5.55c

Converged after 37 iterations.

Dipole moment: (-3.563782, -8.681911, -0.105589) |e|*Ang

Energy contributions relative to reference atoms: (reference = -837092.142256)

Kinetic:       +633.399756
Potential:     -580.999620
External:        +0.000000
XC:            -2019.044140
Entropy (-ST):   -2.351426
Local:           -5.165884
--------------------------
Free energy:   -1974.161314
Extrapolated:  -1972.985601

Showing only first 2 kpts
 Kpt  Band  Eigenvalues  Occupancy
  0   216     -4.73802    1.14772
  0   217     -4.70423    0.97986
  0   218     -4.68083    0.86370
  0   219     -4.66613    0.79238

  1   216     -4.65360    0.73328
  1   217     -4.64458    0.69193
  1   218     -4.62629    0.61167
  1   219     -4.61572    0.56773


Fermi level: -4.70826

No gap

Forces in eV/Ang:
  0 Ti   -0.00152    0.00088    0.47303
  1 Ti    0.03774    0.02848   -0.32572
  2 Ti   -0.07843   -0.01691   -0.02692
  3 Ti    0.08074   -0.05772    0.06550
  4 Ti    0.00888   -0.03450    0.32787
  5 Ti    0.07674   -0.08433   -0.36161
  6 Ti    0.03119    0.01600   -0.08185
  7 Ti   -0.05295   -0.06194   -0.05067
  8 Ti   -0.01544    0.02543    0.35427
  9 Ti   -0.11402    0.06597   -0.40402
 10 Ti   -0.00385    0.00385   -0.01565
 11 Ti    0.02665    0.02113    0.07415
 12 Ti   -0.02969    0.00070    0.35416
 13 Ti    0.00166   -0.09829   -0.34550
 14 Ti    0.05327   -0.08520   -0.10001
 15 Ti   -0.00698   -0.03573    0.07458
 16 Ti   -0.01569   -0.02972    0.33298
 17 Ti   -0.15954    0.09231   -0.28439
 18 Ti    0.02738   -0.01994    0.08360
 19 Ti   -0.04359    0.20600    0.34309
 20 Ti    0.00040   -0.00016    0.31301
 21 Ti    0.11163   -0.02427   -0.36110
 22 Ti    0.00320   -0.03556   -0.08256
 23 Ti    0.24532   -0.14364    0.40279
 24 Ti    0.03437    0.00958    0.32771
 25 Ti   -0.04364    0.02481   -0.34222
 26 Ti   -0.00864    0.00518   -0.21511
 27 Ti    0.02644    0.07862   -0.05087
 28 Ti    0.00914   -0.00521    0.30658
 29 Ti    0.08565    0.04744   -0.34449
 30 Ti    0.09934   -0.00347   -0.09729
 31 Ti    0.14983   -0.08905   -0.03059
 32 Ti    0.01794    0.02854    0.33310
 33 Ti   -0.00588   -0.04699   -0.32518
 34 Ti   -0.02547    0.07188   -0.02526
 35 Ti   -0.14947   -0.05548    0.32119
 36 C     0.03576   -0.03153   -0.49205

BFGS:    4 07:00:15    -1972.985601        0.4943
System changes: positions 

Initializing position-dependent things.

Density initialized from wave functions
                                              
                                              
                                              
                                              
                                              
                     C                        
           Ti     Ti     Ti                   
                                              
            Ti     TTi    TTi                 
              Ti     TTi    TTi               
                                              
               Ti     TTi    TTi              
                                              
                 Ti     Ti     Ti             
                                              
           Ti     TTi    TTi     Ti           
                                              
            Ti      Ti     Ti                 
              Ti      Ti     Ti               
                                              
                                              
                                              
                                              

Positions:
   0 Ti     0.000000    0.000000   10.000000    ( 0.0000,  0.0000,  0.0000)
   1 Ti     1.450615    0.837513   12.368845    ( 0.0000,  0.0000,  0.0000)
   2 Ti    -0.024934    1.674653   14.785694    ( 0.0000,  0.0000,  0.0000)
   3 Ti     0.012629   -0.009479   17.068067    ( 0.0000,  0.0000,  0.0000)
   4 Ti    -1.450615    2.512539   10.000000    ( 0.0000,  0.0000,  0.0000)
   5 Ti    -0.000000    3.350052   12.368845    ( 0.0000,  0.0000,  0.0000)
   6 Ti    -1.473935    4.172630   14.786540    ( 0.0000,  0.0000,  0.0000)
   7 Ti    -1.485960    2.479631   17.057543    ( 0.0000,  0.0000,  0.0000)
   8 Ti    -2.901231    5.025079   10.000000    ( 0.0000,  0.0000,  0.0000)
   9 Ti    -1.450615    5.862592   12.368845    ( 0.0000,  0.0000,  0.0000)
  10 Ti    -2.893973    6.696067   14.801078    ( 0.0000,  0.0000,  0.0000)
  11 Ti    -2.903279    5.043978   17.078753    ( 0.0000,  0.0000,  0.0000)
  12 Ti     2.901231    0.000000   10.000000    ( 0.0000,  0.0000,  0.0000)
  13 Ti     4.351846    0.837513   12.368845    ( 0.0000,  0.0000,  0.0000)
  14 Ti     2.910541    1.648989   14.782017    ( 0.0000,  0.0000,  0.0000)
  15 Ti     2.884284   -0.008662   17.078848    ( 0.0000,  0.0000,  0.0000)
  16 Ti     1.450615    2.512539   10.000000    ( 0.0000,  0.0000,  0.0000)
  17 Ti     2.901231    3.350052   12.368845    ( 0.0000,  0.0000,  0.0000)
  18 Ti     1.463570    4.179742   14.760960    ( 0.0000,  0.0000,  0.0000)
  19 Ti     1.458520    2.387220   17.114968    ( 0.0000,  0.0000,  0.0000)
  20 Ti    -0.000000    5.025079   10.000000    ( 0.0000,  0.0000,  0.0000)
  21 Ti     1.450615    5.862592   12.368845    ( 0.0000,  0.0000,  0.0000)
  22 Ti     0.001437    6.727652   14.786407    ( 0.0000,  0.0000,  0.0000)
  23 Ti    -0.087558    5.075464   17.091870    ( 0.0000,  0.0000,  0.0000)
  24 Ti     5.802461    0.000000   10.000000    ( 0.0000,  0.0000,  0.0000)
  25 Ti     7.253076    0.837513   12.368845    ( 0.0000,  0.0000,  0.0000)
  26 Ti     5.815521    1.667433   14.773214    ( 0.0000,  0.0000,  0.0000)
  27 Ti     5.813322    0.047932   17.057480    ( 0.0000,  0.0000,  0.0000)
  28 Ti     4.351846    2.512539   10.000000    ( 0.0000,  0.0000,  0.0000)
  29 Ti     5.802461    3.350052   12.368845    ( 0.0000,  0.0000,  0.0000)
  30 Ti     4.378382    4.192864   14.782892    ( 0.0000,  0.0000,  0.0000)
  31 Ti     4.404952    2.481886   17.025524    ( 0.0000,  0.0000,  0.0000)
  32 Ti     2.901231    5.025079   10.000000    ( 0.0000,  0.0000,  0.0000)
  33 Ti     4.351846    5.862592   12.368845    ( 0.0000,  0.0000,  0.0000)
  34 Ti     2.889149    6.720870   14.786280    ( 0.0000,  0.0000,  0.0000)
  35 Ti     3.012214    5.077447   17.115502    ( 0.0000,  0.0000,  0.0000)
  36 C      1.442430    4.190658   17.939881    ( 0.0000,  0.0000,  0.0000)

Unit cell:
           periodic     x           y           z      points  spacing
  1. axis:    yes    8.703692    0.000000    0.000000    40     0.1884
  2. axis:    yes   -4.351846    7.537618    0.000000    40     0.1884
  3. axis:    no     0.000000    0.000000   27.106534   152     0.1783

  Lengths:   8.703692   8.703692  27.106534
  Angles:   90.000000  90.000000 120.000000

Effective grid spacing dv^(1/3) = 0.1941

     iter     time        total  log10-change:
                         energy  eigst   dens
iter:   1 07:01:32 -1974.144738  -1.31
iter:   2 07:02:01 -2001.285135  -0.67  -1.76
iter:   3 07:02:29 -1973.123816  -1.67  -1.10
iter:   4 07:02:58 -1973.046701  -2.00  -2.17
iter:   5 07:03:26 -1973.029669c -2.36  -2.46
iter:   6 07:03:54 -1973.025317c -2.72  -2.59
iter:   7 07:04:23 -1973.019581c -2.77  -2.83
iter:   8 07:04:51 -1973.017208c -2.91  -2.90
iter:   9 07:05:20 -1973.017262c -3.16  -3.14
iter:  10 07:05:48 -1973.016363c -3.50  -3.27
iter:  11 07:06:16 -1973.016317c -3.66  -3.41
iter:  12 07:06:45 -1973.015364c -3.85  -3.45
iter:  13 07:07:13 -1973.016359c -4.08  -3.49
iter:  14 07:07:42 -1973.016270c -4.08  -3.40
iter:  15 07:08:10 -1973.016530c -4.31  -3.63
iter:  16 07:08:38 -1973.017315c -4.29  -3.66
iter:  17 07:09:07 -1973.017434c -4.46  -3.77
iter:  18 07:09:35 -1973.017574c -4.63  -3.86
iter:  19 07:10:04 -1973.017169c -4.76  -3.90
iter:  20 07:10:32 -1973.016991c -5.01  -3.82
iter:  21 07:11:00 -1973.016977c -5.06  -4.08c
iter:  22 07:11:29 -1973.017020c -5.26  -4.12c
iter:  23 07:11:57 -1973.017128c -5.34  -4.27c
iter:  24 07:12:26 -1973.017114c -5.44  -4.40c
iter:  25 07:12:54 -1973.017205c -5.57  -4.43c
iter:  26 07:13:22 -1973.017227c -5.67  -4.55c
iter:  27 07:13:51 -1973.017213c -5.87  -4.49c
iter:  28 07:14:19 -1973.017242c -5.91  -4.12c
iter:  29 07:14:47 -1973.017206c -6.04  -4.86c
iter:  30 07:15:16 -1973.017201c -6.14  -4.97c
iter:  31 07:15:44 -1973.017190c -6.28  -5.00c
iter:  32 07:16:12 -1973.017200c -6.38  -5.01c
iter:  33 07:16:41 -1973.017197c -6.48  -5.11c
iter:  34 07:17:09 -1973.017196c -6.51  -5.12c
iter:  35 07:17:37 -1973.017193c -6.65  -5.28c
iter:  36 07:18:06 -1973.017192c -6.67  -5.17c
iter:  37 07:18:34 -1973.017195c -6.80  -5.37c
iter:  38 07:19:03 -1973.017190c -6.88  -5.40c
iter:  39 07:19:31 -1973.017195c -6.96  -5.42c
iter:  40 07:19:59 -1973.017197c -7.05  -5.53c
iter:  41 07:20:28 -1973.017198c -7.14  -5.61c
iter:  42 07:20:56 -1973.017198c -7.24  -5.61c
iter:  43 07:21:24 -1973.017197c -7.34  -5.68c
iter:  44 07:21:53 -1973.017199c -7.37  -5.73c
iter:  45 07:22:21 -1973.017194c -7.46c -5.86c

Converged after 45 iterations.

Dipole moment: (-3.247596, -8.770265, -0.105836) |e|*Ang

Energy contributions relative to reference atoms: (reference = -837092.142256)

Kinetic:       +632.132642
Potential:     -579.972954
External:        +0.000000
XC:            -2018.834818
Entropy (-ST):   -2.349233
Local:           -5.167449
--------------------------
Free energy:   -1974.191810
Extrapolated:  -1973.017194

Showing only first 2 kpts
 Kpt  Band  Eigenvalues  Occupancy
  0   216     -4.73543    1.13271
  0   217     -4.70454    0.97906
  0   218     -4.68129    0.86367
  0   219     -4.66645    0.79171

  1   216     -4.65664    0.74527
  1   217     -4.64895    0.70971
  1   218     -4.62637    0.61000
  1   219     -4.61502    0.56295


Fermi level: -4.70873

No gap

Forces in eV/Ang:
  0 Ti   -0.00067    0.00032    0.46631
  1 Ti    0.03582    0.03086   -0.32792
  2 Ti    0.00493   -0.00188    0.04623
  3 Ti    0.10517   -0.07001    0.00905
  4 Ti    0.00864   -0.03560    0.31645
  5 Ti    0.07694   -0.08245   -0.35578
  6 Ti    0.10076    0.06647   -0.00572
  7 Ti    0.04563   -0.02223   -0.08171
  8 Ti   -0.01614    0.02711    0.34697
  9 Ti   -0.11627    0.06743   -0.40333
 10 Ti   -0.00393    0.00308   -0.02997
 11 Ti    0.05583   -0.02793    0.04222
 12 Ti   -0.03150    0.00044    0.34667
 13 Ti    0.00326   -0.10142   -0.36591
 14 Ti   -0.00508    0.00444   -0.00219
 15 Ti    0.04447   -0.03154    0.04147
 16 Ti   -0.01602   -0.03234    0.33189
 17 Ti   -0.15363    0.08881   -0.28127
 18 Ti    0.02993   -0.02033    0.23403
 19 Ti   -0.05654    0.25084    0.16132
 20 Ti   -0.00096    0.00068    0.31249
 21 Ti    0.11009   -0.02588   -0.35552
 22 Ti   -0.00588   -0.11992   -0.00561
 23 Ti    0.16527   -0.09554   -0.02582
 24 Ti    0.03524    0.01027    0.31611
 25 Ti   -0.04249    0.02380   -0.36250
 26 Ti   -0.03964    0.02324   -0.21094
 27 Ti    0.04310   -0.03312   -0.08285
 28 Ti    0.00912   -0.00517    0.29479
 29 Ti    0.08896    0.04749   -0.36490
 30 Ti   -0.00013    0.00236   -0.00808
 31 Ti   -0.01593    0.00673   -0.06916
 32 Ti    0.02005    0.03020    0.33199
 33 Ti   -0.00865   -0.04629   -0.32733
 34 Ti    0.00047   -0.00473    0.04470
 35 Ti   -0.23693   -0.05183    0.15793
 36 C     0.15814   -0.10245   -0.33067

BFGS:    5 07:22:36    -1973.017194        0.3806
System changes: positions 

Initializing position-dependent things.

Density initialized from wave functions
                                              
                                              
                                              
                                              
                                              
                     C                        
           Ti     Ti     Ti                   
                                              
            Ti     TTi    TTi                 
              Ti     TTi    TTi               
                                              
               Ti     TTi    TTi              
                                              
                 Ti     Ti     Ti             
                                              
           Ti     TTi    TTi     Ti           
                                              
            Ti      Ti     Ti                 
              Ti      Ti     Ti               
                                              
                                              
                                              
                                              

Positions:
   0 Ti     0.000000    0.000000   10.000000    ( 0.0000,  0.0000,  0.0000)
   1 Ti     1.450615    0.837513   12.368845    ( 0.0000,  0.0000,  0.0000)
   2 Ti    -0.026160    1.674261   14.785675    ( 0.0000,  0.0000,  0.0000)
   3 Ti     0.015186   -0.011239   17.069141    ( 0.0000,  0.0000,  0.0000)
   4 Ti    -1.450615    2.512539   10.000000    ( 0.0000,  0.0000,  0.0000)
   5 Ti    -0.000000    3.350052   12.368845    ( 0.0000,  0.0000,  0.0000)
   6 Ti    -1.472535    4.173490   14.785097    ( 0.0000,  0.0000,  0.0000)
   7 Ti    -1.486622    2.478255   17.055779    ( 0.0000,  0.0000,  0.0000)
   8 Ti    -2.901231    5.025079   10.000000    ( 0.0000,  0.0000,  0.0000)
   9 Ti    -1.450615    5.862592   12.368845    ( 0.0000,  0.0000,  0.0000)
  10 Ti    -2.894057    6.696147   14.800484    ( 0.0000,  0.0000,  0.0000)
  11 Ti    -2.902209    5.044034   17.080402    ( 0.0000,  0.0000,  0.0000)
  12 Ti     2.901231    0.000000   10.000000    ( 0.0000,  0.0000,  0.0000)
  13 Ti     4.351846    0.837513   12.368845    ( 0.0000,  0.0000,  0.0000)
  14 Ti     2.911507    1.647905   14.780451    ( 0.0000,  0.0000,  0.0000)
  15 Ti     2.884656   -0.009620   17.080495    ( 0.0000,  0.0000,  0.0000)
  16 Ti     1.450615    2.512539   10.000000    ( 0.0000,  0.0000,  0.0000)
  17 Ti     2.901231    3.350052   12.368845    ( 0.0000,  0.0000,  0.0000)
  18 Ti     1.464286    4.179234   14.764133    ( 0.0000,  0.0000,  0.0000)
  19 Ti     1.457882    2.390526   17.122024    ( 0.0000,  0.0000,  0.0000)
  20 Ti    -0.000000    5.025079   10.000000    ( 0.0000,  0.0000,  0.0000)
  21 Ti     1.450615    5.862592   12.368845    ( 0.0000,  0.0000,  0.0000)
  22 Ti     0.001429    6.726009   14.784956    ( 0.0000,  0.0000,  0.0000)
  23 Ti    -0.083555    5.073120   17.096717    ( 0.0000,  0.0000,  0.0000)
  24 Ti     5.802461    0.000000   10.000000    ( 0.0000,  0.0000,  0.0000)
  25 Ti     7.253076    0.837513   12.368845    ( 0.0000,  0.0000,  0.0000)
  26 Ti     5.814847    1.667828   14.767489    ( 0.0000,  0.0000,  0.0000)
  27 Ti     5.814183    0.049171   17.055697    ( 0.0000,  0.0000,  0.0000)
  28 Ti     4.351846    2.512539   10.000000    ( 0.0000,  0.0000,  0.0000)
  29 Ti     5.802461    3.350052   12.368845    ( 0.0000,  0.0000,  0.0000)
  30 Ti     4.379866    4.192582   14.781291    ( 0.0000,  0.0000,  0.0000)
  31 Ti     4.407300    2.480468   17.024219    ( 0.0000,  0.0000,  0.0000)
  32 Ti     2.901231    5.025079   10.000000    ( 0.0000,  0.0000,  0.0000)
  33 Ti     4.351846    5.862592   12.368845    ( 0.0000,  0.0000,  0.0000)
  34 Ti     2.888817    6.722048   14.786267    ( 0.0000,  0.0000,  0.0000)
  35 Ti     3.009621    5.076614   17.122275    ( 0.0000,  0.0000,  0.0000)
  36 C      1.444608    4.189231   17.930140    ( 0.0000,  0.0000,  0.0000)

Unit cell:
           periodic     x           y           z      points  spacing
  1. axis:    yes    8.703692    0.000000    0.000000    40     0.1884
  2. axis:    yes   -4.351846    7.537618    0.000000    40     0.1884
  3. axis:    no     0.000000    0.000000   27.106534   152     0.1783

  Lengths:   8.703692   8.703692  27.106534
  Angles:   90.000000  90.000000 120.000000

Effective grid spacing dv^(1/3) = 0.1941

     iter     time        total  log10-change:
                         energy  eigst   dens
iter:   1 07:23:53 -1973.043450  -2.66
iter:   2 07:24:21 -1973.030647  -3.34  -2.85
iter:   3 07:24:49 -1973.031546c -3.85  -2.83
iter:   4 07:25:18 -1973.045966c -3.78  -2.98
iter:   5 07:25:46 -1973.027243c -4.07  -2.65
iter:   6 07:26:14 -1973.026053c -3.95  -3.19
iter:   7 07:26:43 -1973.026398c -3.84  -3.49
iter:   8 07:27:11 -1973.026271c -4.36  -3.81
iter:   9 07:27:39 -1973.026418c -4.83  -3.82
iter:  10 07:28:08 -1973.026550c -4.82  -3.74
iter:  11 07:28:36 -1973.026032c -5.23  -3.59
iter:  12 07:29:05 -1973.025977c -4.93  -3.84
iter:  13 07:29:33 -1973.026072c -5.28  -3.82
iter:  14 07:30:01 -1973.026307c -4.92  -3.75
iter:  15 07:30:30 -1973.025931c -5.65  -4.10c
iter:  16 07:30:58 -1973.026036c -5.82  -4.10c
iter:  17 07:31:26 -1973.025984c -5.83  -4.35c
iter:  18 07:31:55 -1973.025991c -6.30  -4.39c
iter:  19 07:32:23 -1973.026030c -6.66  -4.43c
iter:  20 07:32:52 -1973.026083c -6.13  -4.41c
iter:  21 07:33:20 -1973.026052c -6.02  -4.48c
iter:  22 07:33:48 -1973.025930c -5.99  -4.49c
iter:  23 07:34:17 -1973.026058c -6.51  -4.52c
iter:  24 07:34:45 -1973.026088c -6.20  -4.64c
iter:  25 07:35:13 -1973.025963c -6.39  -4.63c
iter:  26 07:35:42 -1973.026045c -6.71  -4.79c
iter:  27 07:36:10 -1973.026003c -7.04  -4.22c
iter:  28 07:36:39 -1973.026049c -6.85  -5.10c
iter:  29 07:37:07 -1973.026019c -7.57c -5.18c

Converged after 29 iterations.

Dipole moment: (-3.321467, -8.711360, -0.102339) |e|*Ang

Energy contributions relative to reference atoms: (reference = -837092.142256)

Kinetic:       +632.571590
Potential:     -580.322112
External:        +0.000000
XC:            -2018.933330
Entropy (-ST):   -2.349959
Local:           -5.167188
--------------------------
Free energy:   -1974.200999
Extrapolated:  -1973.026019

Showing only first 2 kpts
 Kpt  Band  Eigenvalues  Occupancy
  0   216     -4.73269    1.13207
  0   217     -4.70184    0.97860
  0   218     -4.67841    0.86234
  0   219     -4.66440    0.79439

  1   216     -4.65396    0.74498
  1   217     -4.64556    0.70616
  1   218     -4.62405    0.61126
  1   219     -4.61215    0.56192


Fermi level: -4.70612

No gap

Forces in eV/Ang:
  0 Ti   -0.00028    0.00009    0.46478
  1 Ti    0.03537    0.03124   -0.32842
  2 Ti    0.02183   -0.00042    0.05751
  3 Ti    0.11668   -0.07615   -0.00111
  4 Ti    0.00901   -0.03563    0.31549
  5 Ti    0.07921   -0.08136   -0.35173
  6 Ti    0.08426    0.06004    0.01137
  7 Ti    0.03746   -0.01775   -0.08592
  8 Ti   -0.01629    0.02765    0.34509
  9 Ti   -0.11717    0.06793   -0.40443
 10 Ti    0.00136   -0.00034   -0.03039
 11 Ti    0.05515   -0.03045    0.03145
 12 Ti   -0.03204    0.00028    0.34478
 13 Ti    0.00214   -0.10289   -0.36985
 14 Ti   -0.01683    0.01708    0.02288
 15 Ti    0.04697   -0.02938    0.03022
 16 Ti   -0.01624   -0.03271    0.33273
 17 Ti   -0.15337    0.08868   -0.27756
 18 Ti    0.02613   -0.01734    0.21934
 19 Ti   -0.04030    0.07842    0.06574
 20 Ti   -0.00106    0.00076    0.31325
 21 Ti    0.11022   -0.02856   -0.35157
 22 Ti   -0.00904   -0.10223    0.01207
 23 Ti    0.06178   -0.03538   -0.07842
 24 Ti    0.03544    0.00996    0.31515
 25 Ti   -0.04095    0.02288   -0.36624
 26 Ti   -0.04650    0.02720   -0.18461
 27 Ti    0.03527   -0.02885   -0.08686
 28 Ti    0.00877   -0.00497    0.29354
 29 Ti    0.08968    0.04921   -0.36896
 30 Ti   -0.01732    0.00581    0.01667
 31 Ti   -0.03454    0.01818   -0.07544
 32 Ti    0.02026    0.03058    0.33283
 33 Ti   -0.00913   -0.04605   -0.32795
 34 Ti    0.00763   -0.01957    0.05504
 35 Ti   -0.09179    0.01188    0.06954
 36 C     0.16141   -0.09758   -0.18999

BFGS:    6 07:37:21    -1973.026019        0.2677
System changes: positions 

Initializing position-dependent things.

Density initialized from wave functions
                                              
                                              
                                              
                                              
                                              
                     C                        
           Ti     Ti     Ti                   
                                              
            Ti     TTi    TTi                 
              Ti     TTi    TTi               
                                              
               Ti     TTi    TTi              
                                              
                 Ti     Ti     Ti             
                                              
           Ti     TTi    TTi     Ti           
                                              
            Ti      Ti     Ti                 
              Ti      Ti     Ti               
                                              
                                              
                                              
                                              

Positions:
   0 Ti     0.000000    0.000000   10.000000    ( 0.0000,  0.0000,  0.0000)
   1 Ti     1.450615    0.837513   12.368845    ( 0.0000,  0.0000,  0.0000)
   2 Ti    -0.026866    1.673847   14.787036    ( 0.0000,  0.0000,  0.0000)
   3 Ti     0.020725   -0.014941   17.070218    ( 0.0000,  0.0000,  0.0000)
   4 Ti    -1.450615    2.512539   10.000000    ( 0.0000,  0.0000,  0.0000)
   5 Ti    -0.000000    3.350052   12.368845    ( 0.0000,  0.0000,  0.0000)
   6 Ti    -1.469273    4.175708   14.783900    ( 0.0000,  0.0000,  0.0000)
   7 Ti    -1.486520    2.476450   17.051888    ( 0.0000,  0.0000,  0.0000)
   8 Ti    -2.901231    5.025079   10.000000    ( 0.0000,  0.0000,  0.0000)
   9 Ti    -1.450615    5.862592   12.368845    ( 0.0000,  0.0000,  0.0000)
  10 Ti    -2.894061    6.696192   14.799159    ( 0.0000,  0.0000,  0.0000)
  11 Ti    -2.899828    5.043405   17.082830    ( 0.0000,  0.0000,  0.0000)
  12 Ti     2.901231    0.000000   10.000000    ( 0.0000,  0.0000,  0.0000)
  13 Ti     4.351846    0.837513   12.368845    ( 0.0000,  0.0000,  0.0000)
  14 Ti     2.912074    1.647183   14.779452    ( 0.0000,  0.0000,  0.0000)
  15 Ti     2.886118   -0.011300   17.082887    ( 0.0000,  0.0000,  0.0000)
  16 Ti     1.450615    2.512539   10.000000    ( 0.0000,  0.0000,  0.0000)
  17 Ti     2.901231    3.350052   12.368845    ( 0.0000,  0.0000,  0.0000)
  18 Ti     1.465614    4.178318   14.772597    ( 0.0000,  0.0000,  0.0000)
  19 Ti     1.456445    2.394952   17.130578    ( 0.0000,  0.0000,  0.0000)
  20 Ti    -0.000000    5.025079   10.000000    ( 0.0000,  0.0000,  0.0000)
  21 Ti     1.450615    5.862592   12.368845    ( 0.0000,  0.0000,  0.0000)
  22 Ti     0.001192    6.722092   14.783770    ( 0.0000,  0.0000,  0.0000)
  23 Ti    -0.077722    5.069721   17.100226    ( 0.0000,  0.0000,  0.0000)
  24 Ti     5.802461    0.000000   10.000000    ( 0.0000,  0.0000,  0.0000)
  25 Ti     7.253076    0.837513   12.368845    ( 0.0000,  0.0000,  0.0000)
  26 Ti     5.813003    1.668908   14.757351    ( 0.0000,  0.0000,  0.0000)
  27 Ti     5.815822    0.049842   17.051769    ( 0.0000,  0.0000,  0.0000)
  28 Ti     4.351846    2.512539   10.000000    ( 0.0000,  0.0000,  0.0000)
  29 Ti     5.802461    3.350052   12.368845    ( 0.0000,  0.0000,  0.0000)
  30 Ti     4.380965    4.192457   14.780119    ( 0.0000,  0.0000,  0.0000)
  31 Ti     4.408931    2.479422   17.021050    ( 0.0000,  0.0000,  0.0000)
  32 Ti     2.901231    5.025079   10.000000    ( 0.0000,  0.0000,  0.0000)
  33 Ti     4.351846    5.862592   12.368845    ( 0.0000,  0.0000,  0.0000)
  34 Ti     2.888676    6.722761   14.787571    ( 0.0000,  0.0000,  0.0000)
  35 Ti     3.005607    5.076193   17.130623    ( 0.0000,  0.0000,  0.0000)
  36 C      1.450482    4.185566   17.915503    ( 0.0000,  0.0000,  0.0000)

Unit cell:
           periodic     x           y           z      points  spacing
  1. axis:    yes    8.703692    0.000000    0.000000    40     0.1884
  2. axis:    yes   -4.351846    7.537618    0.000000    40     0.1884
  3. axis:    no     0.000000    0.000000   27.106534   152     0.1783

  Lengths:   8.703692   8.703692  27.106534
  Angles:   90.000000  90.000000 120.000000

Effective grid spacing dv^(1/3) = 0.1941

     iter     time        total  log10-change:
                         energy  eigst   dens
iter:   1 07:38:39 -1973.079533  -2.35
iter:   2 07:39:07 -1973.403663  -2.51  -2.62
iter:   3 07:39:36 -1973.049322  -3.16  -1.98
iter:   4 07:40:04 -1973.042987  -3.63  -2.70
iter:   5 07:40:32 -1973.035839c -3.71  -2.95
iter:   6 07:41:01 -1973.034145c -3.69  -3.25
iter:   7 07:41:29 -1973.034181c -3.52  -3.35
iter:   8 07:41:57 -1973.034352c -3.98  -3.68
iter:   9 07:42:26 -1973.034543c -4.24  -3.61
iter:  10 07:42:54 -1973.034590c -4.64  -3.60
iter:  11 07:43:23 -1973.034437c -4.98  -3.76
iter:  12 07:43:51 -1973.034355c -4.61  -3.77
iter:  13 07:44:19 -1973.034556c -4.18  -3.71
iter:  14 07:44:48 -1973.034539c -4.71  -3.73
iter:  15 07:45:16 -1973.033825c -4.53  -3.75
iter:  16 07:45:45 -1973.033952c -5.08  -4.17c
iter:  17 07:46:13 -1973.033944c -5.57  -4.20c
iter:  18 07:46:41 -1973.033991c -5.89  -4.11c
iter:  19 07:47:10 -1973.034060c -6.16  -4.19c
iter:  20 07:47:38 -1973.034031c -6.20  -4.22c
iter:  21 07:48:06 -1973.034063c -6.45  -4.31c
iter:  22 07:48:35 -1973.034067c -6.16  -4.34c
iter:  23 07:49:03 -1973.034172c -6.18  -4.51c
iter:  24 07:49:32 -1973.034061c -6.54  -4.44c
iter:  25 07:50:00 -1973.034107c -6.77  -4.30c
iter:  26 07:50:29 -1973.034117c -6.93  -4.73c
iter:  27 07:50:57 -1973.034062c -6.99  -4.82c
iter:  28 07:51:25 -1973.034044c -6.98  -4.83c
iter:  29 07:51:54 -1973.034077c -7.06  -4.98c
iter:  30 07:52:22 -1973.034061c -7.23  -5.00c
iter:  31 07:52:50 -1973.034057c -7.46c -5.15c

Converged after 31 iterations.

Dipole moment: (-3.550178, -8.556541, -0.097539) |e|*Ang

Energy contributions relative to reference atoms: (reference = -837092.142256)

Kinetic:       +633.350080
Potential:     -580.931750
External:        +0.000000
XC:            -2019.108976
Entropy (-ST):   -2.350302
Local:           -5.168260
--------------------------
Free energy:   -1974.209208
Extrapolated:  -1973.034057

Showing only first 2 kpts
 Kpt  Band  Eigenvalues  Occupancy
  0   216     -4.72944    1.13496
  0   217     -4.69818    0.97945
  0   218     -4.67430    0.86096
  0   219     -4.66151    0.79888

  1   216     -4.65035    0.74603
  1   217     -4.64037    0.69996
  1   218     -4.62085    0.61391
  1   219     -4.60770    0.55942


Fermi level: -4.70229

No gap

Forces in eV/Ang:
  0 Ti    0.00059   -0.00037    0.46344
  1 Ti    0.03492    0.03109   -0.32957
  2 Ti    0.03522   -0.00108    0.06300
  3 Ti    0.13429   -0.08508   -0.00391
  4 Ti    0.01014   -0.03545    0.31605
  5 Ti    0.08329   -0.07969   -0.34285
  6 Ti    0.03545    0.03541    0.02979
  7 Ti    0.00900   -0.01189   -0.08847
  8 Ti   -0.01665    0.02875    0.34310
  9 Ti   -0.11933    0.06912   -0.40790
 10 Ti    0.01229   -0.00719   -0.02841
 11 Ti    0.04863   -0.02400    0.02077
 12 Ti   -0.03316    0.00006    0.34280
 13 Ti   -0.00219   -0.10612   -0.37559
 14 Ti   -0.02842    0.01696    0.04658
 15 Ti    0.04073   -0.02757    0.01882
 16 Ti   -0.01658   -0.03268    0.33504
 17 Ti   -0.15271    0.08837   -0.26943
 18 Ti    0.00583   -0.00450    0.17355
 19 Ti   -0.00623   -0.17662   -0.04033
 20 Ti   -0.00062    0.00051    0.31546
 21 Ti    0.11066   -0.03318   -0.34290
 22 Ti   -0.01319   -0.04758    0.03133
 23 Ti   -0.08685    0.05090   -0.11070
 24 Ti    0.03580    0.00891    0.31578
 25 Ti   -0.03677    0.02045   -0.37096
 26 Ti   -0.04294    0.02515   -0.13144
 27 Ti    0.01557   -0.00716   -0.08871
 28 Ti    0.00764   -0.00434    0.29334
 29 Ti    0.09036    0.05457   -0.37494
 30 Ti   -0.02516    0.01506    0.04168
 31 Ti   -0.04241    0.02383   -0.08332
 32 Ti    0.02004    0.03085    0.33516
 33 Ti   -0.00909   -0.04551   -0.32935
 34 Ti    0.01540   -0.03046    0.05905
 35 Ti    0.12919    0.09716   -0.02943
 36 C     0.10499   -0.05051    0.03248

BFGS:    7 07:53:05    -1973.034057        0.1813
System changes: positions 

Initializing position-dependent things.

Density initialized from wave functions
                                              
                                              
                                              
                                              
                                              
                     C                        
           Ti     Ti     Ti                   
                                              
            Ti     TTi    TTi                 
              Ti     TTi    TTi               
                                              
               Ti     TTi    TTi              
                                              
                 Ti     Ti     Ti             
                                              
           Ti     TTi    TTi     Ti           
                                              
            Ti      Ti     Ti                 
              Ti      Ti     Ti               
                                              
                                              
                                              
                                              

Positions:
   0 Ti     0.000000    0.000000   10.000000    ( 0.0000,  0.0000,  0.0000)
   1 Ti     1.450615    0.837513   12.368845    ( 0.0000,  0.0000,  0.0000)
   2 Ti    -0.027020    1.673510   14.788417    ( 0.0000,  0.0000,  0.0000)
   3 Ti     0.025645   -0.018169   17.070918    ( 0.0000,  0.0000,  0.0000)
   4 Ti    -1.450615    2.512539   10.000000    ( 0.0000,  0.0000,  0.0000)
   5 Ti    -0.000000    3.350052   12.368845    ( 0.0000,  0.0000,  0.0000)
   6 Ti    -1.467373    4.177176   14.783455    ( 0.0000,  0.0000,  0.0000)
   7 Ti    -1.486878    2.475071   17.048568    ( 0.0000,  0.0000,  0.0000)
   8 Ti    -2.901231    5.025079   10.000000    ( 0.0000,  0.0000,  0.0000)
   9 Ti    -1.450615    5.862592   12.368845    ( 0.0000,  0.0000,  0.0000)
  10 Ti    -2.893868    6.696103   14.798065    ( 0.0000,  0.0000,  0.0000)
  11 Ti    -2.897908    5.042897   17.084539    ( 0.0000,  0.0000,  0.0000)
  12 Ti     2.901231    0.000000   10.000000    ( 0.0000,  0.0000,  0.0000)
  13 Ti     4.351846    0.837513   12.368845    ( 0.0000,  0.0000,  0.0000)
  14 Ti     2.912209    1.646795   14.779308    ( 0.0000,  0.0000,  0.0000)
  15 Ti     2.887329   -0.012652   17.084552    ( 0.0000,  0.0000,  0.0000)
[...]
  27 Ti     5.813983    0.026830   16.966447    ( 0.0000,  0.0000,  0.0000)
  28 Ti     4.351846    2.512539   10.000000    ( 0.0000,  0.0000,  0.0000)
  29 Ti     5.802461    3.350052   12.368845    ( 0.0000,  0.0000,  0.0000)
  30 Ti     4.384758    4.197570   14.773355    ( 0.0000,  0.0000,  0.0000)
  31 Ti     4.397762    2.476993   16.949353    ( 0.0000,  0.0000,  0.0000)
  32 Ti     2.901231    5.025079   10.000000    ( 0.0000,  0.0000,  0.0000)
  33 Ti     4.351846    5.862592   12.368845    ( 0.0000,  0.0000,  0.0000)
  34 Ti     2.902524    6.717722   14.770342    ( 0.0000,  0.0000,  0.0000)
  35 Ti     3.098838    5.112770   17.164981    ( 0.0000,  0.0000,  0.0000)
  36 C      1.464136    4.167118   17.628740    ( 0.0000,  0.0000,  0.0000)

Unit cell:
           periodic     x           y           z      points  spacing
  1. axis:    yes    8.703692    0.000000    0.000000    40     0.1884
  2. axis:    yes   -4.351846    7.537618    0.000000    40     0.1884
  3. axis:    no     0.000000    0.000000   27.106534   152     0.1783

  Lengths:   8.703692   8.703692  27.106534
  Angles:   90.000000  90.000000 120.000000

Effective grid spacing dv^(1/3) = 0.1941

     iter     time        total  log10-change:
                         energy  eigst   dens
iter:   1 14:43:29 -1973.167586  -3.26
iter:   2 14:43:58 -1973.357183  -2.91  -2.86
iter:   3 14:44:26 -1973.159839c -3.73  -2.13
iter:   4 14:44:54 -1973.161116c -4.22  -3.44
iter:   5 14:45:22 -1973.160197c -4.59  -3.52
iter:   6 14:45:50 -1973.160146c -4.76  -3.82
iter:   7 14:46:19 -1973.160113c -4.80  -3.97
iter:   8 14:46:47 -1973.160191c -5.09  -4.12c
iter:   9 14:47:15 -1973.160147c -5.26  -3.87
iter:  10 14:47:43 -1973.160206c -5.58  -4.26c
iter:  11 14:48:11 -1973.160148c -5.67  -4.30c
iter:  12 14:48:39 -1973.160298c -5.81  -4.31c
iter:  13 14:49:07 -1973.160245c -6.00  -4.36c
iter:  14 14:49:36 -1973.160228c -6.03  -4.50c
iter:  15 14:50:04 -1973.160233c -6.34  -4.67c
iter:  16 14:50:32 -1973.160230c -6.46  -4.63c
iter:  17 14:51:00 -1973.160213c -6.45  -4.73c
iter:  18 14:51:28 -1973.160169c -6.62  -4.89c
iter:  19 14:51:56 -1973.160193c -6.77  -4.93c
iter:  20 14:52:24 -1973.160191c -6.97  -5.05c
iter:  21 14:52:53 -1973.160194c -7.11  -5.04c
iter:  22 14:53:21 -1973.160208c -7.07  -4.92c
iter:  23 14:53:49 -1973.160208c -7.30  -5.17c
iter:  24 14:54:17 -1973.160204c -7.43c -5.18c

Converged after 24 iterations.

Dipole moment: (-4.805341, -6.274524, -0.028161) |e|*Ang

Energy contributions relative to reference atoms: (reference = -837092.142256)

Kinetic:       +635.705586
Potential:     -582.068269
External:        +0.000000
XC:            -2020.457273
Entropy (-ST):   -2.294500
Local:           -5.192999
--------------------------
Free energy:   -1974.307454
Extrapolated:  -1973.160204

Showing only first 2 kpts
 Kpt  Band  Eigenvalues  Occupancy
  0   216     -4.69004    1.20965
  0   217     -4.64622    0.99367
  0   218     -4.63392    0.93229
  0   219     -4.60911    0.81044

  1   216     -4.62116    0.86915
  1   217     -4.60265    0.77953
  1   218     -4.55519    0.56873
  1   219     -4.54756    0.53819


Fermi level: -4.64748

No gap

Forces in eV/Ang:
  0 Ti   -0.00726    0.00495    0.44076
  1 Ti    0.04064   -0.05398   -0.38765
  2 Ti    0.00025   -0.00355   -0.01700
  3 Ti   -0.01656   -0.00360    0.04112
  4 Ti    0.03558   -0.02259    0.33346
  5 Ti    0.05953   -0.08644   -0.25653
  6 Ti   -0.00198   -0.00918    0.02371
  7 Ti    0.01381    0.02709   -0.00780
  8 Ti   -0.01708    0.02052    0.32076
  9 Ti   -0.18734    0.10929   -0.48182
 10 Ti   -0.00690   -0.00329    0.01436
 11 Ti    0.00120   -0.00182   -0.01716
 12 Ti   -0.02630    0.00676    0.32063
 13 Ti   -0.06017   -0.13766   -0.44894
 14 Ti   -0.00292    0.01011   -0.01536
 15 Ti   -0.01638    0.01349    0.00842
 16 Ti   -0.01601   -0.02647    0.37705
 17 Ti   -0.14078    0.08020   -0.14755
 18 Ti   -0.02762    0.01508    0.00750
 19 Ti   -0.02809   -0.00473   -0.00825
 20 Ti    0.00592   -0.00275    0.35473
 21 Ti    0.09875   -0.01301   -0.26141
 22 Ti   -0.00511    0.02149   -0.00572
 23 Ti   -0.02947    0.07835    0.00081
 24 Ti    0.03731   -0.01954    0.33631
 25 Ti    0.01600   -0.00913   -0.46147
 26 Ti   -0.03258    0.00411   -0.00603
 27 Ti   -0.02437   -0.01506    0.00255
 28 Ti   -0.01748    0.00847    0.31430
 29 Ti    0.08257    0.11095   -0.45468
 30 Ti   -0.00995   -0.00947   -0.02004
 31 Ti    0.00290   -0.02940    0.00862
 32 Ti    0.01308    0.02796    0.37851
 33 Ti    0.07195   -0.01302   -0.38963
 34 Ti   -0.01176   -0.01648   -0.01435
 35 Ti    0.01214   -0.01361   -0.00803
 36 C     0.01919   -0.02087    0.03314

BFGS:   33 14:54:32    -1973.160204        0.0837
System changes: positions 

Initializing position-dependent things.

Density initialized from wave functions
                                              
                                              
                                              
                                              
                                              
           Ti    Ti  C   Ti                   
                                              
            Ti     TTi    TTi                 
                     Ti                       
              TTi     Ti    TTi               
               Ti      Ti                     
               Ti     Ti     TTi              
                 Ti     Ti     Ti             
                                              
           Ti     TTi    TTi     Ti           
                                              
            Ti      Ti     Ti                 
              Ti      Ti     Ti               
                                              
                                              
                                              
                                              

Positions:
   0 Ti     0.000000    0.000000   10.000000    ( 0.0000,  0.0000,  0.0000)
   1 Ti     1.450615    0.837513   12.368845    ( 0.0000,  0.0000,  0.0000)
   2 Ti    -0.022155    1.658781   14.770211    ( 0.0000,  0.0000,  0.0000)
   3 Ti     0.035074   -0.037510   17.081312    ( 0.0000,  0.0000,  0.0000)
   4 Ti    -1.450615    2.512539   10.000000    ( 0.0000,  0.0000,  0.0000)
   5 Ti    -0.000000    3.350052   12.368845    ( 0.0000,  0.0000,  0.0000)
   6 Ti    -1.483419    4.188598   14.765125    ( 0.0000,  0.0000,  0.0000)
   7 Ti    -1.482594    2.462868   16.963418    ( 0.0000,  0.0000,  0.0000)
   8 Ti    -2.901231    5.025079   10.000000    ( 0.0000,  0.0000,  0.0000)
   9 Ti    -1.450615    5.862592   12.368845    ( 0.0000,  0.0000,  0.0000)
  10 Ti    -2.890971    6.687494   14.806192    ( 0.0000,  0.0000,  0.0000)
  11 Ti    -2.892789    5.029913   17.140142    ( 0.0000,  0.0000,  0.0000)
  12 Ti     2.901231    0.000000   10.000000    ( 0.0000,  0.0000,  0.0000)
  13 Ti     4.351846    0.837513   12.368845    ( 0.0000,  0.0000,  0.0000)
  14 Ti     2.907795    1.637183   14.773741    ( 0.0000,  0.0000,  0.0000)
  15 Ti     2.892363   -0.030128   17.139698    ( 0.0000,  0.0000,  0.0000)
  16 Ti     1.450615    2.512539   10.000000    ( 0.0000,  0.0000,  0.0000)
  17 Ti     2.901231    3.350052   12.368845    ( 0.0000,  0.0000,  0.0000)
  18 Ti     1.463291    4.168400   15.055300    ( 0.0000,  0.0000,  0.0000)
  19 Ti     1.466706    2.277205   17.168136    ( 0.0000,  0.0000,  0.0000)
  20 Ti    -0.000000    5.025079   10.000000    ( 0.0000,  0.0000,  0.0000)
  21 Ti     1.450615    5.862592   12.368845    ( 0.0000,  0.0000,  0.0000)
  22 Ti    -0.021854    6.719410   14.776252    ( 0.0000,  0.0000,  0.0000)
  23 Ti    -0.174446    5.098731   17.145380    ( 0.0000,  0.0000,  0.0000)
  24 Ti     5.802461    0.000000   10.000000    ( 0.0000,  0.0000,  0.0000)
  25 Ti     7.253076    0.837513   12.368845    ( 0.0000,  0.0000,  0.0000)
  26 Ti     5.807368    1.664196   14.688525    ( 0.0000,  0.0000,  0.0000)
  27 Ti     5.812977    0.025035   16.965458    ( 0.0000,  0.0000,  0.0000)
  28 Ti     4.351846    2.512539   10.000000    ( 0.0000,  0.0000,  0.0000)
  29 Ti     5.802461    3.350052   12.368845    ( 0.0000,  0.0000,  0.0000)
  30 Ti     4.384846    4.197802   14.772557    ( 0.0000,  0.0000,  0.0000)
  31 Ti     4.398719    2.475127   16.949192    ( 0.0000,  0.0000,  0.0000)
  32 Ti     2.901231    5.025079   10.000000    ( 0.0000,  0.0000,  0.0000)
  33 Ti     4.351846    5.862592   12.368845    ( 0.0000,  0.0000,  0.0000)
  34 Ti     2.902116    6.717377   14.769178    ( 0.0000,  0.0000,  0.0000)
  35 Ti     3.098203    5.110754   17.164816    ( 0.0000,  0.0000,  0.0000)
  36 C      1.463405    4.167322   17.626839    ( 0.0000,  0.0000,  0.0000)

Unit cell:
           periodic     x           y           z      points  spacing
  1. axis:    yes    8.703692    0.000000    0.000000    40     0.1884
  2. axis:    yes   -4.351846    7.537618    0.000000    40     0.1884
  3. axis:    no     0.000000    0.000000   27.106534   152     0.1783

  Lengths:   8.703692   8.703692  27.106534
  Angles:   90.000000  90.000000 120.000000

Effective grid spacing dv^(1/3) = 0.1941

     iter     time        total  log10-change:
                         energy  eigst   dens
iter:   1 14:55:48 -1973.163270  -3.44
iter:   2 14:56:16 -1973.184390  -3.69  -3.16
iter:   3 14:56:45 -1973.161450c -4.28  -2.57
iter:   4 14:57:13 -1973.161560c -4.78  -3.33
iter:   5 14:57:41 -1973.160952c -5.10  -3.67
iter:   6 14:58:09 -1973.160893c -5.26  -3.95
iter:   7 14:58:38 -1973.160890c -5.27  -4.07c
iter:   8 14:59:06 -1973.160866c -5.42  -4.23c
iter:   9 14:59:34 -1973.160917c -5.70  -4.23c
iter:  10 15:00:02 -1973.160952c -5.99  -4.31c
iter:  11 15:00:31 -1973.160884c -6.11  -4.33c
iter:  12 15:00:59 -1973.160936c -6.26  -4.48c
iter:  13 15:01:27 -1973.160927c -6.38  -4.61c
iter:  14 15:01:56 -1973.160932c -6.54  -4.77c
iter:  15 15:02:24 -1973.160917c -6.75  -4.75c
iter:  16 15:02:52 -1973.160909c -6.85  -4.82c
iter:  17 15:03:20 -1973.160925c -6.99  -4.82c
iter:  18 15:03:49 -1973.160895c -7.07  -4.82c
iter:  19 15:04:17 -1973.160907c -7.25  -5.00c
iter:  20 15:04:45 -1973.160912c -7.38  -5.08c
iter:  21 15:05:14 -1973.160931c -7.41c -5.17c

Converged after 21 iterations.

Dipole moment: (-4.861989, -6.179442, -0.027565) |e|*Ang

Energy contributions relative to reference atoms: (reference = -837092.142256)

Kinetic:       +635.693981
Potential:     -582.053480
External:        +0.000000
XC:            -2020.460878
Entropy (-ST):   -2.294510
Local:           -5.193299
--------------------------
Free energy:   -1974.308186
Extrapolated:  -1973.160931

Showing only first 2 kpts
 Kpt  Band  Eigenvalues  Occupancy
  0   216     -4.68998    1.21137
  0   217     -4.64575    0.99346
  0   218     -4.63346    0.93210
  0   219     -4.60852    0.80966

  1   216     -4.62133    0.87204
  1   217     -4.60257    0.78115
  1   218     -4.55465    0.56822
  1   219     -4.54715    0.53822


Fermi level: -4.64706

No gap

Forces in eV/Ang:
  0 Ti   -0.00755    0.00522    0.44044
  1 Ti    0.04058   -0.05496   -0.38867
  2 Ti    0.00028   -0.01018   -0.01463
  3 Ti   -0.02050   -0.00122    0.03404
  4 Ti    0.03577   -0.02250    0.33248
  5 Ti    0.06047   -0.08637   -0.25580
  6 Ti    0.00976    0.00749    0.01765
  7 Ti    0.00997    0.02542    0.00068
  8 Ti   -0.01673    0.02037    0.32051
  9 Ti   -0.18727    0.10829   -0.48005
 10 Ti   -0.00618   -0.00467    0.00974
 11 Ti   -0.00269   -0.00117   -0.01707
 12 Ti   -0.02619    0.00653    0.32053
 13 Ti   -0.06108   -0.13806   -0.45091
 14 Ti   -0.00511    0.02228   -0.00913
 15 Ti   -0.01911    0.02055    0.00958
 16 Ti   -0.01628   -0.02660    0.37698
 17 Ti   -0.14178    0.08085   -0.14589
 18 Ti   -0.01764    0.01187    0.01045
 19 Ti   -0.02296   -0.01469   -0.01241
 20 Ti    0.00543   -0.00262    0.35489
 21 Ti    0.09879   -0.01395   -0.26109
 22 Ti   -0.01243    0.00789   -0.01683
 23 Ti    0.01556    0.02550    0.00111
 24 Ti    0.03747   -0.01965    0.33538
 25 Ti    0.01484   -0.00867   -0.46239
 26 Ti   -0.01561   -0.00432   -0.01407
 27 Ti   -0.01237   -0.00914    0.00739
 28 Ti   -0.01738    0.00859    0.31409
 29 Ti    0.08300    0.11153   -0.45455
 30 Ti   -0.01841   -0.01595   -0.01405
 31 Ti   -0.01400   -0.02102    0.01130
 32 Ti    0.01314    0.02812    0.37825
 33 Ti    0.07202   -0.01205   -0.39012
 34 Ti   -0.00484   -0.01652   -0.00805
 35 Ti    0.02552   -0.00054   -0.01169
 36 C    -0.02091   -0.00849    0.02410

BFGS:   34 15:05:28    -1973.160931        0.0398
Timing:                                      incl.     excl.
-------------------------------------------------------------------
Density initialized from wave functions:    28.842    28.841   0.1% |
 Symmetrize density:                         0.001     0.001   0.0% |
Forces:                                    510.921   510.921   1.4% ||
Hamiltonian:                               118.528     0.005   0.0% |
 Atomic:                                     0.009     0.009   0.0% |
  XC Correction:                             0.000     0.000   0.0% |
 Calculate atomic Hamiltonians:              0.011     0.011   0.0% |
 Communicate:                                5.776     5.776   0.0% |
 Hartree integrate/restrict:                 0.371     0.371   0.0% |
 Initialize Hamiltonian:                     0.001     0.001   0.0% |
 Poisson:                                    6.128     0.267   0.0% |
  Communicate from 1D:                       0.519     0.519   0.0% |
  Communicate from 2D:                       1.036     1.036   0.0% |
  Communicate to 1D:                         0.291     0.291   0.0% |
  Communicate to 2D:                         1.149     1.149   0.0% |
  FFT 1D:                                    1.342     1.342   0.0% |
  FFT 2D:                                    1.523     1.523   0.0% |
 XC 3D grid:                               106.146    26.584   0.1% |
  VdW-DF integral:                          79.562     4.439   0.0% |
   Convolution:                              7.277     7.277   0.0% |
   FFT:                                      5.255     5.255   0.0% |
   gather:                                  23.836    23.836   0.1% |
   hmm1:                                     1.432     1.432   0.0% |
   hmm2:                                     3.205     3.205   0.0% |
   iFFT:                                     4.946     4.946   0.0% |
   potential:                               24.977     0.566   0.0% |
    collect:                                 1.627     1.627   0.0% |
    p1:                                     14.562    14.562   0.0% |
    p2:                                      4.986     4.986   0.0% |
    sum:                                     3.236     3.236   0.0% |
   splines:                                  4.196     4.196   0.0% |
 vbar:                                       0.079     0.079   0.0% |
LCAO initialization:                        47.442     1.220   0.0% |
 LCAO eigensolver:                          35.872     0.005   0.0% |
  Calculate projections:                     0.000     0.000   0.0% |
  DenseAtomicCorrection:                     0.000     0.000   0.0% |
  Distribute overlap matrix:                34.681    34.681   0.1% |
  Orbital Layouts:                           0.990     0.990   0.0% |
  Potential matrix:                          0.039     0.039   0.0% |
  Sum over cells:                            0.158     0.158   0.0% |
 LCAO to grid:                               8.323     8.323   0.0% |
 Set positions (LCAO WFS):                   2.027     1.397   0.0% |
  Basic WFS set positions:                   0.001     0.001   0.0% |
  Basis functions set positions:             0.000     0.000   0.0% |
  P tci:                                     0.000     0.000   0.0% |
  ST tci:                                    0.538     0.538   0.0% |
  mktci:                                     0.090     0.090   0.0% |
Redistribute:                                0.020     0.020   0.0% |
SCF-cycle:                               33956.833   441.282   1.2% |
 Davidson:                               29536.750  9824.016  27.2% |----------|
  Apply hamiltonian:                       700.107   700.107   1.9% ||
  Subspace diag:                          2774.017     0.147   0.0% |
   calc_h_matrix:                         1411.985   728.820   2.0% ||
    Apply hamiltonian:                     683.165   683.165   1.9% ||
   diagonalize:                             64.714    64.714   0.2% |
   rotate_psi:                            1297.170  1297.170   3.6% ||
  calc. matrices:                        13442.738  4839.241  13.4% |----|
   Apply hamiltonian:                     8603.497  8603.497  23.8% |---------|
  diagonalize:                             301.923   301.923   0.8% |
  rotate_psi:                             2493.949  2493.949   6.9% |--|
 Density:                                   69.565     0.028   0.0% |
  Atomic density matrices:                   6.398     6.398   0.0% |
  Mix:                                      18.581    18.581   0.1% |
  Multipole moments:                         0.482     0.482   0.0% |
  Pseudo density:                           44.077    44.048   0.1% |
   Symmetrize density:                       0.028     0.028   0.0% |
 Hamiltonian:                             3773.333     0.148   0.0% |
  Atomic:                                    0.291     0.287   0.0% |
   XC Correction:                            0.004     0.004   0.0% |
  Calculate atomic Hamiltonians:             0.378     0.378   0.0% |
  Communicate:                             190.830   190.830   0.5% |
  Hartree integrate/restrict:               12.125    12.125   0.0% |
  Poisson:                                 203.264     8.360   0.0% |
   Communicate from 1D:                     17.273    17.273   0.0% |
   Communicate from 2D:                     34.651    34.651   0.1% |
   Communicate to 1D:                        9.771     9.771   0.0% |
   Communicate to 2D:                       38.001    38.001   0.1% |
   FFT 1D:                                  44.583    44.583   0.1% |
   FFT 2D:                                  50.625    50.625   0.1% |
  XC 3D grid:                             3364.051   880.901   2.4% ||
   VdW-DF integral:                       2483.150   148.063   0.4% |
    Convolution:                           242.303   242.303   0.7% |
    FFT:                                   174.097   174.097   0.5% |
    gather:                                799.493   799.493   2.2% ||
    hmm1:                                   47.338    47.338   0.1% |
    hmm2:                                  105.039   105.039   0.3% |
    iFFT:                                  165.234   165.234   0.5% |
    potential:                             801.576    19.045   0.1% |
     collect:                               53.626    53.626   0.1% |
     p1:                                   483.484   483.484   1.3% ||
     p2:                                   164.720   164.720   0.5% |
     sum:                                   80.702    80.702   0.2% |
    splines:                                 0.006     0.006   0.0% |
  vbar:                                      2.246     2.246   0.0% |
 Orthonormalize:                           135.903     0.007   0.0% |
  calc_s_matrix:                             9.462     9.462   0.0% |
  inverse-cholesky:                        107.294   107.294   0.3% |
  projections:                               0.002     0.002   0.0% |
  rotate_psi_s:                             19.138    19.138   0.1% |
Set symmetry:                                0.001     0.001   0.0% |
Other:                                    1494.370  1494.370   4.1% |-|
-------------------------------------------------------------------
Total:                                             36156.956 100.0%

Memory usage: 1.49 GiB
Date: Thu Sep 28 15:05:28 2023
