
  ___ ___ ___ _ _ _  
 |   |   |_  | | | | 
 | | | | | . | | | | 
 |__ |  _|___|_____|  22.8.0
 |___|_|             

User:   s204775@c158.nifl.fysik.dtu.dk
Date:   Tue Oct  3 16:40:45 2023
Arch:   x86_64
Pid:    182687
CWD:    /home/cat/s204775/projects/Bachelor_project/C_missing_features
Python: 3.10.4
gpaw:   /home/modules/software/GPAW/22.8.0-intel-2022a/lib/python3.10/site-packages/gpaw
_gpaw:  /home/modules/software/GPAW/22.8.0-intel-2022a/lib/python3.10/site-packages/
        _gpaw.cpython-310-x86_64-linux-gnu.so
ase:    /home/modules/software/ASE/3.22.1-intel-2022a/lib/python3.10/site-packages/ase (version 3.22.1)
numpy:  /home/modules/software/SciPy-bundle/2022.05-intel-2022a/lib/python3.10/site-packages/numpy (version 1.22.3)
scipy:  /home/modules/software/SciPy-bundle/2022.05-intel-2022a/lib/python3.10/site-packages/scipy (version 1.8.1)
libxc:  5.2.3
units:  Angstrom and eV
cores: 40
OpenMP: False
OMP_NUM_THREADS: 1

Input parameters:
  basis: dzp
  h: 0.18
  kpts: {size: (4, 4, 1)}
  xc: BEEF-vdW

System changes: positions, numbers, cell, pbc, initial_charges, initial_magmoms 

Initialize ...

species:
  Tl:
    name: Thallium
    id: 5a3688cb07e09c63f278d9dd157b5100
    Z: 81.0
    valence: 13
    core: 68
    charge: 0.0
    file: /home/modules/software/GPAW-setups/0.9.20000/Tl.PBE.gz
    compensation charges: {type: gauss,
                           rc: 0.38,
                           lmax: 2}
    cutoffs: {filter: 2.11,
              core: 2.55}
    valence states:
      #              energy  rcut
      - 6s(2.00)    -9.493   1.212
      - 6p(1.00)    -2.379   1.270
      - 5d(10.00)   -15.517   1.191
      -  s          17.718   1.212
      -  p          24.832   1.270
      -  d          11.695   1.191
  
    # LCAO basis set for Tl:
    #   Name: dzp
    #   File: /home/modules/software/GPAW-setups/0.9.20000/Tl.dzp.basis.gz
    #   Number of radial functions: 7
    #   Number of spherical harmonics: 23
    #     l=0, rc=7.3438 Bohr: 6s-sz confined orbital
    #     l=1, rc=11.0312 Bohr: 6p-sz confined orbital
    #     l=2, rc=4.8750 Bohr: 5d-sz confined orbital
    #     l=0, rc=4.2500 Bohr: 6s-dz split-valence wave
    #     l=1, rc=6.6250 Bohr: 6p-dz split-valence wave
    #     l=2, rc=2.9531 Bohr: 5d-dz split-valence wave
    #     l=2, rc=11.0312 Bohr: d-type Gaussian polarization
    #   Number of RI-basis functions 0

  C:
    name: Carbon
    id: 4aa54d4b901d75f77cc0ea3eec22967b
    Z: 6.0
    valence: 4
    core: 2
    charge: 0.0
    file: /home/modules/software/GPAW-setups/0.9.20000/C.PBE.gz
    compensation charges: {type: gauss,
                           rc: 0.20,
                           lmax: 2}
    cutoffs: {filter: 1.14,
              core: 1.14}
    valence states:
      #              energy  rcut
      - 2s(2.00)   -13.751   0.635
      - 2p(2.00)    -5.284   0.635
      -  s          13.461   0.635
      -  p          21.927   0.635
      -  d           0.000   0.635
  
    # LCAO basis set for C:
    #   Name: dzp
    #   File: /home/modules/software/GPAW-setups/0.9.20000/C.dzp.basis.gz
    #   Number of radial functions: 5
    #   Number of spherical harmonics: 13
    #     l=0, rc=5.5469 Bohr: 2s-sz confined orbital
    #     l=1, rc=6.6719 Bohr: 2p-sz confined orbital
    #     l=0, rc=3.0312 Bohr: 2s-dz split-valence wave
    #     l=1, rc=3.7500 Bohr: 2p-dz split-valence wave
    #     l=2, rc=6.6719 Bohr: d-type Gaussian polarization
    #   Number of RI-basis functions 0

Reference energy: -19802646.917894  # eV

Spin-paired calculation

Convergence criteria:
 Maximum [total energy] change in last 3 cyles: 0.0005 eV / electron
 Maximum integral of absolute [dens]ity change: 0.0001 electrons / valence electron
 Maximum integral of absolute [eigenst]ate change: 4e-08 eV^2 / valence electron
 Maximum number of scf [iter]ations: 333
 (Square brackets indicate name in SCF output, whereas a 'c' in
 the SCF output indicates the quantity has converged.)

Symmetries present (total): 2

  ( 1  0  0)  (-1  0  0)
  ( 0  1  0)  (-1  1  0)
  ( 0  0  1)  ( 0  0  1)
Note: your k-points are not as symmetric as your crystal!

16 k-points: 4 x 4 x 1 Monkhorst-Pack grid
8 k-points in the irreducible part of the Brillouin zone
       k-points in crystal coordinates                weights
   0:     0.12500000   -0.37500000    0.00000000          2/16
   1:     0.12500000   -0.12500000    0.00000000          2/16
   2:     0.12500000    0.12500000    0.00000000          2/16
   3:     0.12500000    0.37500000    0.00000000          2/16
   4:     0.37500000   -0.37500000    0.00000000          2/16
   5:     0.37500000   -0.12500000    0.00000000          2/16
   6:     0.37500000    0.12500000    0.00000000          2/16
   7:     0.37500000    0.37500000    0.00000000          2/16

Wave functions: Uniform real-space grid
  Kinetic energy operator: 8*3+1=25 point O(h^6) finite-difference Laplacian
  ScaLapack parameters: grid=1x1, blocksize=None
  Wavefunction extrapolation:
    Improved wavefunction reuse through dual PAW basis 

Occupation numbers: Fermi-Dirac:
  width: 0.1000  # eV
 

Eigensolver
   Davidson(niter=2) 

Densities:
  Coarse grid: 52*52*160 grid
  Fine grid: 104*104*320 grid
  Total Charge: 0.000000 

Density mixing:
  Method: separate
  Backend: pulay
  Linear mixing parameter: 0.05
  old densities: 5
  Damping of long wavelength oscillations: 50 

Hamiltonian:
  XC and Coulomb potentials evaluated on a 104*104*320 grid
  Using the BEEF-vdW Exchange-Correlation functional
  Interpolation: tri-quintic (5. degree polynomial)
  Poisson solver: FastPoissonSolver using
    Stencil: 8*3+1=25 point O(h^6) finite-difference Laplacian
    FFT axes: [0, 1]
    FST axes: [2]
 

XC parameters: BEEF-vdW with 2 nearest neighbor stencil

Memory estimate:
  Process memory now: 244.50 MiB
  Calculator: 842.51 MiB
    Density: 66.29 MiB
      Arrays: 16.88 MiB
      Localized functions: 43.02 MiB
      Mixer: 6.40 MiB
    Hamiltonian: 13.75 MiB
      Arrays: 11.04 MiB
      XC: 0.00 MiB
      Poisson: 0.00 MiB
      vbar: 2.71 MiB
    Wavefunctions: 762.47 MiB
      Arrays psit_nG: 368.37 MiB
      Eigensolver: 387.43 MiB
      Projections: 0.58 MiB
      Projectors: 6.09 MiB

Total number of cores used: 40
Parallelization over k-points: 8
Domain decomposition: 1 x 1 x 5

Number of atoms: 37
Number of atomic orbitals: 841
Number of bands in calculation: 288
Number of valence electrons: 472
Bands to converge: occupied

... initialized

Initializing position-dependent things.

Density initialized from atomic densities
Creating initial wave functions:
  288 bands from LCAO basis set

                                                             
                                                             
                                                             
                                                             
                                      C                      
                                  Tl       Tl       Tl       
                                                             
                            Tl       Tl       Tl             
                                                             
                      Tl       Tl      Tl                    
                         Tl      Tl       Tl                 
                                                             
                  Tl       Tl       Tl                       
                             Tl       Tl       Tl            
            Tl       Tl       Tl                             
                       Tl       Tl       Tl                  
                 Tl       Tl      Tl                         
                                                             
                    Tl      Tl       Tl                      
             Tl       Tl       Tl                            
                                                             
       Tl       Tl       Tl                                  
                                                             
                                                             
                                                             
                                                             

Positions:
   0 Tl     0.000000    0.000000   10.000000    ( 0.0000,  0.0000,  0.0000)
   1 Tl     3.527816    2.036786   12.880450    ( 0.0000,  0.0000,  0.0000)
   2 Tl     1.764813    1.018915   15.753208    ( 0.0000,  0.0000,  0.0000)
   3 Tl     5.291724    3.055179   18.682936    ( 0.0000,  0.0000,  0.0000)
   4 Tl     1.763908    3.055179   10.000000    ( 0.0000,  0.0000,  0.0000)
   5 Tl     5.291724    5.091964   12.880450    ( 0.0000,  0.0000,  0.0000)
   6 Tl     3.536429    4.068599   15.756428    ( 0.0000,  0.0000,  0.0000)
   7 Tl     7.055234    6.110037   18.676583    ( 0.0000,  0.0000,  0.0000)
   8 Tl     3.527816    6.110357   10.000000    ( 0.0000,  0.0000,  0.0000)
   9 Tl     7.055633    8.147143   12.880450    ( 0.0000,  0.0000,  0.0000)
  10 Tl     5.291724    7.127705   15.753208    ( 0.0000,  0.0000,  0.0000)
  11 Tl     8.819619    9.166041   18.676583    ( 0.0000,  0.0000,  0.0000)
  12 Tl     3.527816    0.000000   10.000000    ( 0.0000,  0.0000,  0.0000)
  13 Tl     7.055633    2.036786   12.880450    ( 0.0000,  0.0000,  0.0000)
  14 Tl     5.291724    1.028338   15.756428    ( 0.0000,  0.0000,  0.0000)
  15 Tl     8.819065    3.054993   18.676583    ( 0.0000,  0.0000,  0.0000)
  16 Tl     5.291724    3.055179   10.000000    ( 0.0000,  0.0000,  0.0000)
  17 Tl     8.819541    5.091964   12.880450    ( 0.0000,  0.0000,  0.0000)
  18 Tl     7.047020    4.068599   15.756428    ( 0.0000,  0.0000,  0.0000)
  19 Tl    10.583449    6.110357   18.680650    ( 0.0000,  0.0000,  0.0000)
  20 Tl     7.055633    6.110357   10.000000    ( 0.0000,  0.0000,  0.0000)
  21 Tl    10.583449    8.147143   12.880450    ( 0.0000,  0.0000,  0.0000)
  22 Tl     8.816138    7.130714   15.755224    ( 0.0000,  0.0000,  0.0000)
  23 Tl    12.347279    9.166041   18.676583    ( 0.0000,  0.0000,  0.0000)
  24 Tl     7.055633    0.000000   10.000000    ( 0.0000,  0.0000,  0.0000)
  25 Tl    10.583449    2.036786   12.880450    ( 0.0000,  0.0000,  0.0000)
  26 Tl     8.818636    1.018915   15.753208    ( 0.0000,  0.0000,  0.0000)
  27 Tl    12.347833    3.054993   18.676583    ( 0.0000,  0.0000,  0.0000)
  28 Tl     8.819541    3.055179   10.000000    ( 0.0000,  0.0000,  0.0000)
  29 Tl    12.347357    5.091964   12.880450    ( 0.0000,  0.0000,  0.0000)
  30 Tl    10.583449    4.069643   15.755224    ( 0.0000,  0.0000,  0.0000)
  31 Tl    14.111664    6.110037   18.676583    ( 0.0000,  0.0000,  0.0000)
  32 Tl    10.583449    6.110357   10.000000    ( 0.0000,  0.0000,  0.0000)
  33 Tl    14.111265    8.147143   12.880450    ( 0.0000,  0.0000,  0.0000)
  34 Tl    12.350760    7.130714   15.755224    ( 0.0000,  0.0000,  0.0000)
  35 Tl    15.875173    9.165536   18.652511    ( 0.0000,  0.0000,  0.0000)
  36 C     10.583449    8.147374   19.699159    ( 0.0000,  0.0000,  0.0000)

Unit cell:
           periodic     x           y           z      points  spacing
  1. axis:    yes   10.583449    0.000000    0.000000    52     0.1763
  2. axis:    yes    5.291724    9.165536    0.000000    52     0.1763
  3. axis:    no     0.000000    0.000000   28.641350   160     0.1790

  Lengths:  10.583449  10.583449  28.641350
  Angles:   90.000000  90.000000  60.000000

Effective grid spacing dv^(1/3) = 0.1859

     iter     time        total  log10-change:
                         energy  eigst   dens
iter:   1 16:42:09 -12534.304298
iter:   2 16:42:50 -12532.964610  -0.85  -1.41
iter:   3 16:43:32 -12532.099286  -1.25  -1.44
iter:   4 16:44:13 -12531.740383  -1.98  -1.52
iter:   5 16:44:55 -12533.826755  -1.14  -1.54
iter:   6 16:45:37 -12532.060811  -1.38  -1.64
iter:   7 16:46:18 -12532.368169  -1.51  -1.95
iter:   8 16:47:00 -12531.603313  -1.86  -2.21
iter:   9 16:47:41 -12531.526041  -2.26  -2.22
iter:  10 16:48:23 -12531.455806c -2.54  -2.33
iter:  11 16:49:04 -12531.384948c -2.76  -2.38
iter:  12 16:49:46 -12531.361770c -2.98  -2.57
iter:  13 16:50:27 -12531.348585c -3.22  -2.65
iter:  14 16:51:09 -12531.340920c -3.26  -2.74
iter:  15 16:51:51 -12531.344410c -3.56  -2.90
iter:  16 16:52:32 -12531.348259c -3.68  -2.91
iter:  17 16:53:14 -12531.350908c -3.73  -3.01
iter:  18 16:53:55 -12531.350748c -3.98  -3.11
iter:  19 16:54:37 -12531.350683c -4.26  -3.24
iter:  20 16:55:18 -12531.350242c -4.56  -3.33
iter:  21 16:56:00 -12531.348818c -4.56  -3.41
iter:  22 16:56:41 -12531.348588c -4.82  -3.71
iter:  23 16:57:23 -12531.348533c -5.95  -4.03c
iter:  24 16:58:04 -12531.348497c -6.20  -4.07c
iter:  25 16:58:46 -12531.348474c -6.21  -4.16c
iter:  26 16:59:28 -12531.348455c -6.64  -4.37c
iter:  27 17:00:09 -12531.348452c -7.07  -4.44c
iter:  28 17:00:51 -12531.348438c -7.06  -4.51c
iter:  29 17:01:32 -12531.348434c -7.59c -4.57c

Converged after 29 iterations.

Dipole moment: (-26.041630, -14.666693, -0.355342) |e|*Ang

Energy contributions relative to reference atoms: (reference = -19802646.917894)

Kinetic:       +1273.107855
Potential:     -1199.452248
External:        +0.000000
XC:            -12604.508698
Entropy (-ST):   -0.837554
Local:           -0.076566
--------------------------
Free energy:   -12531.767211
Extrapolated:  -12531.348434

Showing only first 2 kpts
 Kpt  Band  Eigenvalues  Occupancy
  0   234     -4.16935    1.78606
  0   235     -4.01933    1.30131
  0   236     -3.93795    0.90433
  0   237     -3.81024    0.37419

  1   234     -4.05142    1.43932
  1   235     -3.97559    1.09197
  1   236     -3.96501    1.03932
  1   237     -3.90030    0.72321


Fermi level: -3.95714

No gap

Forces in eV/Ang:
  0 Tl   -0.00000    0.01547   -0.01726
  1 Tl    0.00123   -0.00296    0.03756
  2 Tl    0.04366   -0.02330    0.00246
  3 Tl   -0.00000    0.02527   -0.01734
  4 Tl    0.00344    0.01179   -0.07421
  5 Tl   -0.00000    0.01959    0.03977
  6 Tl    0.02897    0.00794    0.00200
  7 Tl   -0.02243   -0.01060   -0.00071
  8 Tl   -0.05665    0.00543   -0.08824
  9 Tl    0.00206   -0.02098    0.04252
 10 Tl    0.00000   -0.02378   -0.00137
 11 Tl   -0.25453    0.14945    0.12338
 12 Tl    0.05017   -0.01377   -0.13828
 13 Tl   -0.00123   -0.00296    0.03756
 14 Tl   -0.00000    0.09122   -0.01798
 15 Tl   -0.02004    0.01474    0.09468
 16 Tl    0.00000   -0.05867   -0.10510
 17 Tl    0.00412    0.02579    0.05555
 18 Tl   -0.02897    0.00794    0.00200
 19 Tl    0.00000   -0.30019    0.09754
 20 Tl    0.05665    0.00543   -0.08824
 21 Tl    0.00000   -0.02607    0.04407
 22 Tl   -0.06788   -0.03686   -0.01533
 23 Tl    0.25453    0.14945    0.12338
 24 Tl   -0.05017   -0.01377   -0.13828
 25 Tl    0.00000   -0.00629   -0.11584
 26 Tl   -0.04366   -0.02330    0.00246
 27 Tl    0.02004    0.01474    0.09468
 28 Tl   -0.00344    0.01179   -0.07421
 29 Tl   -0.00412    0.02579    0.05555
 30 Tl   -0.00000    0.04436    0.01036
 31 Tl    0.02243   -0.01060   -0.00071
 32 Tl   -0.00000    0.02992   -0.14976
 33 Tl   -0.00206   -0.02098    0.04252
 34 Tl    0.06788   -0.03686   -0.01533
 35 Tl    0.00000   -0.02420    0.06202
 36 C    -0.00000    0.01700   -0.17148

      Step     Time          Energy         fmax
BFGS:    0 17:01:45   -12531.348434        0.3199
System changes: positions 

Initializing position-dependent things.

Density initialized from wave functions
                                                             
                                                             
                                                             
                                                             
                                      C                      
                                  Tl       Tl       Tl       
                                                             
                            Tl       Tl       Tl             
                                                             
                      Tl       Tl      Tl                    
                         Tl      Tl       Tl                 
                                                             
                  Tl       Tl       Tl                       
                             Tl       Tl       Tl            
            Tl       Tl       Tl                             
                       Tl       Tl       Tl                  
                 Tl       Tl      Tl                         
                                                             
                    Tl      Tl       Tl                      
             Tl       Tl       Tl                            
                                                             
       Tl       Tl       Tl                                  
                                                             
                                                             
                                                             
                                                             

Positions:
   0 Tl     0.000000    0.000000   10.000000    ( 0.0000,  0.0000,  0.0000)
   1 Tl     3.527816    2.036786   12.880450    ( 0.0000,  0.0000,  0.0000)
   2 Tl     1.765437    1.018582   15.753243    ( 0.0000,  0.0000,  0.0000)
   3 Tl     5.291724    3.055540   18.682688    ( 0.0000,  0.0000,  0.0000)
   4 Tl     1.763908    3.055179   10.000000    ( 0.0000,  0.0000,  0.0000)
   5 Tl     5.291724    5.091964   12.880450    ( 0.0000,  0.0000,  0.0000)
   6 Tl     3.536843    4.068712   15.756456    ( 0.0000,  0.0000,  0.0000)
   7 Tl     7.054914    6.109886   18.676573    ( 0.0000,  0.0000,  0.0000)
   8 Tl     3.527816    6.110357   10.000000    ( 0.0000,  0.0000,  0.0000)
   9 Tl     7.055633    8.147143   12.880450    ( 0.0000,  0.0000,  0.0000)
  10 Tl     5.291724    7.127366   15.753188    ( 0.0000,  0.0000,  0.0000)
  11 Tl     8.815982    9.168175   18.678345    ( 0.0000,  0.0000,  0.0000)
  12 Tl     3.527816    0.000000   10.000000    ( 0.0000,  0.0000,  0.0000)
  13 Tl     7.055633    2.036786   12.880450    ( 0.0000,  0.0000,  0.0000)
  14 Tl     5.291724    1.029642   15.756171    ( 0.0000,  0.0000,  0.0000)
  15 Tl     8.818778    3.055204   18.677935    ( 0.0000,  0.0000,  0.0000)
  16 Tl     5.291724    3.055179   10.000000    ( 0.0000,  0.0000,  0.0000)
  17 Tl     8.819541    5.091964   12.880450    ( 0.0000,  0.0000,  0.0000)
  18 Tl     7.046606    4.068712   15.756456    ( 0.0000,  0.0000,  0.0000)
  19 Tl    10.583449    6.106069   18.682044    ( 0.0000,  0.0000,  0.0000)
  20 Tl     7.055633    6.110357   10.000000    ( 0.0000,  0.0000,  0.0000)
  21 Tl    10.583449    8.147143   12.880450    ( 0.0000,  0.0000,  0.0000)
  22 Tl     8.815169    7.130188   15.755005    ( 0.0000,  0.0000,  0.0000)
  23 Tl    12.350916    9.168175   18.678345    ( 0.0000,  0.0000,  0.0000)
  24 Tl     7.055633    0.000000   10.000000    ( 0.0000,  0.0000,  0.0000)
  25 Tl    10.583449    2.036786   12.880450    ( 0.0000,  0.0000,  0.0000)
  26 Tl     8.818012    1.018582   15.753243    ( 0.0000,  0.0000,  0.0000)
  27 Tl    12.348120    3.055204   18.677935    ( 0.0000,  0.0000,  0.0000)
  28 Tl     8.819541    3.055179   10.000000    ( 0.0000,  0.0000,  0.0000)
  29 Tl    12.347357    5.091964   12.880450    ( 0.0000,  0.0000,  0.0000)
  30 Tl    10.583449    4.070276   15.755372    ( 0.0000,  0.0000,  0.0000)
  31 Tl    14.111984    6.109886   18.676573    ( 0.0000,  0.0000,  0.0000)
  32 Tl    10.583449    6.110357   10.000000    ( 0.0000,  0.0000,  0.0000)
  33 Tl    14.111265    8.147143   12.880450    ( 0.0000,  0.0000,  0.0000)
  34 Tl    12.351729    7.130188   15.755005    ( 0.0000,  0.0000,  0.0000)
  35 Tl    15.875173    9.165190   18.653397    ( 0.0000,  0.0000,  0.0000)
  36 C     10.583449    8.147617   19.696709    ( 0.0000,  0.0000,  0.0000)

Unit cell:
           periodic     x           y           z      points  spacing
  1. axis:    yes   10.583449    0.000000    0.000000    52     0.1763
  2. axis:    yes    5.291724    9.165536    0.000000    52     0.1763
  3. axis:    no     0.000000    0.000000   28.641350   160     0.1790

  Lengths:  10.583449  10.583449  28.641350
  Angles:   90.000000  90.000000  60.000000

Effective grid spacing dv^(1/3) = 0.1859

     iter     time        total  log10-change:
                         energy  eigst   dens
iter:   1 17:02:57 -12531.353777  -3.76
iter:   2 17:03:40 -12531.353787  -4.76  -3.79
iter:   3 17:04:22 -12531.353799c -5.36  -3.97
iter:   4 17:05:04 -12531.353754c -5.97  -4.07c
iter:   5 17:05:45 -12531.353719c -5.97  -4.20c
iter:   6 17:06:27 -12531.353750c -6.17  -4.40c
iter:   7 17:07:09 -12531.353754c -6.80  -4.48c
iter:   8 17:07:51 -12531.353745c -7.09  -4.61c
iter:   9 17:08:32 -12531.353725c -7.34  -4.69c
iter:  10 17:09:14 -12531.353721c -7.80c -4.79c

Converged after 10 iterations.

Dipole moment: (-26.235979, -14.937483, -0.354701) |e|*Ang

Energy contributions relative to reference atoms: (reference = -19802646.917894)

Kinetic:       +1274.308484
Potential:     -1200.586270
External:        +0.000000
XC:            -12604.546354
Entropy (-ST):   -0.837771
Local:           -0.110695
--------------------------
Free energy:   -12531.772606
Extrapolated:  -12531.353721

Showing only first 2 kpts
 Kpt  Band  Eigenvalues  Occupancy
  0   234     -4.16818    1.78459
  0   235     -4.01881    1.30073
  0   236     -3.93782    0.90569
  0   237     -3.80954    0.37327

  1   234     -4.05067    1.43792
  1   235     -3.97565    1.09427
  1   236     -3.96448    1.03869
  1   237     -3.90054    0.72616


Fermi level: -3.95674

No gap

Forces in eV/Ang:
  0 Tl   -0.00000    0.01586   -0.01731
  1 Tl    0.00007   -0.00103    0.03523
  2 Tl    0.03780   -0.02043    0.00216
  3 Tl   -0.00000    0.02388   -0.01661
  4 Tl    0.00288    0.01139   -0.07420
  5 Tl   -0.00000    0.01949    0.04063
  6 Tl    0.02594    0.00740    0.00234
  7 Tl   -0.02121   -0.00971   -0.00001
  8 Tl   -0.05610    0.00549   -0.08714
  9 Tl   -0.00015   -0.02090    0.04021
 10 Tl    0.00000   -0.02198   -0.00116
 11 Tl   -0.22296    0.13182    0.13240
 12 Tl    0.04802   -0.01267   -0.13713
 13 Tl   -0.00007   -0.00103    0.03523
 14 Tl   -0.00000    0.08193   -0.01156
 15 Tl   -0.01984    0.01260    0.08986
 16 Tl    0.00000   -0.05829   -0.10391
 17 Tl    0.00295    0.02361    0.05366
 18 Tl   -0.02594    0.00740    0.00234
 19 Tl    0.00000   -0.26369    0.10790
 20 Tl    0.05610    0.00549   -0.08714
 21 Tl    0.00000   -0.02581    0.04464
 22 Tl   -0.06057   -0.03249   -0.00951
 23 Tl    0.22296    0.13182    0.13240
 24 Tl   -0.04802   -0.01267   -0.13713
 25 Tl    0.00000   -0.00621   -0.11229
 26 Tl   -0.03780   -0.02043    0.00216
 27 Tl    0.01984    0.01260    0.08986
 28 Tl   -0.00288    0.01139   -0.07420
 29 Tl   -0.00295    0.02361    0.05366
 30 Tl   -0.00000    0.03594    0.00935
 31 Tl    0.02121   -0.00971   -0.00001
 32 Tl   -0.00000    0.02771   -0.14878
 33 Tl    0.00015   -0.02090    0.04021
 34 Tl    0.06057   -0.03249   -0.00951
 35 Tl    0.00000   -0.02434    0.05885
 36 C    -0.00000    0.00772   -0.18972

BFGS:    1 17:09:27   -12531.353721        0.2909
System changes: positions 

Initializing position-dependent things.

Density initialized from wave functions
                                                             
                                                             
                                                             
                                                             
                                      C                      
                                  Tl       Tl       Tl       
                                                             
                            Tl       Tl       Tl             
                                                             
                      Tl       Tl      Tl                    
                         Tl      Tl       Tl                 
                                                             
                  Tl       Tl       Tl                       
                             Tl       Tl       Tl            
            Tl       Tl      Tl                              
                       Tl       Tl       Tl                  
                 Tl       Tl      Tl                         
                                                             
                    Tl      Tl       Tl                      
             Tl       Tl       Tl                            
                                                             
       Tl       Tl       Tl                                  
                                                             
                                                             
                                                             
                                                             

Positions:
   0 Tl     0.000000    0.000000   10.000000    ( 0.0000,  0.0000,  0.0000)
   1 Tl     3.527816    2.036786   12.880450    ( 0.0000,  0.0000,  0.0000)
   2 Tl     1.772903    1.014552   15.753668    ( 0.0000,  0.0000,  0.0000)
   3 Tl     5.291724    3.060220   18.679437    ( 0.0000,  0.0000,  0.0000)
   4 Tl     1.763908    3.055179   10.000000    ( 0.0000,  0.0000,  0.0000)
   5 Tl     5.291724    5.091964   12.880450    ( 0.0000,  0.0000,  0.0000)
   6 Tl     3.541951    4.070163   15.756908    ( 0.0000,  0.0000,  0.0000)
   7 Tl     7.050758    6.107978   18.676559    ( 0.0000,  0.0000,  0.0000)
   8 Tl     3.527816    6.110357   10.000000    ( 0.0000,  0.0000,  0.0000)
   9 Tl     7.055633    8.147143   12.880450    ( 0.0000,  0.0000,  0.0000)
  10 Tl     5.291724    7.123049   15.752959    ( 0.0000,  0.0000,  0.0000)
  11 Tl     8.771995    9.194166   18.704026    ( 0.0000,  0.0000,  0.0000)
  12 Tl     3.527816    0.000000   10.000000    ( 0.0000,  0.0000,  0.0000)
  13 Tl     7.055633    2.036786   12.880450    ( 0.0000,  0.0000,  0.0000)
  14 Tl     5.291724    1.045770   15.753815    ( 0.0000,  0.0000,  0.0000)
  15 Tl     8.814905    3.057696   18.695538    ( 0.0000,  0.0000,  0.0000)
  16 Tl     5.291724    3.055179   10.000000    ( 0.0000,  0.0000,  0.0000)
  17 Tl     8.819541    5.091964   12.880450    ( 0.0000,  0.0000,  0.0000)
  18 Tl     7.041498    4.070163   15.756908    ( 0.0000,  0.0000,  0.0000)
  19 Tl    10.583449    6.054059   18.702924    ( 0.0000,  0.0000,  0.0000)
  20 Tl     7.055633    6.110357   10.000000    ( 0.0000,  0.0000,  0.0000)
  21 Tl    10.583449    8.147143   12.880450    ( 0.0000,  0.0000,  0.0000)
  22 Tl     8.803238    7.123782   15.753058    ( 0.0000,  0.0000,  0.0000)
  23 Tl    12.394903    9.194166   18.704026    ( 0.0000,  0.0000,  0.0000)
  24 Tl     7.055633    0.000000   10.000000    ( 0.0000,  0.0000,  0.0000)
  25 Tl    10.583449    2.036786   12.880450    ( 0.0000,  0.0000,  0.0000)
  26 Tl     8.810546    1.014552   15.753668    ( 0.0000,  0.0000,  0.0000)
  27 Tl    12.351993    3.057696   18.695538    ( 0.0000,  0.0000,  0.0000)
  28 Tl     8.819541    3.055179   10.000000    ( 0.0000,  0.0000,  0.0000)
  29 Tl    12.347357    5.091964   12.880450    ( 0.0000,  0.0000,  0.0000)
  30 Tl    10.583449    4.077419   15.757213    ( 0.0000,  0.0000,  0.0000)
  31 Tl    14.116140    6.107978   18.676559    ( 0.0000,  0.0000,  0.0000)
  32 Tl    10.583449    6.110357   10.000000    ( 0.0000,  0.0000,  0.0000)
  33 Tl    14.111265    8.147143   12.880450    ( 0.0000,  0.0000,  0.0000)
  34 Tl    12.363659    7.123782   15.753058    ( 0.0000,  0.0000,  0.0000)
  35 Tl    15.875173    9.160444   18.664926    ( 0.0000,  0.0000,  0.0000)
  36 C     10.583449    8.149269   19.659993    ( 0.0000,  0.0000,  0.0000)

Unit cell:
           periodic     x           y           z      points  spacing
  1. axis:    yes   10.583449    0.000000    0.000000    52     0.1763
  2. axis:    yes    5.291724    9.165536    0.000000    52     0.1763
  3. axis:    no     0.000000    0.000000   28.641350   160     0.1790

  Lengths:  10.583449  10.583449  28.641350
  Angles:   90.000000  90.000000  60.000000

Effective grid spacing dv^(1/3) = 0.1859

     iter     time        total  log10-change:
                         energy  eigst   dens
iter:   1 17:10:39 -12531.440386  -1.61
iter:   2 17:11:21 -12531.429859  -2.59  -2.57
iter:   3 17:12:03 -12531.407316c -3.27  -2.58
iter:   4 17:12:44 -12531.398007c -3.55  -2.83
iter:   5 17:13:26 -12531.396833c -3.86  -3.14
iter:   6 17:14:08 -12531.396935c -4.29  -3.35
iter:   7 17:14:50 -12531.397506c -4.71  -3.41
iter:   8 17:15:32 -12531.397866c -4.73  -3.54
iter:   9 17:16:14 -12531.397629c -5.14  -3.63
iter:  10 17:16:56 -12531.397614c -5.72  -3.79
iter:  11 17:17:37 -12531.397725c -5.72  -3.89
iter:  12 17:18:19 -12531.397742c -5.93  -3.98
iter:  13 17:19:01 -12531.397754c -6.25  -4.21c
iter:  14 17:19:43 -12531.397756c -6.40  -4.28c
iter:  15 17:20:25 -12531.397756c -6.60  -4.40c
iter:  16 17:21:07 -12531.397758c -6.88  -4.59c
iter:  17 17:21:49 -12531.397749c -7.38  -4.79c
iter:  18 17:22:30 -12531.397745c -7.44c -4.83c

Converged after 18 iterations.

Dipole moment: (-28.628144, -18.140518, -0.340374) |e|*Ang

Energy contributions relative to reference atoms: (reference = -19802646.917894)

Kinetic:       +1272.964484
Potential:     -1199.614988
External:        +0.000000
XC:            -12604.207972
Entropy (-ST):   -0.839994
Local:           -0.119271
--------------------------
Free energy:   -12531.817742
Extrapolated:  -12531.397745

Showing only first 2 kpts
 Kpt  Band  Eigenvalues  Occupancy
  0   234     -4.15576    1.76583
  0   235     -4.01477    1.29606
  0   236     -3.93756    0.91932
  0   237     -3.80451    0.36719

  1   234     -4.04371    1.42181
  1   235     -3.97848    1.12311
  1   236     -3.95866    1.02462
  1   237     -3.90601    0.76581


Fermi level: -3.95373

No gap

Forces in eV/Ang:
  0 Tl   -0.00000    0.01324   -0.01733
  1 Tl   -0.00485   -0.00096    0.02872
  2 Tl    0.01974   -0.01748    0.00181
  3 Tl   -0.00000    0.01475   -0.00943
  4 Tl    0.00449    0.01264   -0.07401
  5 Tl   -0.00000    0.02014    0.03576
  6 Tl    0.00067   -0.00115    0.00624
  7 Tl   -0.00860   -0.00315    0.00437
  8 Tl   -0.05756    0.00682   -0.08820
  9 Tl   -0.00256   -0.01762    0.03325
 10 Tl    0.00000   -0.00331    0.00348
 11 Tl    0.02960    0.02274    0.15417
 12 Tl    0.04699   -0.01234   -0.13768
 13 Tl    0.00485   -0.00096    0.02872
 14 Tl   -0.00000    0.01564    0.01701
 15 Tl   -0.00360   -0.01378    0.06959
 16 Tl    0.00000   -0.06028   -0.10547
 17 Tl    0.00514    0.01972    0.04879
 18 Tl   -0.00067   -0.00115    0.00624
 19 Tl   -0.00000    0.01760    0.16365
 20 Tl    0.05756    0.00682   -0.08820
 21 Tl    0.00000   -0.02547    0.05198
 22 Tl   -0.00907   -0.00473    0.01488
 23 Tl   -0.02960    0.02274    0.15417
 24 Tl   -0.04699   -0.01234   -0.13768
 25 Tl    0.00000   -0.00602   -0.09571
 26 Tl   -0.01974   -0.01748    0.00181
 27 Tl    0.00360   -0.01378    0.06959
 28 Tl   -0.00449    0.01264   -0.07401
 29 Tl   -0.00514    0.01972    0.04879
 30 Tl   -0.00000    0.00446    0.00884
 31 Tl    0.00860   -0.00315    0.00437
 32 Tl   -0.00000    0.02652   -0.14980
 33 Tl    0.00256   -0.01762    0.03325
 34 Tl    0.00907   -0.00473    0.01488
 35 Tl    0.00000   -0.02312    0.06412
 36 C     0.00000   -0.02560   -0.31816

BFGS:    2 17:22:43   -12531.397745        0.3192
System changes: positions 

Initializing position-dependent things.

Density initialized from wave functions
                                                             
                                                             
                                                             
                                                             
                                      C                      
                                  Tl       Tl       Tl       
                                                             
                            Tl       Tl       Tl             
                                                             
                      Tl       Tl      Tl                    
                        Tl       Tl       Tl                 
                                                             
                  Tl       Tl       Tl                       
                     Tl      Tl       Tl       Tl            
            Tl               Tl                              
                       Tl       Tl       Tl                  
                 Tl       Tl      Tl                         
                                                             
                    Tl      Tl       Tl                      
             Tl       Tl       Tl                            
                                                             
       Tl       Tl       Tl                                  
                                                             
                                                             
                                                             
                                                             

Positions:
   0 Tl     0.000000    0.000000   10.000000    ( 0.0000,  0.0000,  0.0000)
   1 Tl     3.527816    2.036786   12.880450    ( 0.0000,  0.0000,  0.0000)
   2 Tl     1.778264    1.011504   15.753989    ( 0.0000,  0.0000,  0.0000)
   3 Tl     5.291724    3.063604   18.677109    ( 0.0000,  0.0000,  0.0000)
   4 Tl     1.763908    3.055179   10.000000    ( 0.0000,  0.0000,  0.0000)
   5 Tl     5.291724    5.091964   12.880450    ( 0.0000,  0.0000,  0.0000)
   6 Tl     3.545308    4.071081   15.757340    ( 0.0000,  0.0000,  0.0000)
   7 Tl     7.047858    6.106660   18.676641    ( 0.0000,  0.0000,  0.0000)
   8 Tl     3.527816    6.110357   10.000000    ( 0.0000,  0.0000,  0.0000)
   9 Tl     7.055633    8.147143   12.880450    ( 0.0000,  0.0000,  0.0000)
  10 Tl     5.291724    7.120159   15.752889    ( 0.0000,  0.0000,  0.0000)
  11 Tl     8.743829    9.211725   18.724055    ( 0.0000,  0.0000,  0.0000)
  12 Tl     3.527816    0.000000   10.000000    ( 0.0000,  0.0000,  0.0000)
  13 Tl     7.055633    2.036786   12.880450    ( 0.0000,  0.0000,  0.0000)
  14 Tl     5.291724    1.056678   15.752597    ( 0.0000,  0.0000,  0.0000)
  15 Tl     8.812317    3.059016   18.708585    ( 0.0000,  0.0000,  0.0000)
  16 Tl     5.291724    3.055179   10.000000    ( 0.0000,  0.0000,  0.0000)
  17 Tl     8.819541    5.091964   12.880450    ( 0.0000,  0.0000,  0.0000)
  18 Tl     7.038141    4.071081   15.757340    ( 0.0000,  0.0000,  0.0000)
  19 Tl    10.583449    6.020366   18.720053    ( 0.0000,  0.0000,  0.0000)
  20 Tl     7.055633    6.110357   10.000000    ( 0.0000,  0.0000,  0.0000)
  21 Tl    10.583449    8.147143   12.880450    ( 0.0000,  0.0000,  0.0000)
  22 Tl     8.795221    7.119474   15.752063    ( 0.0000,  0.0000,  0.0000)
  23 Tl    12.423068    9.211725   18.724055    ( 0.0000,  0.0000,  0.0000)
  24 Tl     7.055633    0.000000   10.000000    ( 0.0000,  0.0000,  0.0000)
  25 Tl    10.583449    2.036786   12.880450    ( 0.0000,  0.0000,  0.0000)
  26 Tl     8.805185    1.011504   15.753989    ( 0.0000,  0.0000,  0.0000)
  27 Tl    12.354581    3.059016   18.708585    ( 0.0000,  0.0000,  0.0000)
  28 Tl     8.819541    3.055179   10.000000    ( 0.0000,  0.0000,  0.0000)
  29 Tl    12.347357    5.091964   12.880450    ( 0.0000,  0.0000,  0.0000)
  30 Tl    10.583449    4.082253   15.758620    ( 0.0000,  0.0000,  0.0000)
  31 Tl    14.119040    6.106660   18.676641    ( 0.0000,  0.0000,  0.0000)
  32 Tl    10.583449    6.110357   10.000000    ( 0.0000,  0.0000,  0.0000)
  33 Tl    14.111265    8.147143   12.880450    ( 0.0000,  0.0000,  0.0000)
  34 Tl    12.371677    7.119474   15.752063    ( 0.0000,  0.0000,  0.0000)
  35 Tl    15.875173    9.156846   18.673900    ( 0.0000,  0.0000,  0.0000)
  36 C     10.583449    8.149873   19.629172    ( 0.0000,  0.0000,  0.0000)

Unit cell:
           periodic     x           y           z      points  spacing
  1. axis:    yes   10.583449    0.000000    0.000000    52     0.1763
  2. axis:    yes    5.291724    9.165536    0.000000    52     0.1763
  3. axis:    no     0.000000    0.000000   28.641350   160     0.1790

  Lengths:  10.583449  10.583449  28.641350
  Angles:   90.000000  90.000000  60.000000

Effective grid spacing dv^(1/3) = 0.1859

     iter     time        total  log10-change:
                         energy  eigst   dens
iter:   1 17:23:55 -12531.418100  -1.93
iter:   2 17:24:37 -12531.416503  -2.92  -2.83
iter:   3 17:25:18 -12531.411188c -3.62  -2.87
iter:   4 17:26:00 -12531.408395c -3.94  -3.06
iter:   5 17:26:41 -12531.408304c -4.27  -3.33
iter:   6 17:27:23 -12531.408372c -4.71  -3.53
iter:   7 17:28:05 -12531.408495c -5.02  -3.57
iter:   8 17:28:46 -12531.408683c -5.01  -3.78
iter:   9 17:29:28 -12531.408582c -5.79  -3.89
iter:  10 17:30:09 -12531.408569c -5.83  -3.99
iter:  11 17:30:51 -12531.408560c -6.12  -4.04c
iter:  12 17:31:33 -12531.408624c -6.31  -4.23c
iter:  13 17:32:14 -12531.408630c -6.42  -4.34c
iter:  14 17:32:56 -12531.408633c -6.93  -4.45c
iter:  15 17:33:37 -12531.408628c -7.15  -4.55c
iter:  16 17:34:19 -12531.408624c -7.23  -4.63c
iter:  17 17:35:01 -12531.408613c -7.43c -4.75c

Converged after 17 iterations.

Dipole moment: (-30.220290, -20.208441, -0.327600) |e|*Ang

Energy contributions relative to reference atoms: (reference = -19802646.917894)

Kinetic:       +1272.074333
Potential:     -1198.932347
External:        +0.000000
XC:            -12604.008696
Entropy (-ST):   -0.841277
Local:           -0.121264
--------------------------
Free energy:   -12531.829251
Extrapolated:  -12531.408613

Showing only first 2 kpts
 Kpt  Band  Eigenvalues  Occupancy
  0   234     -4.14678    1.75323
  0   235     -4.01141    1.29454
  0   236     -3.93625    0.92784
  0   237     -3.80166    0.36769

  1   234     -4.03771    1.40949
  1   235     -3.97957    1.14333
  1   236     -3.95413    1.01711
  1   237     -3.90810    0.79011


Fermi level: -3.95071

No gap

Forces in eV/Ang:
  0 Tl   -0.00000    0.01058   -0.01732
  1 Tl   -0.01023   -0.00062    0.02249
  2 Tl    0.00335   -0.01128    0.00194
  3 Tl   -0.00000    0.00754   -0.00334
  4 Tl    0.00625    0.01391   -0.07382
  5 Tl   -0.00000    0.02056    0.03025
  6 Tl   -0.02090   -0.00804    0.01081
  7 Tl    0.00033    0.00184    0.00623
  8 Tl   -0.05754    0.00724   -0.08950
  9 Tl   -0.00558   -0.01384    0.02659
 10 Tl   -0.00000    0.01156    0.00888
 11 Tl    0.14719   -0.06856    0.14664
 12 Tl    0.04597   -0.01202   -0.13892
 13 Tl    0.01023   -0.00062    0.02249
 14 Tl    0.00000   -0.04015    0.04233
 15 Tl    0.00175   -0.02429    0.06592
 16 Tl    0.00000   -0.06053   -0.10705
 17 Tl    0.00738    0.01528    0.04401
 18 Tl    0.02090   -0.00804    0.01081
 19 Tl   -0.00000    0.23892    0.16475
 20 Tl    0.05754    0.00724   -0.08950
 21 Tl    0.00000   -0.02531    0.05761
 22 Tl    0.02753    0.01339    0.03735
 23 Tl   -0.14719   -0.06856    0.14664
 24 Tl   -0.04597   -0.01202   -0.13892
 25 Tl    0.00000   -0.00611   -0.08210
 26 Tl   -0.00335   -0.01128    0.00194
 27 Tl   -0.00175   -0.02429    0.06592
 28 Tl   -0.00625    0.01391   -0.07382
 29 Tl   -0.00738    0.01528    0.04401
 30 Tl    0.00000   -0.01920    0.00777
 31 Tl   -0.00033    0.00184    0.00623
 32 Tl   -0.00000    0.02552   -0.15143
 33 Tl    0.00558   -0.01384    0.02659
 34 Tl   -0.02753    0.01339    0.03735
 35 Tl    0.00000   -0.03104    0.06419
 36 C     0.00000   -0.03788   -0.36905

BFGS:    3 17:35:14   -12531.408613        0.3710
System changes: positions 

Initializing position-dependent things.

Density initialized from wave functions
                                                             
                                                             
                                                             
                                                             
                                      C                      
                                  Tl       Tl       Tl       
                                                             
                            Tl       Tl       Tl             
                                                             
                      Tl       Tl      Tl                    
                        Tl       Tl       Tl                 
                                                             
                  Tl       Tl       Tl                       
            Tl       Tl      Tl       Tl       Tl            
                                                             
                       Tl       Tl       Tl                  
                 Tl       Tl      Tl                         
                                                             
                    Tl      Tl       Tl                      
             Tl       Tl       Tl                            
                                                             
       Tl       Tl       Tl                                  
                                                             
                                                             
                                                             
                                                             

Positions:
   0 Tl     0.000000    0.000000   10.000000    ( 0.0000,  0.0000,  0.0000)
   1 Tl     3.527816    2.036786   12.880450    ( 0.0000,  0.0000,  0.0000)
   2 Tl     1.779595    1.010607   15.754096    ( 0.0000,  0.0000,  0.0000)
   3 Tl     5.291724    3.064499   18.676526    ( 0.0000,  0.0000,  0.0000)
   4 Tl     1.763908    3.055179   10.000000    ( 0.0000,  0.0000,  0.0000)
   5 Tl     5.291724    5.091964   12.880450    ( 0.0000,  0.0000,  0.0000)
   6 Tl     3.545770    4.071168   15.757602    ( 0.0000,  0.0000,  0.0000)
   7 Tl     7.047197    6.106382   18.676748    ( 0.0000,  0.0000,  0.0000)
   8 Tl     3.527816    6.110357   10.000000    ( 0.0000,  0.0000,  0.0000)
   9 Tl     7.055633    8.147143   12.880450    ( 0.0000,  0.0000,  0.0000)
  10 Tl     5.291724    7.119670   15.753011    ( 0.0000,  0.0000,  0.0000)
  11 Tl     8.739383    9.214812   18.730718    ( 0.0000,  0.0000,  0.0000)
  12 Tl     3.527816    0.000000   10.000000    ( 0.0000,  0.0000,  0.0000)
  13 Tl     7.055633    2.036786   12.880450    ( 0.0000,  0.0000,  0.0000)
  14 Tl     5.291724    1.058612   15.752906    ( 0.0000,  0.0000,  0.0000)
  15 Tl     8.811759    3.058962   18.712615    ( 0.0000,  0.0000,  0.0000)
  16 Tl     5.291724    3.055179   10.000000    ( 0.0000,  0.0000,  0.0000)
  17 Tl     8.819541    5.091964   12.880450    ( 0.0000,  0.0000,  0.0000)
  18 Tl     7.037678    4.071168   15.757602    ( 0.0000,  0.0000,  0.0000)
  19 Tl    10.583449    6.016093   18.726327    ( 0.0000,  0.0000,  0.0000)
  20 Tl     7.055633    6.110357   10.000000    ( 0.0000,  0.0000,  0.0000)
  21 Tl    10.583449    8.147143   12.880450    ( 0.0000,  0.0000,  0.0000)
  22 Tl     8.793760    7.118660   15.752352    ( 0.0000,  0.0000,  0.0000)
  23 Tl    12.427515    9.214812   18.730718    ( 0.0000,  0.0000,  0.0000)
  24 Tl     7.055633    0.000000   10.000000    ( 0.0000,  0.0000,  0.0000)
  25 Tl    10.583449    2.036786   12.880450    ( 0.0000,  0.0000,  0.0000)
  26 Tl     8.803854    1.010607   15.754096    ( 0.0000,  0.0000,  0.0000)
  27 Tl    12.355139    3.058962   18.712615    ( 0.0000,  0.0000,  0.0000)
  28 Tl     8.819541    3.055179   10.000000    ( 0.0000,  0.0000,  0.0000)
  29 Tl    12.347357    5.091964   12.880450    ( 0.0000,  0.0000,  0.0000)
  30 Tl    10.583449    4.083147   15.759071    ( 0.0000,  0.0000,  0.0000)
  31 Tl    14.119701    6.106382   18.676748    ( 0.0000,  0.0000,  0.0000)
  32 Tl    10.583449    6.110357   10.000000    ( 0.0000,  0.0000,  0.0000)
  33 Tl    14.111265    8.147143   12.880450    ( 0.0000,  0.0000,  0.0000)
  34 Tl    12.373138    7.118660   15.752352    ( 0.0000,  0.0000,  0.0000)
  35 Tl    15.875173    9.155549   18.676962    ( 0.0000,  0.0000,  0.0000)
  36 C     10.583449    8.149542   19.616723    ( 0.0000,  0.0000,  0.0000)

Unit cell:
           periodic     x           y           z      points  spacing
  1. axis:    yes   10.583449    0.000000    0.000000    52     0.1763
  2. axis:    yes    5.291724    9.165536    0.000000    52     0.1763
  3. axis:    no     0.000000    0.000000   28.641350   160     0.1790

  Lengths:  10.583449  10.583449  28.641350
  Angles:   90.000000  90.000000  60.000000

Effective grid spacing dv^(1/3) = 0.1859

     iter     time        total  log10-change:
                         energy  eigst   dens
iter:   1 17:36:26 -12531.416774  -3.16
iter:   2 17:37:08 -12531.415238  -4.08  -3.23
iter:   3 17:37:50 -12531.414354c -4.79  -3.27
iter:   4 17:38:32 -12531.414007c -5.21  -3.59
iter:   5 17:39:13 -12531.414112c -5.21  -3.87
iter:   6 17:39:55 -12531.414105c -5.51  -4.06c
iter:   7 17:40:37 -12531.414031c -5.97  -4.14c
iter:   8 17:41:18 -12531.414041c -6.51  -4.42c
iter:   9 17:42:00 -12531.414036c -6.77  -4.46c
iter:  10 17:42:42 -12531.414045c -7.20  -4.53c
iter:  11 17:43:24 -12531.414027c -7.28  -4.63c
iter:  12 17:44:06 -12531.414020c -7.57c -4.75c

Converged after 12 iterations.

Dipole moment: (-30.527832, -20.528686, -0.322253) |e|*Ang

Energy contributions relative to reference atoms: (reference = -19802646.917894)

Kinetic:       +1272.020246
Potential:     -1198.888077
External:        +0.000000
XC:            -12604.001491
Entropy (-ST):   -0.841227
Local:           -0.124083
--------------------------
Free energy:   -12531.834633
Extrapolated:  -12531.414020

Showing only first 2 kpts
 Kpt  Band  Eigenvalues  Occupancy
  0   234     -4.14409    1.75104
  0   235     -4.00992    1.29539
  0   236     -3.93482    0.92911
  0   237     -3.80013    0.36814

  1   234     -4.03497    1.40510
  1   235     -3.97838    1.14574
  1   236     -3.95226    1.01618
  1   237     -3.90747    0.79516


Fermi level: -3.94903

No gap

Forces in eV/Ang:
  0 Tl   -0.00000    0.01161   -0.01781
  1 Tl   -0.01029    0.00037    0.02124
  2 Tl    0.00052   -0.01013    0.00346
  3 Tl   -0.00000    0.00538   -0.00367
  4 Tl    0.00521    0.01355   -0.07437
  5 Tl   -0.00000    0.02043    0.03767
  6 Tl   -0.01982   -0.00697    0.00851
  7 Tl    0.00328    0.00336    0.00574
  8 Tl   -0.05935    0.00821   -0.09018
  9 Tl   -0.00663   -0.01413    0.02478
 10 Tl   -0.00000    0.00893    0.00709
 11 Tl    0.15287   -0.07523    0.14162
 12 Tl    0.04514   -0.01166   -0.13829
 13 Tl    0.01029    0.00037    0.02124
 14 Tl    0.00000   -0.05039    0.04996
 15 Tl    0.00265   -0.02269    0.07011
 16 Tl    0.00000   -0.06250   -0.10769
 17 Tl    0.00670    0.01459    0.04255
 18 Tl    0.01982   -0.00697    0.00851
 19 Tl   -0.00000    0.23756    0.16003
 20 Tl    0.05935    0.00821   -0.09018
 21 Tl    0.00000   -0.02516    0.05611
 22 Tl    0.03439    0.01749    0.04651
 23 Tl   -0.15287   -0.07523    0.14162
 24 Tl   -0.04514   -0.01166   -0.13829
 25 Tl    0.00000   -0.00633   -0.08138
 26 Tl   -0.00052   -0.01013    0.00346
 27 Tl   -0.00265   -0.02269    0.07011
 28 Tl   -0.00521    0.01355   -0.07437
 29 Tl   -0.00670    0.01459    0.04255
 30 Tl    0.00000   -0.02365    0.00916
 31 Tl   -0.00328    0.00336    0.00574
 32 Tl   -0.00000    0.02458   -0.15086
 33 Tl    0.00663   -0.01413    0.02478
 34 Tl   -0.03439    0.01749    0.04651
 35 Tl    0.00000   -0.03362    0.06826
 36 C     0.00000   -0.01567   -0.35385

BFGS:    4 17:44:18   -12531.414020        0.3542
System changes: positions 

Initializing position-dependent things.

Density initialized from wave functions
                                                             
                                                             
                                                             
                                                             
                                  Tl  C    Tl                
                                                    Tl       
                            Tl       Tl       Tl             
                                                             
                      Tl       Tl      Tl                    
                        Tl       Tl       Tl                 
                                                             
                  Tl       Tl       Tl                       
                             Tl       Tl       Tl            
            Tl       Tl      Tl                              
                       Tl       Tl       Tl                  
                                                             
                 Tl       Tl      Tl                         
                    Tl      Tl       Tl                      
                                                             
             Tl       Tl       Tl                            
       Tl       Tl       Tl                                  
                                                             
                                                             
                                                             
                                                             

Positions:
   0 Tl     0.000000    0.000000   10.000000    ( 0.0000,  0.0000,  0.0000)
   1 Tl     3.527816    2.036786   12.880450    ( 0.0000,  0.0000,  0.0000)
   2 Tl     1.797150    0.998030   15.755959    ( 0.0000,  0.0000,  0.0000)
   3 Tl     5.291724    3.076467   18.668492    ( 0.0000,  0.0000,  0.0000)
   4 Tl     1.763908    3.055179   10.000000    ( 0.0000,  0.0000,  0.0000)
   5 Tl     5.291724    5.091964   12.880450    ( 0.0000,  0.0000,  0.0000)
   6 Tl     3.550785    4.071983   15.761337    ( 0.0000,  0.0000,  0.0000)
   7 Tl     7.039044    6.103106   18.678461    ( 0.0000,  0.0000,  0.0000)
   8 Tl     3.527816    6.110357   10.000000    ( 0.0000,  0.0000,  0.0000)
   9 Tl     7.055633    8.147143   12.880450    ( 0.0000,  0.0000,  0.0000)
  10 Tl     5.291724    7.113412   15.754865    ( 0.0000,  0.0000,  0.0000)
  11 Tl     8.691021    9.250334   18.827446    ( 0.0000,  0.0000,  0.0000)
  12 Tl     3.527816    0.000000   10.000000    ( 0.0000,  0.0000,  0.0000)
  13 Tl     7.055633    2.036786   12.880450    ( 0.0000,  0.0000,  0.0000)
  14 Tl     5.291724    1.079734   15.761110    ( 0.0000,  0.0000,  0.0000)
  15 Tl     8.804755    3.056916   18.771405    ( 0.0000,  0.0000,  0.0000)
  16 Tl     5.291724    3.055179   10.000000    ( 0.0000,  0.0000,  0.0000)
  17 Tl     8.819541    5.091964   12.880450    ( 0.0000,  0.0000,  0.0000)
  18 Tl     7.032664    4.071983   15.761337    ( 0.0000,  0.0000,  0.0000)
  19 Tl    10.583449    5.974325   18.819303    ( 0.0000,  0.0000,  0.0000)
  20 Tl     7.055633    6.110357   10.000000    ( 0.0000,  0.0000,  0.0000)
  21 Tl    10.583449    8.147143   12.880450    ( 0.0000,  0.0000,  0.0000)
  22 Tl     8.777441    7.109478   15.760281    ( 0.0000,  0.0000,  0.0000)
  23 Tl    12.475876    9.250334   18.827446    ( 0.0000,  0.0000,  0.0000)
  24 Tl     7.055633    0.000000   10.000000    ( 0.0000,  0.0000,  0.0000)
  25 Tl    10.583449    2.036786   12.880450    ( 0.0000,  0.0000,  0.0000)
  26 Tl     8.786299    0.998030   15.755959    ( 0.0000,  0.0000,  0.0000)
  27 Tl    12.362143    3.056916   18.771405    ( 0.0000,  0.0000,  0.0000)
  28 Tl     8.819541    3.055179   10.000000    ( 0.0000,  0.0000,  0.0000)
  29 Tl    12.347357    5.091964   12.880450    ( 0.0000,  0.0000,  0.0000)
  30 Tl    10.583449    4.093152   15.765903    ( 0.0000,  0.0000,  0.0000)
  31 Tl    14.127854    6.103106   18.678461    ( 0.0000,  0.0000,  0.0000)
  32 Tl    10.583449    6.110357   10.000000    ( 0.0000,  0.0000,  0.0000)
  33 Tl    14.111265    8.147143   12.880450    ( 0.0000,  0.0000,  0.0000)
  34 Tl    12.389457    7.109478   15.760281    ( 0.0000,  0.0000,  0.0000)
  35 Tl    15.875173    9.135823   18.722860    ( 0.0000,  0.0000,  0.0000)
  36 C     10.583449    8.147447   19.430501    ( 0.0000,  0.0000,  0.0000)

Unit cell:
           periodic     x           y           z      points  spacing
  1. axis:    yes   10.583449    0.000000    0.000000    52     0.1763
  2. axis:    yes    5.291724    9.165536    0.000000    52     0.1763
  3. axis:    no     0.000000    0.000000   28.641350   160     0.1790

  Lengths:  10.583449  10.583449  28.641350
  Angles:   90.000000  90.000000  60.000000

Effective grid spacing dv^(1/3) = 0.1859

     iter     time        total  log10-change:
                         energy  eigst   dens
iter:   1 17:45:30 -12531.555078  -1.00
iter:   2 17:46:12 -12531.495312  -1.95  -2.40
iter:   3 17:46:54 -12531.486222c -2.59  -2.52
iter:   4 17:47:35 -12531.467838c -3.01  -2.57
iter:   5 17:48:17 -12531.460585c -3.04  -2.76
iter:   6 17:48:58 -12531.461462c -3.36  -2.95
iter:   7 17:49:40 -12531.458467c -3.82  -3.04
iter:   8 17:50:22 -12531.458991c -4.30  -3.30
iter:   9 17:51:03 -12531.459280c -4.69  -3.34
iter:  10 17:51:45 -12531.459525c -4.98  -3.33
iter:  11 17:52:26 -12531.459516c -5.08  -3.54
iter:  12 17:53:08 -12531.459511c -5.36  -3.65
iter:  13 17:53:49 -12531.459688c -5.41  -3.82
iter:  14 17:54:31 -12531.459720c -6.04  -4.03c
iter:  15 17:55:13 -12531.459733c -6.08  -4.09c
iter:  16 17:55:54 -12531.459773c -6.17  -4.26c
iter:  17 17:56:36 -12531.459759c -6.72  -4.41c
iter:  18 17:57:17 -12531.459747c -6.90  -4.45c
iter:  19 17:57:59 -12531.459745c -7.23  -4.62c
iter:  20 17:58:40 -12531.459758c -7.39  -4.67c
iter:  21 17:59:22 -12531.459753c -7.83c -4.79c

Converged after 21 iterations.

Dipole moment: (-34.078450, -23.717843, -0.237976) |e|*Ang

Energy contributions relative to reference atoms: (reference = -19802646.917894)

Kinetic:       +1272.526551
Potential:     -1199.453353
External:        +0.000000
XC:            -12603.995202
Entropy (-ST):   -0.838122
Local:           -0.118689
--------------------------
Free energy:   -12531.878814
Extrapolated:  -12531.459753

Showing only first 2 kpts
 Kpt  Band  Eigenvalues  Occupancy
  0   234     -4.10769    1.73439
  0   235     -3.98299    1.30472
  0   236     -3.90582    0.92897
  0   237     -3.77201    0.37075

  1   234     -3.99208    1.34534
  1   235     -3.95598    1.17776
  1   236     -3.93269    1.06314
  1   237     -3.87775    0.79160


Fermi level: -3.92005

No gap

Forces in eV/Ang:
  0 Tl   -0.00000    0.00549   -0.02190
  1 Tl   -0.02187   -0.00091    0.01003
  2 Tl   -0.05924    0.02622    0.03364
  3 Tl    0.00000   -0.00642    0.02001
  4 Tl    0.00881    0.01662   -0.07954
  5 Tl   -0.00000    0.02150    0.02711
  6 Tl   -0.07531   -0.02285    0.02175
  7 Tl    0.02242    0.00402    0.00315
  8 Tl   -0.06549    0.01220   -0.09248
  9 Tl   -0.01226   -0.00501    0.00983
 10 Tl   -0.00000    0.04354    0.02833
 11 Tl    0.17189   -0.09290    0.06621
 12 Tl    0.04586   -0.01240   -0.14488
 13 Tl    0.02187   -0.00091    0.01003
 14 Tl    0.00000   -0.15582    0.06894
 15 Tl    0.00020    0.04620   -0.00683
 16 Tl    0.00000   -0.06971   -0.10950
 17 Tl    0.01432    0.00543    0.03430
 18 Tl    0.07531   -0.02285    0.02175
 19 Tl   -0.00000    0.09999    0.01308
 20 Tl    0.06549    0.01220   -0.09248
 21 Tl    0.00000   -0.02506    0.07822
 22 Tl    0.10583    0.04041    0.08871
 23 Tl   -0.17189   -0.09290    0.06621
 24 Tl   -0.04586   -0.01240   -0.14488
 25 Tl    0.00000   -0.00744   -0.03548
 26 Tl    0.05924    0.02622    0.03364
 27 Tl   -0.00020    0.04620   -0.00683
 28 Tl   -0.00881    0.01662   -0.07954
 29 Tl   -0.01432    0.00543    0.03430
 30 Tl    0.00000   -0.06773    0.04690
 31 Tl   -0.02242    0.00402    0.00315
 32 Tl   -0.00000    0.02628   -0.15899
 33 Tl    0.01226   -0.00501    0.00983
 34 Tl   -0.10583    0.04041    0.08871
 35 Tl    0.00000   -0.03325    0.01047
 36 C    -0.00000    0.06541   -0.13796

BFGS:    5 17:59:35   -12531.459753        0.2063
System changes: positions 

Initializing position-dependent things.

Density initialized from wave functions
                                                             
                                                             
                                                             
                                                             
                                  Tl  C    Tl       Tl       
                                                             
                            Tl       Tl       Tl             
                                                             
                      Tl       Tl      Tl                    
                        Tl       Tl       Tl                 
                                                             
                  Tl       Tl       Tl                       
                             Tl       Tl       Tl            
            Tl       Tl      Tl                              
                       Tl       Tl       Tl                  
                                                             
                 Tl       Tl      Tl                         
                    Tl      Tl       Tl                      
                                                             
             Tl       Tl       Tl                            
       Tl       Tl       Tl                                  
                                                             
                                                             
                                                             
                                                             

Positions:
   0 Tl     0.000000    0.000000   10.000000    ( 0.0000,  0.0000,  0.0000)
   1 Tl     3.527816    2.036786   12.880450    ( 0.0000,  0.0000,  0.0000)
   2 Tl     1.795771    0.998374   15.756472    ( 0.0000,  0.0000,  0.0000)
   3 Tl     5.291724    3.076152   18.669020    ( 0.0000,  0.0000,  0.0000)
   4 Tl     1.763908    3.055179   10.000000    ( 0.0000,  0.0000,  0.0000)
   5 Tl     5.291724    5.091964   12.880450    ( 0.0000,  0.0000,  0.0000)
   6 Tl     3.548494    4.071224   15.761965    ( 0.0000,  0.0000,  0.0000)
   7 Tl     7.039805    6.103407   18.678702    ( 0.0000,  0.0000,  0.0000)
   8 Tl     3.527816    6.110357   10.000000    ( 0.0000,  0.0000,  0.0000)
   9 Tl     7.055633    8.147143   12.880450    ( 0.0000,  0.0000,  0.0000)
  10 Tl     5.291724    7.114887   15.755604    ( 0.0000,  0.0000,  0.0000)
  11 Tl     8.702643    9.244355   18.830203    ( 0.0000,  0.0000,  0.0000)
  12 Tl     3.527816    0.000000   10.000000    ( 0.0000,  0.0000,  0.0000)
  13 Tl     7.055633    2.036786   12.880450    ( 0.0000,  0.0000,  0.0000)
  14 Tl     5.291724    1.074637   15.763543    ( 0.0000,  0.0000,  0.0000)
  15 Tl     8.805272    3.056524   18.771632    ( 0.0000,  0.0000,  0.0000)
  16 Tl     5.291724    3.055179   10.000000    ( 0.0000,  0.0000,  0.0000)
  17 Tl     8.819541    5.091964   12.880450    ( 0.0000,  0.0000,  0.0000)
  18 Tl     7.034955    4.071224   15.761965    ( 0.0000,  0.0000,  0.0000)
  19 Tl    10.583449    5.988537   18.822448    ( 0.0000,  0.0000,  0.0000)
  20 Tl     7.055633    6.110357   10.000000    ( 0.0000,  0.0000,  0.0000)
  21 Tl    10.583449    8.147143   12.880450    ( 0.0000,  0.0000,  0.0000)
  22 Tl     8.781007    7.111091   15.762802    ( 0.0000,  0.0000,  0.0000)
  23 Tl    12.464254    9.244355   18.830203    ( 0.0000,  0.0000,  0.0000)
  24 Tl     7.055633    0.000000   10.000000    ( 0.0000,  0.0000,  0.0000)
  25 Tl    10.583449    2.036786   12.880450    ( 0.0000,  0.0000,  0.0000)
  26 Tl     8.787678    0.998374   15.756472    ( 0.0000,  0.0000,  0.0000)
  27 Tl    12.361626    3.056524   18.771632    ( 0.0000,  0.0000,  0.0000)
  28 Tl     8.819541    3.055179   10.000000    ( 0.0000,  0.0000,  0.0000)
  29 Tl    12.347357    5.091964   12.880450    ( 0.0000,  0.0000,  0.0000)
  30 Tl    10.583449    4.091014   15.766674    ( 0.0000,  0.0000,  0.0000)
  31 Tl    14.127093    6.103407   18.678702    ( 0.0000,  0.0000,  0.0000)
  32 Tl    10.583449    6.110357   10.000000    ( 0.0000,  0.0000,  0.0000)
  33 Tl    14.111265    8.147143   12.880450    ( 0.0000,  0.0000,  0.0000)
  34 Tl    12.385891    7.111091   15.762802    ( 0.0000,  0.0000,  0.0000)
  35 Tl    15.875173    9.134875   18.723968    ( 0.0000,  0.0000,  0.0000)
  36 C     10.583449    8.147115   19.420636    ( 0.0000,  0.0000,  0.0000)

Unit cell:
           periodic     x           y           z      points  spacing
  1. axis:    yes   10.583449    0.000000    0.000000    52     0.1763
  2. axis:    yes    5.291724    9.165536    0.000000    52     0.1763
  3. axis:    no     0.000000    0.000000   28.641350   160     0.1790

  Lengths:  10.583449  10.583449  28.641350
  Angles:   90.000000  90.000000  60.000000

Effective grid spacing dv^(1/3) = 0.1859

     iter     time        total  log10-change:
                         energy  eigst   dens
iter:   1 18:00:47 -12531.500615  -2.74
iter:   2 18:01:28 -12531.486593  -3.54  -2.72
iter:   3 18:02:10 -12531.474093c -4.10  -2.71
iter:   4 18:02:52 -12531.468197c -4.24  -3.01
iter:   5 18:03:34 -12531.468125c -4.68  -3.59
iter:   6 18:04:16 -12531.467990c -4.79  -3.71
iter:   7 18:04:57 -12531.467870c -5.47  -3.90
iter:   8 18:05:39 -12531.467888c -5.98  -3.99
iter:   9 18:06:21 -12531.467910c -6.41  -4.06c
iter:  10 18:07:03 -12531.467982c -6.31  -4.21c
iter:  11 18:07:44 -12531.467969c -6.49  -4.31c
iter:  12 18:08:26 -12531.467965c -6.94  -4.45c
iter:  13 18:09:08 -12531.467961c -7.18  -4.54c
iter:  14 18:09:50 -12531.467945c -6.94  -4.63c
iter:  15 18:10:31 -12531.467937c -7.53c -4.74c

Converged after 15 iterations.

Dipole moment: (-33.647577, -22.967845, -0.231079) |e|*Ang

Energy contributions relative to reference atoms: (reference = -19802646.917894)

Kinetic:       +1273.265804
Potential:     -1200.039298
External:        +0.000000
XC:            -12604.149555
Entropy (-ST):   -0.837154
Local:           -0.126311
--------------------------
Free energy:   -12531.886514
Extrapolated:  -12531.467937

Showing only first 2 kpts
 Kpt  Band  Eigenvalues  Occupancy
  0   234     -4.10552    1.73806
  0   235     -3.97934    1.30527
  0   236     -3.90120    0.92477
  0   237     -3.76813    0.37040

  1   234     -3.98810    1.34443
  1   235     -3.95062    1.17004
  1   236     -3.92827    1.05989
  1   237     -3.87361    0.78987


Fermi level: -3.91628

No gap

Forces in eV/Ang:
  0 Tl   -0.00000    0.00495   -0.02056
  1 Tl   -0.02082    0.00008    0.01274
  2 Tl   -0.05276    0.02190    0.03789
  3 Tl    0.00000   -0.00299    0.01309
  4 Tl    0.00953    0.01698   -0.07806
  5 Tl   -0.00000    0.02125    0.03524
  6 Tl   -0.06278   -0.01971    0.01535
  7 Tl    0.02158    0.00328    0.00005
  8 Tl   -0.06672    0.01267   -0.09096
  9 Tl   -0.01250   -0.00625    0.01226
 10 Tl   -0.00000    0.03643    0.02273
 11 Tl    0.05215   -0.02718    0.03969
 12 Tl    0.04777   -0.01324   -0.14288
 13 Tl    0.02082    0.00008    0.01274
 14 Tl    0.00000   -0.14154    0.07185
 15 Tl    0.00079    0.04522   -0.00412
 16 Tl    0.00000   -0.07110   -0.10795
 17 Tl    0.01345    0.00580    0.03653
 18 Tl    0.06278   -0.01971    0.01535
 19 Tl    0.00000   -0.05779   -0.02920
 20 Tl    0.06672    0.01267   -0.09096
 21 Tl    0.00000   -0.02540    0.07076
 22 Tl    0.10005    0.04202    0.09841
 23 Tl   -0.05215   -0.02718    0.03969
 24 Tl   -0.04777   -0.01324   -0.14288
 25 Tl    0.00000   -0.00740   -0.03196
 26 Tl    0.05276    0.02190    0.03789
 27 Tl   -0.00079    0.04522   -0.00412
 28 Tl   -0.00953    0.01698   -0.07806
 29 Tl   -0.01345    0.00580    0.03653
 30 Tl    0.00000   -0.06261    0.04895
 31 Tl   -0.02158    0.00328    0.00005
 32 Tl   -0.00000    0.02843   -0.15678
 33 Tl    0.01250   -0.00625    0.01226
 34 Tl   -0.10005    0.04202    0.09841
 35 Tl    0.00000   -0.03007    0.01200
 36 C    -0.00000    0.07412   -0.03949

BFGS:    6 18:10:44   -12531.467937        0.1587
System changes: positions 

Initializing position-dependent things.

Density initialized from wave functions
                                                             
                                                             
                                                             
                                                             
                                  Tl  C    Tl       Tl       
                                                             
                            Tl       Tl       Tl             
                                                             
                      Tl       Tl      Tl                    
                        Tl       Tl       Tl                 
                                                             
                  Tl       Tl       Tl                       
                             Tl       Tl       Tl            
            Tl       Tl      Tl                              
                       Tl       Tl       Tl                  
                                                             
                 Tl       Tl      Tl                         
                    Tl      Tl       Tl                      
                                                             
             Tl       Tl       Tl                            
       Tl       Tl       Tl                                  
                                                             
                                                             
                                                             
                                                             

Positions:
   0 Tl     0.000000    0.000000   10.000000    ( 0.0000,  0.0000,  0.0000)
   1 Tl     3.527816    2.036786   12.880450    ( 0.0000,  0.0000,  0.0000)
   2 Tl     1.794006    0.998985   15.757406    ( 0.0000,  0.0000,  0.0000)
   3 Tl     5.291724    3.075860   18.669567    ( 0.0000,  0.0000,  0.0000)
   4 Tl     1.763908    3.055179   10.000000    ( 0.0000,  0.0000,  0.0000)
   5 Tl     5.291724    5.091964   12.880450    ( 0.0000,  0.0000,  0.0000)
   6 Tl     3.546101    4.070443   15.762546    ( 0.0000,  0.0000,  0.0000)
   7 Tl     7.040663    6.103659   18.678824    ( 0.0000,  0.0000,  0.0000)
   8 Tl     3.527816    6.110357   10.000000    ( 0.0000,  0.0000,  0.0000)
   9 Tl     7.055633    8.147143   12.880450    ( 0.0000,  0.0000,  0.0000)
  10 Tl     5.291724    7.116399   15.756388    ( 0.0000,  0.0000,  0.0000)
  11 Tl     8.710288    9.240391   18.831778    ( 0.0000,  0.0000,  0.0000)
  12 Tl     3.527816    0.000000   10.000000    ( 0.0000,  0.0000,  0.0000)
  13 Tl     7.055633    2.036786   12.880450    ( 0.0000,  0.0000,  0.0000)
  14 Tl     5.291724    1.069177   15.766153    ( 0.0000,  0.0000,  0.0000)
  15 Tl     8.805659    3.056989   18.771328    ( 0.0000,  0.0000,  0.0000)
  16 Tl     5.291724    3.055179   10.000000    ( 0.0000,  0.0000,  0.0000)
  17 Tl     8.819541    5.091964   12.880450    ( 0.0000,  0.0000,  0.0000)
  18 Tl     7.037348    4.070443   15.762546    ( 0.0000,  0.0000,  0.0000)
  19 Tl    10.583449    5.995813   18.823095    ( 0.0000,  0.0000,  0.0000)
  20 Tl     7.055633    6.110357   10.000000    ( 0.0000,  0.0000,  0.0000)
  21 Tl    10.583449    8.147143   12.880450    ( 0.0000,  0.0000,  0.0000)
  22 Tl     8.784883    7.112830   15.765929    ( 0.0000,  0.0000,  0.0000)
  23 Tl    12.456610    9.240391   18.831778    ( 0.0000,  0.0000,  0.0000)
  24 Tl     7.055633    0.000000   10.000000    ( 0.0000,  0.0000,  0.0000)
  25 Tl    10.583449    2.036786   12.880450    ( 0.0000,  0.0000,  0.0000)
  26 Tl     8.789443    0.998985   15.757406    ( 0.0000,  0.0000,  0.0000)
  27 Tl    12.361239    3.056989   18.771328    ( 0.0000,  0.0000,  0.0000)
  28 Tl     8.819541    3.055179   10.000000    ( 0.0000,  0.0000,  0.0000)
  29 Tl    12.347357    5.091964   12.880450    ( 0.0000,  0.0000,  0.0000)
  30 Tl    10.583449    4.088661   15.767899    ( 0.0000,  0.0000,  0.0000)
  31 Tl    14.126235    6.103659   18.678824    ( 0.0000,  0.0000,  0.0000)
  32 Tl    10.583449    6.110357   10.000000    ( 0.0000,  0.0000,  0.0000)
  33 Tl    14.111265    8.147143   12.880450    ( 0.0000,  0.0000,  0.0000)
  34 Tl    12.382015    7.112830   15.765929    ( 0.0000,  0.0000,  0.0000)
  35 Tl    15.875173    9.133961   18.724554    ( 0.0000,  0.0000,  0.0000)
  36 C     10.583449    8.148058   19.415603    ( 0.0000,  0.0000,  0.0000)

Unit cell:
           periodic     x           y           z      points  spacing
  1. axis:    yes   10.583449    0.000000    0.000000    52     0.1763
  2. axis:    yes    5.291724    9.165536    0.000000    52     0.1763
  3. axis:    no     0.000000    0.000000   28.641350   160     0.1790

  Lengths:  10.583449  10.583449  28.641350
  Angles:   90.000000  90.000000  60.000000

Effective grid spacing dv^(1/3) = 0.1859

     iter     time        total  log10-change:
                         energy  eigst   dens
iter:   1 18:11:56 -12531.489314  -3.06
iter:   2 18:12:38 -12531.481987  -3.82  -2.82
iter:   3 18:13:19 -12531.473783c -4.43  -2.83
iter:   4 18:14:01 -12531.471279c -4.62  -3.20
iter:   5 18:14:43 -12531.471284c -4.98  -3.73
iter:   6 18:15:25 -12531.471205c -5.17  -3.87
iter:   7 18:16:06 -12531.471134c -5.81  -4.05c
iter:   8 18:16:48 -12531.471160c -6.30  -4.15c
iter:   9 18:17:30 -12531.471180c -6.77  -4.22c
iter:  10 18:18:11 -12531.471229c -6.65  -4.31c
iter:  11 18:18:53 -12531.471215c -6.82  -4.46c
iter:  12 18:19:35 -12531.471212c -7.21  -4.60c
iter:  13 18:20:16 -12531.471215c -7.40  -4.69c
iter:  14 18:20:58 -12531.471203c -7.29  -4.79c
iter:  15 18:21:39 -12531.471192c -7.80c -4.92c

Converged after 15 iterations.

Dipole moment: (-33.323861, -22.446942, -0.227564) |e|*Ang

Energy contributions relative to reference atoms: (reference = -19802646.917894)

Kinetic:       +1273.640959
Potential:     -1200.336121
External:        +0.000000
XC:            -12604.234135
Entropy (-ST):   -0.836740
Local:           -0.123526
--------------------------
Free energy:   -12531.889562
Extrapolated:  -12531.471192

Showing only first 2 kpts
 Kpt  Band  Eigenvalues  Occupancy
  0   234     -4.10467    1.74038
  0   235     -3.97768    1.30621
  0   236     -3.89866    0.92145
  0   237     -3.76623    0.37033

  1   234     -3.98639    1.34516
  1   235     -3.94780    1.16544
  1   236     -3.92558    1.05582
  1   237     -3.87153    0.78887


Fermi level: -3.91440

No gap

Forces in eV/Ang:
  0 Tl   -0.00000    0.00542   -0.02072
  1 Tl   -0.01890   -0.00104    0.01574
  2 Tl   -0.04560    0.01715    0.04027
  3 Tl   -0.00000    0.00221    0.00970
  4 Tl    0.00941    0.01674   -0.07799
  5 Tl   -0.00000    0.02075    0.03737
  6 Tl   -0.05354   -0.01710    0.01468
  7 Tl    0.01564    0.00042   -0.00184
  8 Tl   -0.06693    0.01274   -0.09100
  9 Tl   -0.01063   -0.00705    0.01562
 10 Tl   -0.00000    0.03241    0.02319
 11 Tl   -0.02700    0.01602    0.02695
 12 Tl    0.04798   -0.01310   -0.14317
 13 Tl    0.01890   -0.00104    0.01574
 14 Tl    0.00000   -0.11926    0.05748
 15 Tl    0.00004    0.04163   -0.00245
 16 Tl    0.00000   -0.07146   -0.10806
 17 Tl    0.01376    0.00791    0.03938
 18 Tl    0.05354   -0.01710    0.01468
 19 Tl    0.00000   -0.12794   -0.03880
 20 Tl    0.06693    0.01274   -0.09100
 21 Tl    0.00000   -0.02544    0.07131
 22 Tl    0.08793    0.03962    0.09186
 23 Tl    0.02700    0.01602    0.02695
 24 Tl   -0.04798   -0.01310   -0.14317
 25 Tl    0.00000   -0.00749   -0.03421
 26 Tl    0.04560    0.01715    0.04027
 27 Tl   -0.00004    0.04163   -0.00245
 28 Tl   -0.00941    0.01674   -0.07799
 29 Tl   -0.01376    0.00791    0.03938
 30 Tl    0.00000   -0.05622    0.04932
 31 Tl   -0.01564    0.00042   -0.00184
 32 Tl   -0.00000    0.02855   -0.15692
 33 Tl    0.01063   -0.00705    0.01562
 34 Tl   -0.08793    0.03962    0.09186
 35 Tl    0.00000   -0.02705    0.01274
 36 C    -0.00000    0.06672    0.00786

BFGS:    7 18:21:52   -12531.471192        0.1337
System changes: positions 

Initializing position-dependent things.

Density initialized from wave functions
                                                             
                                                             
                                                             
                                                             
                                  Tl  C    Tl       Tl       
                                                             
                            Tl       Tl       Tl             
                                                             
                      Tl       Tl      Tl                    
                        Tl       Tl       Tl                 
                                                             
                  Tl       Tl       Tl                       
                             Tl       Tl       Tl            
            Tl       Tl      Tl                              
                       Tl       Tl       Tl                  
                                                             
                 Tl       Tl      Tl                         
                    Tl      Tl       Tl                      
                                                             
             Tl       Tl       Tl                            
       Tl       Tl       Tl                                  
                                                             
                                                             
                                                             
                                                             

Positions:
   0 Tl     0.000000    0.000000   10.000000    ( 0.0000,  0.0000,  0.0000)
   1 Tl     3.527816    2.036786   12.880450    ( 0.0000,  0.0000,  0.0000)
   2 Tl     1.792948    0.998891   15.759237    ( 0.0000,  0.0000,  0.0000)
   3 Tl     5.291724    3.076654   18.669606    ( 0.0000,  0.0000,  0.0000)
   4 Tl     1.763908    3.055179   10.000000    ( 0.0000,  0.0000,  0.0000)
   5 Tl     5.291724    5.091964   12.880450    ( 0.0000,  0.0000,  0.0000)
   6 Tl     3.543350    4.069491   15.763675    ( 0.0000,  0.0000,  0.0000)
   7 Tl     7.041021    6.103581   18.679014    ( 0.0000,  0.0000,  0.0000)
   8 Tl     3.527816    6.110357   10.000000    ( 0.0000,  0.0000,  0.0000)
   9 Tl     7.055633    8.147143   12.880450    ( 0.0000,  0.0000,  0.0000)
  10 Tl     5.291724    7.117858   15.757723    ( 0.0000,  0.0000,  0.0000)
  11 Tl     8.711544    9.240628   18.841394    ( 0.0000,  0.0000,  0.0000)
  12 Tl     3.527816    0.000000   10.000000    ( 0.0000,  0.0000,  0.0000)
  13 Tl     7.055633    2.036786   12.880450    ( 0.0000,  0.0000,  0.0000)
  14 Tl     5.291724    1.063896   15.770088    ( 0.0000,  0.0000,  0.0000)
  15 Tl     8.805357    3.058289   18.775664    ( 0.0000,  0.0000,  0.0000)
  16 Tl     5.291724    3.055179   10.000000    ( 0.0000,  0.0000,  0.0000)
  17 Tl     8.819541    5.091964   12.880450    ( 0.0000,  0.0000,  0.0000)
  18 Tl     7.040099    4.069491   15.763675    ( 0.0000,  0.0000,  0.0000)
  19 Tl    10.583449    5.994736   18.830047    ( 0.0000,  0.0000,  0.0000)
  20 Tl     7.055633    6.110357   10.000000    ( 0.0000,  0.0000,  0.0000)
  21 Tl    10.583449    8.147143   12.880450    ( 0.0000,  0.0000,  0.0000)
  22 Tl     8.788585    7.114308   15.771055    ( 0.0000,  0.0000,  0.0000)
  23 Tl    12.455354    9.240628   18.841394    ( 0.0000,  0.0000,  0.0000)
  24 Tl     7.055633    0.000000   10.000000    ( 0.0000,  0.0000,  0.0000)
  25 Tl    10.583449    2.036786   12.880450    ( 0.0000,  0.0000,  0.0000)
  26 Tl     8.790501    0.998891   15.759237    ( 0.0000,  0.0000,  0.0000)
  27 Tl    12.361541    3.058289   18.775664    ( 0.0000,  0.0000,  0.0000)
  28 Tl     8.819541    3.055179   10.000000    ( 0.0000,  0.0000,  0.0000)
  29 Tl    12.347357    5.091964   12.880450    ( 0.0000,  0.0000,  0.0000)
  30 Tl    10.583449    4.086350   15.770585    ( 0.0000,  0.0000,  0.0000)
  31 Tl    14.125877    6.103581   18.679014    ( 0.0000,  0.0000,  0.0000)
  32 Tl    10.583449    6.110357   10.000000    ( 0.0000,  0.0000,  0.0000)
  33 Tl    14.111265    8.147143   12.880450    ( 0.0000,  0.0000,  0.0000)
  34 Tl    12.378313    7.114308   15.771055    ( 0.0000,  0.0000,  0.0000)
  35 Tl    15.875173    9.131048   18.728885    ( 0.0000,  0.0000,  0.0000)
  36 C     10.583449    8.150194   19.397067    ( 0.0000,  0.0000,  0.0000)

Unit cell:
           periodic     x           y           z      points  spacing
  1. axis:    yes   10.583449    0.000000    0.000000    52     0.1763
  2. axis:    yes    5.291724    9.165536    0.000000    52     0.1763
  3. axis:    no     0.000000    0.000000   28.641350   160     0.1790

  Lengths:  10.583449  10.583449  28.641350
  Angles:   90.000000  90.000000  60.000000

Effective grid spacing dv^(1/3) = 0.1859

     iter     time        total  log10-change:
                         energy  eigst   dens
iter:   1 18:23:04 -12531.490720  -2.86
iter:   2 18:23:45 -12531.483532  -3.70  -2.84
iter:   3 18:24:27 -12531.476909c -4.38  -2.86
iter:   4 18:25:09 -12531.474807c -4.63  -3.24
iter:   5 18:25:50 -12531.474719c -4.73  -3.63
iter:   6 18:26:32 -12531.474619c -4.91  -3.78
iter:   7 18:27:14 -12531.474493c -5.75  -3.95
iter:   8 18:27:55 -12531.474510c -6.08  -4.08c
iter:   9 18:28:37 -12531.474530c -6.54  -4.17c
iter:  10 18:29:18 -12531.474566c -6.49  -4.17c
iter:  11 18:30:00 -12531.474541c -6.86  -4.41c
iter:  12 18:30:41 -12531.474531c -7.19  -4.50c
iter:  13 18:31:23 -12531.474541c -7.33  -4.61c
iter:  14 18:32:05 -12531.474544c -7.40c -4.68c

Converged after 14 iterations.

Dipole moment: (-33.352641, -22.305898, -0.218784) |e|*Ang

Energy contributions relative to reference atoms: (reference = -19802646.917894)

Kinetic:       +1273.795633
Potential:     -1200.472075
External:        +0.000000
XC:            -12604.261090
Entropy (-ST):   -0.836506
Local:           -0.118760
--------------------------
Free energy:   -12531.892797
Extrapolated:  -12531.474544

Showing only first 2 kpts
 Kpt  Band  Eigenvalues  Occupancy
  0   234     -4.10157    1.74074
  0   235     -3.97471    1.30753
  0   236     -3.89450    0.91697
  0   237     -3.76305    0.37057

  1   234     -3.98270    1.34322
  1   235     -3.94488    1.16708
  1   236     -3.92229    1.05565
  1   237     -3.86721    0.78377


Fermi level: -3.91115

No gap

Forces in eV/Ang:
  0 Tl   -0.00000    0.00462   -0.02198
  1 Tl   -0.01782   -0.00155    0.01872
  2 Tl   -0.04127    0.01417    0.04588
  3 Tl   -0.00000    0.00652    0.00718
  4 Tl    0.01044    0.01695   -0.07883
  5 Tl   -0.00000    0.02000    0.04201
  6 Tl   -0.04391   -0.01482    0.01311
  7 Tl    0.01172   -0.00110   -0.00278
  8 Tl   -0.06735    0.01308   -0.09213
  9 Tl   -0.00944   -0.00748    0.01904
 10 Tl   -0.00000    0.02732    0.02333
 11 Tl   -0.08631    0.04549    0.01190
 12 Tl    0.04908   -0.01330   -0.14476
 13 Tl    0.01782   -0.00155    0.01872
 14 Tl    0.00000   -0.09728    0.04600
 15 Tl   -0.00110    0.03564   -0.00386
 16 Tl    0.00000   -0.07232   -0.10955
 17 Tl    0.01459    0.00930    0.04281
 18 Tl    0.04391   -0.01482    0.01311
 19 Tl    0.00000   -0.15726   -0.03209
 20 Tl    0.06735    0.01308   -0.09213
 21 Tl    0.00000   -0.02574    0.06999
 22 Tl    0.07670    0.03701    0.09071
 23 Tl    0.08631    0.04549    0.01190
 24 Tl   -0.04908   -0.01330   -0.14476
 25 Tl    0.00000   -0.00753   -0.03070
 26 Tl    0.04127    0.01417    0.04588
 27 Tl    0.00110    0.03564   -0.00386
 28 Tl   -0.01044    0.01695   -0.07883
 29 Tl   -0.01459    0.00930    0.04281
 30 Tl    0.00000   -0.05212    0.04850
 31 Tl   -0.01172   -0.00110   -0.00278
 32 Tl   -0.00000    0.02975   -0.15824
 33 Tl    0.00944   -0.00748    0.01904
 34 Tl   -0.07670    0.03701    0.09071
[...]
  18 Tl     7.032742    3.993768   15.820760    ( 0.0000,  0.0000,  0.0000)
  19 Tl    10.583449    6.060420   19.031724    ( 0.0000,  0.0000,  0.0000)
  20 Tl     7.055633    6.110357   10.000000    ( 0.0000,  0.0000,  0.0000)
  21 Tl    10.583449    8.147143   12.880450    ( 0.0000,  0.0000,  0.0000)
  22 Tl     8.784859    6.976692   15.909503    ( 0.0000,  0.0000,  0.0000)
  23 Tl    12.371170    9.127659   18.909100    ( 0.0000,  0.0000,  0.0000)
  24 Tl     7.055633    0.000000   10.000000    ( 0.0000,  0.0000,  0.0000)
  25 Tl    10.583449    2.036786   12.880450    ( 0.0000,  0.0000,  0.0000)
  26 Tl     8.799733    0.949410   15.730944    ( 0.0000,  0.0000,  0.0000)
  27 Tl    12.352301    3.055576   18.599287    ( 0.0000,  0.0000,  0.0000)
  28 Tl     8.819541    3.055179   10.000000    ( 0.0000,  0.0000,  0.0000)
  29 Tl    12.347357    5.091964   12.880450    ( 0.0000,  0.0000,  0.0000)
  30 Tl    10.583449    3.985343   15.717466    ( 0.0000,  0.0000,  0.0000)
  31 Tl    14.143182    6.056538   18.924206    ( 0.0000,  0.0000,  0.0000)
  32 Tl    10.583449    6.110357   10.000000    ( 0.0000,  0.0000,  0.0000)
  33 Tl    14.111265    8.147143   12.880450    ( 0.0000,  0.0000,  0.0000)
  34 Tl    12.382039    6.976692   15.909503    ( 0.0000,  0.0000,  0.0000)
  35 Tl    15.875173    9.155950   18.616698    ( 0.0000,  0.0000,  0.0000)
  36 C     10.583449    7.979901   17.285036    ( 0.0000,  0.0000,  0.0000)

Unit cell:
           periodic     x           y           z      points  spacing
  1. axis:    yes   10.583449    0.000000    0.000000    52     0.1763
  2. axis:    yes    5.291724    9.165536    0.000000    52     0.1763
  3. axis:    no     0.000000    0.000000   28.641350   160     0.1790

  Lengths:  10.583449  10.583449  28.641350
  Angles:   90.000000  90.000000  60.000000

Effective grid spacing dv^(1/3) = 0.1859

     iter     time        total  log10-change:
                         energy  eigst   dens
iter:   1 17:21:35 -12532.129215  -4.12
iter:   2 17:22:16 -12532.129602  -4.93  -3.36
iter:   3 17:22:58 -12532.128598c -5.71  -3.40
iter:   4 17:23:40 -12532.128594c -5.78  -4.08c
iter:   5 17:24:21 -12532.128559c -6.14  -4.36c
iter:   6 17:25:03 -12532.128544c -6.59  -4.54c
iter:   7 17:25:44 -12532.128559c -7.02  -4.62c
iter:   8 17:26:26 -12532.128555c -7.37  -4.84c
iter:   9 17:27:08 -12532.128558c -7.84c -4.88c

Converged after 9 iterations.

Dipole moment: (-28.172916, -12.392840, -0.021173) |e|*Ang

Energy contributions relative to reference atoms: (reference = -19802646.917894)

Kinetic:       +1271.475152
Potential:     -1199.333076
External:        +0.000000
XC:            -12603.637287
Entropy (-ST):   -0.867592
Local:           -0.199552
--------------------------
Free energy:   -12532.562354
Extrapolated:  -12532.128558

Showing only first 2 kpts
 Kpt  Band  Eigenvalues  Occupancy
  0   234     -3.95776    1.66267
  0   235     -3.83812    1.19676
  0   236     -3.81060    1.06170
  0   237     -3.76532    0.83682

  1   234     -3.88918    1.42573
  1   235     -3.85650    1.28328
  1   236     -3.77905    0.90430
  1   237     -3.74098    0.72125


Fermi level: -3.79825

No gap

Forces in eV/Ang:
  0 Tl   -0.00000    0.03329   -0.06800
  1 Tl   -0.02804   -0.04122    0.07392
  2 Tl    0.00068    0.00114   -0.01082
  3 Tl    0.00000   -0.00656    0.01431
  4 Tl   -0.02328    0.00507   -0.13051
  5 Tl   -0.00000    0.02258    0.10507
  6 Tl   -0.00562    0.00101   -0.00397
  7 Tl   -0.00594    0.00388   -0.01211
  8 Tl   -0.04753    0.00528   -0.09208
  9 Tl    0.01571    0.01634    0.08379
 10 Tl    0.00000    0.00075   -0.00148
 11 Tl    0.06326   -0.03136    0.01499
 12 Tl    0.04966   -0.02272   -0.11531
 13 Tl    0.02804   -0.04122    0.07392
 14 Tl   -0.00000    0.02316   -0.04666
 15 Tl   -0.01331    0.01065    0.01473
 16 Tl    0.00000   -0.04170   -0.11448
 17 Tl    0.05971    0.02455    0.07503
 18 Tl    0.00562    0.00101   -0.00397
 19 Tl   -0.00000    0.04171    0.00819
 20 Tl    0.04753    0.00528   -0.09208
 21 Tl    0.00000   -0.04451    0.10337
 22 Tl   -0.01043    0.01589    0.01499
 23 Tl   -0.06326   -0.03136    0.01499
 24 Tl   -0.04966   -0.02272   -0.11531
 25 Tl    0.00000   -0.02781    0.02585
 26 Tl   -0.00068    0.00114   -0.01082
 27 Tl    0.01331    0.01065    0.01473
 28 Tl    0.02328    0.00507   -0.13051
 29 Tl   -0.05971    0.02455    0.07503
 30 Tl    0.00000   -0.00838    0.00059
 31 Tl    0.00594    0.00388   -0.01211
 32 Tl   -0.00000    0.03023   -0.13998
 33 Tl   -0.01571    0.01634    0.08379
 34 Tl    0.01043    0.01589    0.01499
 35 Tl    0.00000   -0.00866    0.03894
 36 C    -0.00000    0.06071   -0.00337

BFGS:  140 17:27:20   -12532.128558        0.0722
System changes: positions 

Initializing position-dependent things.

Density initialized from wave functions
                                                             
                                                             
                                                             
                                                             
                                  Tl       Tl       Tl       
                                                             
                            Tl       Tl       Tl             
                                      C                      
                      Tl       Tl      Tl                    
                         Tl      Tl       Tl                 
                                                             
                  Tl       Tl       Tl                       
                             Tl       Tl       Tl            
            Tl       Tl      Tl                              
                       Tl       Tl       Tl                  
                                                             
                 Tl       Tl      Tl                         
                    Tl      Tl       Tl                      
             Tl       Tl       Tl                            
                                                             
       Tl       Tl       Tl                                  
                                                             
                                                             
                                                             
                                                             

Positions:
   0 Tl     0.000000    0.000000   10.000000    ( 0.0000,  0.0000,  0.0000)
   1 Tl     3.527816    2.036786   12.880450    ( 0.0000,  0.0000,  0.0000)
   2 Tl     1.783696    0.946326   15.732366    ( 0.0000,  0.0000,  0.0000)
   3 Tl     5.291724    3.023563   18.839717    ( 0.0000,  0.0000,  0.0000)
   4 Tl     1.763908    3.055179   10.000000    ( 0.0000,  0.0000,  0.0000)
   5 Tl     5.291724    5.091964   12.880450    ( 0.0000,  0.0000,  0.0000)
   6 Tl     3.549610    3.991631   15.818047    ( 0.0000,  0.0000,  0.0000)
   7 Tl     7.025568    6.057757   18.922697    ( 0.0000,  0.0000,  0.0000)
   8 Tl     3.527816    6.110357   10.000000    ( 0.0000,  0.0000,  0.0000)
   9 Tl     7.055633    8.147143   12.880450    ( 0.0000,  0.0000,  0.0000)
  10 Tl     5.291724    7.089214   15.846656    ( 0.0000,  0.0000,  0.0000)
  11 Tl     8.799945    9.127649   18.904947    ( 0.0000,  0.0000,  0.0000)
  12 Tl     3.527816    0.000000   10.000000    ( 0.0000,  0.0000,  0.0000)
  13 Tl     7.055633    2.036786   12.880450    ( 0.0000,  0.0000,  0.0000)
  14 Tl     5.291724    0.910894   15.913928    ( 0.0000,  0.0000,  0.0000)
  15 Tl     8.811317    3.055156   18.598056    ( 0.0000,  0.0000,  0.0000)
  16 Tl     5.291724    3.055179   10.000000    ( 0.0000,  0.0000,  0.0000)
  17 Tl     8.819541    5.091964   12.880450    ( 0.0000,  0.0000,  0.0000)
  18 Tl     7.033839    3.991631   15.818047    ( 0.0000,  0.0000,  0.0000)
  19 Tl    10.583449    6.059379   19.032759    ( 0.0000,  0.0000,  0.0000)
  20 Tl     7.055633    6.110357   10.000000    ( 0.0000,  0.0000,  0.0000)
  21 Tl    10.583449    8.147143   12.880450    ( 0.0000,  0.0000,  0.0000)
  22 Tl     8.783308    6.974014   15.907021    ( 0.0000,  0.0000,  0.0000)
  23 Tl    12.366953    9.127649   18.904947    ( 0.0000,  0.0000,  0.0000)
  24 Tl     7.055633    0.000000   10.000000    ( 0.0000,  0.0000,  0.0000)
  25 Tl    10.583449    2.036786   12.880450    ( 0.0000,  0.0000,  0.0000)
  26 Tl     8.799753    0.946326   15.732366    ( 0.0000,  0.0000,  0.0000)
  27 Tl    12.355581    3.055156   18.598056    ( 0.0000,  0.0000,  0.0000)
  28 Tl     8.819541    3.055179   10.000000    ( 0.0000,  0.0000,  0.0000)
  29 Tl    12.347357    5.091964   12.880450    ( 0.0000,  0.0000,  0.0000)
  30 Tl    10.583449    3.984501   15.715976    ( 0.0000,  0.0000,  0.0000)
  31 Tl    14.141330    6.057757   18.922697    ( 0.0000,  0.0000,  0.0000)
  32 Tl    10.583449    6.110357   10.000000    ( 0.0000,  0.0000,  0.0000)
  33 Tl    14.111265    8.147143   12.880450    ( 0.0000,  0.0000,  0.0000)
  34 Tl    12.383590    6.974014   15.907021    ( 0.0000,  0.0000,  0.0000)
  35 Tl    15.875173    9.159344   18.622071    ( 0.0000,  0.0000,  0.0000)
  36 C     10.583449    7.978548   17.280427    ( 0.0000,  0.0000,  0.0000)

Unit cell:
           periodic     x           y           z      points  spacing
  1. axis:    yes   10.583449    0.000000    0.000000    52     0.1763
  2. axis:    yes    5.291724    9.165536    0.000000    52     0.1763
  3. axis:    no     0.000000    0.000000   28.641350   160     0.1790

  Lengths:  10.583449  10.583449  28.641350
  Angles:   90.000000  90.000000  60.000000

Effective grid spacing dv^(1/3) = 0.1859

     iter     time        total  log10-change:
                         energy  eigst   dens
iter:   1 17:28:33 -12532.129063  -3.25
iter:   2 17:29:14 -12532.128848  -4.27  -3.50
iter:   3 17:29:56 -12532.128811c -5.03  -3.58
iter:   4 17:30:38 -12532.128724c -5.29  -3.79
iter:   5 17:31:19 -12532.128605c -5.53  -3.95
iter:   6 17:32:01 -12532.128598c -5.77  -4.14c
iter:   7 17:32:43 -12532.128652c -6.39  -4.24c
iter:   8 17:33:24 -12532.128673c -6.50  -4.37c
iter:   9 17:34:06 -12532.128654c -7.07  -4.40c
iter:  10 17:34:48 -12532.128658c -7.42c -4.47c

Converged after 10 iterations.

Dipole moment: (-28.248531, -12.724708, -0.021098) |e|*Ang

Energy contributions relative to reference atoms: (reference = -19802646.917894)

Kinetic:       +1271.465132
Potential:     -1199.319844
External:        +0.000000
XC:            -12603.641960
Entropy (-ST):   -0.867715
Local:           -0.198129
--------------------------
Free energy:   -12532.562515
Extrapolated:  -12532.128658

Showing only first 2 kpts
 Kpt  Band  Eigenvalues  Occupancy
  0   234     -3.95749    1.66223
  0   235     -3.83795    1.19648
  0   236     -3.81025    1.06050
  0   237     -3.76514    0.83652

  1   234     -3.88870    1.42422
  1   235     -3.85686    1.28549
  1   236     -3.77941    0.90664
  1   237     -3.74124    0.72298


Fermi level: -3.79813

No gap

Forces in eV/Ang:
  0 Tl   -0.00000    0.03299   -0.06896
  1 Tl   -0.02651   -0.04266    0.07531
  2 Tl   -0.00376    0.00170   -0.01318
  3 Tl   -0.00000    0.01332    0.00300
  4 Tl   -0.02297    0.00677   -0.13055
  5 Tl   -0.00000    0.02369    0.10138
  6 Tl    0.00281   -0.00612    0.00128
  7 Tl   -0.01518    0.00135   -0.01009
  8 Tl   -0.04805    0.00391   -0.09090
  9 Tl    0.01472    0.01501    0.08360
 10 Tl   -0.00000    0.01496    0.00075
 11 Tl    0.04966   -0.03305    0.02225
 12 Tl    0.04940   -0.02235   -0.11581
 13 Tl    0.02651   -0.04266    0.07531
 14 Tl   -0.00000    0.02860   -0.05693
 15 Tl   -0.00463    0.01456    0.01189
 16 Tl    0.00000   -0.04088   -0.11342
 17 Tl    0.06022    0.02570    0.06828
 18 Tl   -0.00281   -0.00612    0.00128
 19 Tl   -0.00000    0.04365    0.00255
 20 Tl    0.04805    0.00391   -0.09090
 21 Tl    0.00000   -0.04398    0.10667
 22 Tl    0.00128    0.02327    0.01902
 23 Tl   -0.04966   -0.03305    0.02225
 24 Tl   -0.04940   -0.02235   -0.11581
 25 Tl    0.00000   -0.02766    0.02785
 26 Tl    0.00376    0.00170   -0.01318
 27 Tl    0.00463    0.01456    0.01189
 28 Tl    0.02297    0.00677   -0.13055
 29 Tl   -0.06022    0.02570    0.06828
 30 Tl    0.00000   -0.01347    0.00974
 31 Tl    0.01518    0.00135   -0.01009
 32 Tl   -0.00000    0.02871   -0.13845
 33 Tl   -0.01472    0.01501    0.08360
 34 Tl   -0.00128    0.02327    0.01902
 35 Tl    0.00000   -0.01471    0.03108
 36 C    -0.00000    0.03546   -0.00448

BFGS:  141 17:35:00   -12532.128658        0.0637
Timing:                                      incl.     excl.
-------------------------------------------------------------------
Density initialized from wave functions:    75.132    67.130   0.1% |
 Symmetrize density:                         8.001     8.001   0.0% |
Forces:                                   1776.907  1776.907   2.0% ||
Hamiltonian:                               815.680     0.024   0.0% |
 Atomic:                                     0.039     0.038   0.0% |
  XC Correction:                             0.000     0.000   0.0% |
 Calculate atomic Hamiltonians:              0.045     0.045   0.0% |
 Communicate:                               30.181    30.181   0.0% |
 Hartree integrate/restrict:                 2.540     2.540   0.0% |
 Initialize Hamiltonian:                     0.000     0.000   0.0% |
 Poisson:                                   43.474     1.874   0.0% |
  Communicate from 1D:                       4.646     4.646   0.0% |
  Communicate from 2D:                       7.396     7.396   0.0% |
  Communicate to 1D:                         1.967     1.967   0.0% |
  Communicate to 2D:                         8.100     8.100   0.0% |
  FFT 1D:                                    6.740     6.740   0.0% |
  FFT 2D:                                   12.751    12.751   0.0% |
 XC 3D grid:                               738.810   190.399   0.2% |
  VdW-DF integral:                         548.411     6.861   0.0% |
   Convolution:                             70.873    70.873   0.1% |
   FFT:                                     43.719    43.719   0.0% |
   gather:                                 159.613   159.613   0.2% |
   hmm1:                                    11.023    11.023   0.0% |
   hmm2:                                    23.641    23.641   0.0% |
   iFFT:                                    44.210    44.210   0.0% |
   potential:                              183.788     3.781   0.0% |
    collect:                                16.553    16.553   0.0% |
    p1:                                    110.453   110.453   0.1% |
    p2:                                     36.333    36.333   0.0% |
    sum:                                    16.668    16.668   0.0% |
   splines:                                  4.681     4.681   0.0% |
 vbar:                                       0.567     0.567   0.0% |
LCAO initialization:                        26.662     0.910   0.0% |
 LCAO eigensolver:                          11.416     0.003   0.0% |
  Calculate projections:                     0.000     0.000   0.0% |
  DenseAtomicCorrection:                     0.000     0.000   0.0% |
  Distribute overlap matrix:                10.822    10.822   0.0% |
  Orbital Layouts:                           0.468     0.468   0.0% |
  Potential matrix:                          0.035     0.035   0.0% |
  Sum over cells:                            0.089     0.089   0.0% |
 LCAO to grid:                              13.325    13.325   0.0% |
 Set positions (LCAO WFS):                   1.011     0.818   0.0% |
  Basic WFS set positions:                   0.003     0.003   0.0% |
  Basis functions set positions:             0.000     0.000   0.0% |
  P tci:                                     0.001     0.001   0.0% |
  ST tci:                                    0.140     0.140   0.0% |
  mktci:                                     0.049     0.049   0.0% |
Redistribute:                                0.081     0.081   0.0% |
SCF-cycle:                               83205.168   367.697   0.4% |
 Davidson:                               71332.715 19120.504  21.3% |--------|
  Apply hamiltonian:                      3164.220  3164.220   3.5% ||
  Subspace diag:                          9921.733     0.282   0.0% |
   calc_h_matrix:                         5307.924  2624.665   2.9% ||
    Apply hamiltonian:                    2683.259  2683.259   3.0% ||
   diagonalize:                            172.510   172.510   0.2% |
   rotate_psi:                            4441.017  4441.017   5.0% |-|
  calc. matrices:                        29713.802 17224.774  19.2% |-------|
   Apply hamiltonian:                    12489.028 12489.028  13.9% |-----|
  diagonalize:                             628.557   628.557   0.7% |
  rotate_psi:                             8783.899  8783.899   9.8% |---|
 Density:                                  304.054     0.053   0.0% |
  Atomic density matrices:                   9.365     9.365   0.0% |
  Mix:                                      53.099    53.099   0.1% |
  Multipole moments:                         0.805     0.805   0.0% |
  Pseudo density:                          240.731   140.258   0.2% |
   Symmetrize density:                     100.473   100.473   0.1% |
 Hamiltonian:                            10702.217     0.281   0.0% |
  Atomic:                                    0.569     0.563   0.0% |
   XC Correction:                            0.007     0.007   0.0% |
  Calculate atomic Hamiltonians:             0.629     0.629   0.0% |
  Communicate:                             398.587   398.587   0.4% |
  Hartree integrate/restrict:               34.200    34.200   0.0% |
  Poisson:                                 572.396    24.586   0.0% |
   Communicate from 1D:                     61.070    61.070   0.1% |
   Communicate from 2D:                     97.615    97.615   0.1% |
   Communicate to 1D:                       25.954    25.954   0.0% |
   Communicate to 2D:                      106.553   106.553   0.1% |
   FFT 1D:                                  88.345    88.345   0.1% |
   FFT 2D:                                 168.274   168.274   0.2% |
  XC 3D grid:                             9689.982  2506.909   2.8% ||
   VdW-DF integral:                       7183.074    90.162   0.1% |
    Convolution:                           932.948   932.948   1.0% |
    FFT:                                   584.125   584.125   0.7% |
    gather:                               2112.539  2112.539   2.4% ||
    hmm1:                                  143.658   143.658   0.2% |
    hmm2:                                  310.841   310.841   0.3% |
    iFFT:                                  584.118   584.118   0.7% |
    potential:                            2424.670    49.284   0.1% |
     collect:                              218.794   218.794   0.2% |
     p1:                                  1459.176  1459.176   1.6% ||
     p2:                                   480.107   480.107   0.5% |
     sum:                                  217.310   217.310   0.2% |
    splines:                                 0.012     0.012   0.0% |
  vbar:                                      5.572     5.572   0.0% |
 Orthonormalize:                           498.486     0.033   0.0% |
  calc_s_matrix:                            78.850    78.850   0.1% |
  inverse-cholesky:                        258.803   258.803   0.3% |
  projections:                               0.008     0.008   0.0% |
  rotate_psi_s:                            160.792   160.792   0.2% |
Set symmetry:                                0.002     0.002   0.0% |
Other:                                    3756.469  3756.469   4.2% |-|
-------------------------------------------------------------------
Total:                                             89656.100 100.0%

Memory usage: 2.48 GiB
Date: Wed Oct  4 17:35:01 2023
