
  ___ ___ ___ _ _ _  
 |   |   |_  | | | | 
 | | | | | . | | | | 
 |__ |  _|___|_____|  22.8.0
 |___|_|             

User:   s204775@c066.nifl.fysik.dtu.dk
Date:   Thu Sep 28 06:29:52 2023
Arch:   x86_64
Pid:    37817
CWD:    /home/cat/s204775/projects/Bachelor_project/C_missing_features
Python: 3.10.4
gpaw:   /home/modules/software/GPAW/22.8.0-intel-2022a/lib/python3.10/site-packages/gpaw
_gpaw:  /home/modules/software/GPAW/22.8.0-intel-2022a/lib/python3.10/site-packages/
        _gpaw.cpython-310-x86_64-linux-gnu.so
ase:    /home/modules/software/ASE/3.22.1-intel-2022a/lib/python3.10/site-packages/ase (version 3.22.1)
numpy:  /home/modules/software/SciPy-bundle/2022.05-intel-2022a/lib/python3.10/site-packages/numpy (version 1.22.3)
scipy:  /home/modules/software/SciPy-bundle/2022.05-intel-2022a/lib/python3.10/site-packages/scipy (version 1.8.1)
libxc:  5.2.3
units:  Angstrom and eV
cores: 40
OpenMP: False
OMP_NUM_THREADS: 1

Input parameters:
  basis: dzp
  h: 0.18
  kpts: {size: (4, 4, 1)}
  xc: BEEF-vdW

System changes: positions, numbers, cell, pbc, initial_charges, initial_magmoms 

Initialize ...

species:
  Zn:
    name: Zinc
    id: 9da902d12d12265ad8e0029a903fe3c0
    Z: 30.0
    valence: 12
    core: 18
    charge: 0.0
    file: /home/modules/software/GPAW-setups/0.9.20000/Zn.PBE.gz
    compensation charges: {type: gauss,
                           rc: 0.37,
                           lmax: 2}
    cutoffs: {filter: 2.14,
              core: 2.28}
    valence states:
      #              energy  rcut
      - 4s(2.00)    -5.977   1.286
      - 4p(0.00)    -1.117   1.270
      - 3d(10.00)   -10.142   1.180
      -  s          21.234   1.286
      -  p          26.095   1.270
      -  d          17.070   1.180
  
    # LCAO basis set for Zn:
    #   Name: dzp
    #   File: /home/modules/software/GPAW-setups/0.9.20000/Zn.dzp.basis.gz
    #   Number of radial functions: 7
    #   Number of spherical harmonics: 21
    #     l=0, rc=8.1562 Bohr: 4s-sz confined orbital
    #     l=1, rc=12.4062 Bohr: 4p-sz confined orbital
    #     l=2, rc=4.3594 Bohr: 3d-sz confined orbital
    #     l=0, rc=4.7188 Bohr: 4s-dz split-valence wave
    #     l=1, rc=7.4844 Bohr: 4p-dz split-valence wave
    #     l=2, rc=2.8125 Bohr: 3d-dz split-valence wave
    #     l=1, rc=8.1562 Bohr: p-type Gaussian polarization
    #   Number of RI-basis functions 0

  C:
    name: Carbon
    id: 4aa54d4b901d75f77cc0ea3eec22967b
    Z: 6.0
    valence: 4
    core: 2
    charge: 0.0
    file: /home/modules/software/GPAW-setups/0.9.20000/C.PBE.gz
    compensation charges: {type: gauss,
                           rc: 0.20,
                           lmax: 2}
    cutoffs: {filter: 1.14,
              core: 1.14}
    valence states:
      #              energy  rcut
      - 2s(2.00)   -13.751   0.635
      - 2p(2.00)    -5.284   0.635
      -  s          13.461   0.635
      -  p          21.927   0.635
      -  d           0.000   0.635
  
    # LCAO basis set for C:
    #   Name: dzp
    #   File: /home/modules/software/GPAW-setups/0.9.20000/C.dzp.basis.gz
    #   Number of radial functions: 5
    #   Number of spherical harmonics: 13
    #     l=0, rc=5.5469 Bohr: 2s-sz confined orbital
    #     l=1, rc=6.6719 Bohr: 2p-sz confined orbital
    #     l=0, rc=3.0312 Bohr: 2s-dz split-valence wave
    #     l=1, rc=3.7500 Bohr: 2p-dz split-valence wave
    #     l=2, rc=6.6719 Bohr: d-type Gaussian polarization
    #   Number of RI-basis functions 0

Reference energy: -1760035.387621  # eV

Spin-paired calculation

Convergence criteria:
 Maximum [total energy] change in last 3 cyles: 0.0005 eV / electron
 Maximum integral of absolute [dens]ity change: 0.0001 electrons / valence electron
 Maximum integral of absolute [eigenst]ate change: 4e-08 eV^2 / valence electron
 Maximum number of scf [iter]ations: 333
 (Square brackets indicate name in SCF output, whereas a 'c' in
 the SCF output indicates the quantity has converged.)

Symmetries present (total): 2

  ( 1  1  0)  ( 1  0  0)
  ( 0 -1  0)  ( 0  1  0)
  ( 0  0  1)  ( 0  0  1)
Note: your k-points are not as symmetric as your crystal!

16 k-points: 4 x 4 x 1 Monkhorst-Pack grid
8 k-points in the irreducible part of the Brillouin zone
       k-points in crystal coordinates                weights
   0:     0.12500000   -0.37500000    0.00000000          2/16
   1:     0.12500000   -0.12500000    0.00000000          2/16
   2:     0.12500000    0.12500000    0.00000000          2/16
   3:     0.12500000    0.37500000    0.00000000          2/16
   4:     0.37500000   -0.37500000    0.00000000          2/16
   5:     0.37500000   -0.12500000    0.00000000          2/16
   6:     0.37500000    0.12500000    0.00000000          2/16
   7:     0.37500000    0.37500000    0.00000000          2/16

Wave functions: Uniform real-space grid
  Kinetic energy operator: 8*3+1=25 point O(h^6) finite-difference Laplacian
  ScaLapack parameters: grid=1x1, blocksize=None
  Wavefunction extrapolation:
    Improved wavefunction reuse through dual PAW basis 

Occupation numbers: Fermi-Dirac:
  width: 0.1000  # eV
 

Eigensolver
   Davidson(niter=2) 

Densities:
  Coarse grid: 40*40*148 grid
  Fine grid: 80*80*296 grid
  Total Charge: 0.000000 

Density mixing:
  Method: separate
  Backend: pulay
  Linear mixing parameter: 0.05
  old densities: 5
  Damping of long wavelength oscillations: 50 

Hamiltonian:
  XC and Coulomb potentials evaluated on a 80*80*296 grid
  Using the BEEF-vdW Exchange-Correlation functional
  Interpolation: tri-quintic (5. degree polynomial)
  Poisson solver: FastPoissonSolver using
    Stencil: 8*3+1=25 point O(h^6) finite-difference Laplacian
    FFT axes: [0, 1]
    FST axes: [2]
 

XC parameters: BEEF-vdW with 2 nearest neighbor stencil

Memory estimate:
  Process memory now: 217.15 MiB
  Calculator: 459.11 MiB
    Density: 53.15 MiB
      Arrays: 9.35 MiB
      Localized functions: 40.26 MiB
      Mixer: 3.54 MiB
    Hamiltonian: 8.67 MiB
      Arrays: 6.12 MiB
      XC: 0.00 MiB
      Poisson: 0.00 MiB
      vbar: 2.56 MiB
    Wavefunctions: 397.29 MiB
      Arrays psit_nG: 188.33 MiB
      Eigensolver: 202.67 MiB
      Projections: 0.54 MiB
      Projectors: 5.74 MiB

Total number of cores used: 40
Parallelization over k-points: 8
Domain decomposition: 1 x 1 x 5

Number of atoms: 37
Number of atomic orbitals: 769
Number of bands in calculation: 266
Number of valence electrons: 436
Bands to converge: occupied

... initialized

Initializing position-dependent things.

Density initialized from atomic densities
Creating initial wave functions:
  266 bands from LCAO basis set

                                             
                                             
                                             
                                             
                         C                   
               Zn     Zn     Zn              
                 Zn     Zn     Zn            
                                             
           Zn     ZZn    ZZn     Zn          
                                             
             Zn     Zn     Zn                
               Zn     Zn     Zn              
              Zn     Zn     Zn               
                Zn     Zn     Zn             
                                             
          Zn     ZZn    ZZn     Zn           
                                             
            Zn     Zn     Zn                 
              Zn     Zn     Zn               
                                             
                                             
                                             
                                             

Positions:
   0 Zn     0.000000    0.000000   10.000000    ( 0.0000,  0.0000,  0.0000)
   1 Zn     1.414214    0.816497   12.309401    ( 0.0000,  0.0000,  0.0000)
   2 Zn     0.000000    1.628527   14.652990    ( 0.0000,  0.0000,  0.0000)
   3 Zn     1.412823    2.446904   17.071372    ( 0.0000,  0.0000,  0.0000)
   4 Zn    -1.414214    2.449490   10.000000    ( 0.0000,  0.0000,  0.0000)
   5 Zn     0.000000    3.265986   12.309401    ( 0.0000,  0.0000,  0.0000)
   6 Zn    -1.415902    4.081508   14.653527    ( 0.0000,  0.0000,  0.0000)
   7 Zn     0.000000    4.898979   17.084620    ( 0.0000,  0.0000,  0.0000)
   8 Zn    -2.828427    4.898979   10.000000    ( 0.0000,  0.0000,  0.0000)
   9 Zn    -1.414214    5.715476   12.309401    ( 0.0000,  0.0000,  0.0000)
  10 Zn    -2.832295    6.534206   14.652990    ( 0.0000,  0.0000,  0.0000)
  11 Zn    -1.417148    7.348558   17.071372    ( 0.0000,  0.0000,  0.0000)
  12 Zn     2.828427    0.000000   10.000000    ( 0.0000,  0.0000,  0.0000)
  13 Zn     4.242641    0.816497   12.309401    ( 0.0000,  0.0000,  0.0000)
  14 Zn     2.825133    1.631091   14.647504    ( 0.0000,  0.0000,  0.0000)
  15 Zn     4.242641    2.449490   17.082020    ( 0.0000,  0.0000,  0.0000)
  16 Zn     1.414214    2.449490   10.000000    ( 0.0000,  0.0000,  0.0000)
  17 Zn     2.828427    3.265986   12.309401    ( 0.0000,  0.0000,  0.0000)
  18 Zn     1.415902    4.081508   14.653527    ( 0.0000,  0.0000,  0.0000)
  19 Zn     2.829972    4.901477   17.071372    ( 0.0000,  0.0000,  0.0000)
  20 Zn     0.000000    4.898979   10.000000    ( 0.0000,  0.0000,  0.0000)
  21 Zn     1.414214    5.715476   12.309401    ( 0.0000,  0.0000,  0.0000)
  22 Zn     0.000000    6.533922   14.653527    ( 0.0000,  0.0000,  0.0000)
  23 Zn     1.417148    7.348558   17.071372    ( 0.0000,  0.0000,  0.0000)
  24 Zn     5.656854    0.000000   10.000000    ( 0.0000,  0.0000,  0.0000)
  25 Zn     7.071068    0.816497   12.309401    ( 0.0000,  0.0000,  0.0000)
  26 Zn     5.660149    1.631091   14.647504    ( 0.0000,  0.0000,  0.0000)
  27 Zn     7.072458    2.446904   17.071372    ( 0.0000,  0.0000,  0.0000)
  28 Zn     4.242641    2.449490   10.000000    ( 0.0000,  0.0000,  0.0000)
  29 Zn     5.656854    3.265986   12.309401    ( 0.0000,  0.0000,  0.0000)
  30 Zn     4.242641    4.086287   14.647504    ( 0.0000,  0.0000,  0.0000)
  31 Zn     5.655310    4.901477   17.071372    ( 0.0000,  0.0000,  0.0000)
  32 Zn     2.828427    4.898979   10.000000    ( 0.0000,  0.0000,  0.0000)
  33 Zn     4.242641    5.715476   12.309401    ( 0.0000,  0.0000,  0.0000)
  34 Zn     2.832295    6.534206   14.652990    ( 0.0000,  0.0000,  0.0000)
  35 Zn     4.242641    7.348469   17.091774    ( 0.0000,  0.0000,  0.0000)
  36 C      2.829972    6.532864   17.887066    ( 0.0000,  0.0000,  0.0000)

Unit cell:
           periodic     x           y           z      points  spacing
  1. axis:    yes    8.485281    0.000000    0.000000    40     0.1837
  2. axis:    yes   -4.242641    7.348469    0.000000    40     0.1837
  3. axis:    no     0.000000    0.000000   26.928203   148     0.1819

  Lengths:   8.485281   8.485281  26.928203
  Angles:   90.000000  90.000000 120.000000

Effective grid spacing dv^(1/3) = 0.1921

     iter     time        total  log10-change:
                         energy  eigst   dens
iter:   1 06:30:52 -2788.731536
iter:   2 06:31:18 -2789.272241  +0.19  -1.39
iter:   3 06:31:45 -2789.735305  -0.18  -1.41
iter:   4 06:32:11 -2789.731397  -0.54  -1.50
iter:   5 06:32:37 -2791.022695  -0.75  -1.52
iter:   6 06:33:03 -2791.510927  -1.08  -1.86
iter:   7 06:33:30 -2791.037896  -1.45  -2.19
iter:   8 06:33:56 -2790.952024  -1.77  -2.37
iter:   9 06:34:22 -2790.788647  -2.09  -2.47
iter:  10 06:34:48 -2790.780854c -2.51  -2.77
iter:  11 06:35:14 -2790.777947c -3.05  -2.86
iter:  12 06:35:41 -2790.776448c -3.51  -2.92
iter:  13 06:36:07 -2790.775535c -3.64  -2.97
iter:  14 06:36:33 -2790.776417c -3.90  -3.25
iter:  15 06:36:59 -2790.776254c -4.07  -3.40
iter:  16 06:37:25 -2790.776136c -4.49  -3.57
iter:  17 06:37:52 -2790.775918c -4.58  -3.61
iter:  18 06:38:18 -2790.775968c -4.91  -3.72
iter:  19 06:38:44 -2790.775952c -5.25  -3.92
iter:  20 06:39:10 -2790.775953c -5.61  -4.03c
iter:  21 06:39:36 -2790.775938c -5.94  -4.08c
iter:  22 06:40:02 -2790.775963c -5.65  -4.15c
iter:  23 06:40:29 -2790.775948c -5.98  -4.27c
iter:  24 06:40:55 -2790.775948c -6.25  -4.37c
iter:  25 06:41:21 -2790.775945c -6.73  -4.44c
iter:  26 06:41:47 -2790.775942c -6.91  -4.52c
iter:  27 06:42:13 -2790.775949c -6.87  -4.85c
iter:  28 06:42:39 -2790.775948c -7.56c -4.99c

Converged after 28 iterations.

Dipole moment: (-4.301985, -3.700637, -0.218917) |e|*Ang

Energy contributions relative to reference atoms: (reference = -1760035.387621)

Kinetic:       +639.188075
Potential:     -532.249757
External:        +0.000000
XC:            -2895.790073
Entropy (-ST):   -0.424124
Local:           -1.712130
--------------------------
Free energy:   -2790.988010
Extrapolated:  -2790.775948

Showing only first 2 kpts
 Kpt  Band  Eigenvalues  Occupancy
  0   216     -4.81564    1.69846
  0   217     -4.76171    1.53324
  0   218     -4.58541    0.72074
  0   219     -4.38420    0.14012

  1   216     -4.53073    0.49184
  1   217     -4.37870    0.13311
  1   218     -4.13395    0.01226
  1   219     -3.79532    0.00042


Fermi level: -4.64278

No gap

Forces in eV/Ang:
  0 Zn   -0.00570   -0.00329   -0.15048
  1 Zn    0.01537    0.00887    0.12741
  2 Zn    0.01154    0.00714    0.04514
  3 Zn   -0.00579    0.00941   -0.02237
  4 Zn   -0.00391    0.03720   -0.21249
  5 Zn    0.01297   -0.00796    0.17204
  6 Zn   -0.00138   -0.00080   -0.10470
  7 Zn   -0.18764   -0.10833   -0.08235
  8 Zn    0.03026   -0.02198   -0.21249
  9 Zn   -0.00040    0.01521    0.17204
 10 Zn    0.01195    0.00643    0.04514
 11 Zn    0.00526   -0.00972   -0.02237
 12 Zn   -0.01290   -0.00462   -0.15952
 13 Zn   -0.03628    0.02223    0.13143
 14 Zn    0.03767    0.02175   -0.07767
 15 Zn    0.02325    0.01342   -0.05033
 16 Zn   -0.01045   -0.00886   -0.15952
 17 Zn    0.00112   -0.04253    0.13143
 18 Zn   -0.00057   -0.02354    0.04757
 19 Zn    0.00817   -2.76293   -0.67634
 20 Zn   -0.04267   -0.02464   -0.20291
 21 Zn   -0.01664   -0.00961    0.16578
 22 Zn   -0.02067    0.01128    0.04757
 23 Zn   -2.38868    1.38854   -0.67634
 24 Zn    0.01719    0.00392   -0.14273
 25 Zn    0.02178    0.01020    0.16256
 26 Zn   -0.04636    0.02822    0.06055
 27 Zn   -0.02286    0.21601   -0.05302
 28 Zn    0.01022    0.00590   -0.17168
 29 Zn   -0.01241   -0.00717    0.16390
 30 Zn    0.00126   -0.05426    0.06055
 31 Zn    0.17564   -0.12780   -0.05302
 32 Zn    0.01199    0.01293   -0.14273
 33 Zn    0.01972    0.01377    0.16256
 34 Zn    0.00806    0.00465    0.05074
 35 Zn    2.52378    1.45710   -0.74425
 36 C    -0.13012   -0.07513    2.40550

      Step     Time          Energy         fmax
BFGS:    0 06:42:52    -2790.775948        3.0077
System changes: positions 

Initializing position-dependent things.

Density initialized from wave functions
                                             
                                             
                                             
                                             
                         C                   
               Zn     Zn     Zn              
                 Zn     Zn     Zn            
                                             
           Zn     ZZn    ZZn     Zn          
                                             
             Zn     Zn     Zn                
               Zn     Zn     Zn              
              Zn     Zn     Zn               
                Zn     Zn     Zn             
                                             
          Zn     ZZn    ZZn     Zn           
                                             
            Zn     Zn     Zn                 
              Zn     Zn     Zn               
                                             
                                             
                                             
                                             

Positions:
   0 Zn     0.000000    0.000000   10.000000    ( 0.0000,  0.0000,  0.0000)
   1 Zn     1.414214    0.816497   12.309401    ( 0.0000,  0.0000,  0.0000)
   2 Zn     0.000165    1.628629   14.653635    ( 0.0000,  0.0000,  0.0000)
   3 Zn     1.412741    2.447038   17.071053    ( 0.0000,  0.0000,  0.0000)
   4 Zn    -1.414214    2.449490   10.000000    ( 0.0000,  0.0000,  0.0000)
   5 Zn     0.000000    3.265986   12.309401    ( 0.0000,  0.0000,  0.0000)
   6 Zn    -1.415922    4.081497   14.652031    ( 0.0000,  0.0000,  0.0000)
   7 Zn    -0.002681    4.897432   17.083443    ( 0.0000,  0.0000,  0.0000)
   8 Zn    -2.828427    4.898979   10.000000    ( 0.0000,  0.0000,  0.0000)
   9 Zn    -1.414214    5.715476   12.309401    ( 0.0000,  0.0000,  0.0000)
  10 Zn    -2.832124    6.534297   14.653635    ( 0.0000,  0.0000,  0.0000)
  11 Zn    -1.417073    7.348419   17.071053    ( 0.0000,  0.0000,  0.0000)
  12 Zn     2.828427    0.000000   10.000000    ( 0.0000,  0.0000,  0.0000)
  13 Zn     4.242641    0.816497   12.309401    ( 0.0000,  0.0000,  0.0000)
  14 Zn     2.825671    1.631402   14.646394    ( 0.0000,  0.0000,  0.0000)
  15 Zn     4.242973    2.449681   17.081301    ( 0.0000,  0.0000,  0.0000)
  16 Zn     1.414214    2.449490   10.000000    ( 0.0000,  0.0000,  0.0000)
  17 Zn     2.828427    3.265986   12.309401    ( 0.0000,  0.0000,  0.0000)
  18 Zn     1.415894    4.081172   14.654207    ( 0.0000,  0.0000,  0.0000)
  19 Zn     2.830088    4.862006   17.061710    ( 0.0000,  0.0000,  0.0000)
  20 Zn     0.000000    4.898979   10.000000    ( 0.0000,  0.0000,  0.0000)
  21 Zn     1.414214    5.715476   12.309401    ( 0.0000,  0.0000,  0.0000)
  22 Zn    -0.000295    6.534084   14.654207    ( 0.0000,  0.0000,  0.0000)
  23 Zn     1.383024    7.368395   17.061710    ( 0.0000,  0.0000,  0.0000)
  24 Zn     5.656854    0.000000   10.000000    ( 0.0000,  0.0000,  0.0000)
  25 Zn     7.071068    0.816497   12.309401    ( 0.0000,  0.0000,  0.0000)
  26 Zn     5.659487    1.631494   14.648369    ( 0.0000,  0.0000,  0.0000)
  27 Zn     7.072132    2.449989   17.070615    ( 0.0000,  0.0000,  0.0000)
  28 Zn     4.242641    2.449490   10.000000    ( 0.0000,  0.0000,  0.0000)
  29 Zn     5.656854    3.265986   12.309401    ( 0.0000,  0.0000,  0.0000)
  30 Zn     4.242659    4.085512   14.648369    ( 0.0000,  0.0000,  0.0000)
  31 Zn     5.657819    4.899651   17.070615    ( 0.0000,  0.0000,  0.0000)
  32 Zn     2.828427    4.898979   10.000000    ( 0.0000,  0.0000,  0.0000)
  33 Zn     4.242641    5.715476   12.309401    ( 0.0000,  0.0000,  0.0000)
  34 Zn     2.832410    6.534272   14.653715    ( 0.0000,  0.0000,  0.0000)
  35 Zn     4.278695    7.369285   17.081142    ( 0.0000,  0.0000,  0.0000)
  36 C      2.828113    6.531791   17.921430    ( 0.0000,  0.0000,  0.0000)

Unit cell:
           periodic     x           y           z      points  spacing
  1. axis:    yes    8.485281    0.000000    0.000000    40     0.1837
  2. axis:    yes   -4.242641    7.348469    0.000000    40     0.1837
  3. axis:    no     0.000000    0.000000   26.928203   148     0.1819

  Lengths:   8.485281   8.485281  26.928203
  Angles:   90.000000  90.000000 120.000000

Effective grid spacing dv^(1/3) = 0.1921

     iter     time        total  log10-change:
                         energy  eigst   dens
iter:   1 06:43:52 -2791.599018  -1.21
iter:   2 06:44:18 -2791.286971  -1.85  -2.33
iter:   3 06:44:45 -2791.179258  -2.34  -2.47
iter:   4 06:45:12 -2791.138787c -2.56  -2.79
iter:   5 06:45:38 -2791.142793c -3.02  -3.03
iter:   6 06:46:05 -2791.130728c -3.08  -3.07
iter:   7 06:46:31 -2791.128329c -3.24  -3.27
iter:   8 06:46:58 -2791.128668c -3.46  -3.53
iter:   9 06:47:24 -2791.128859c -3.84  -3.58
iter:  10 06:47:51 -2791.128824c -4.33  -3.65
iter:  11 06:48:17 -2791.128982c -4.59  -3.84
iter:  12 06:48:44 -2791.128955c -4.73  -3.88
iter:  13 06:49:10 -2791.128988c -5.07  -4.07c
iter:  14 06:49:37 -2791.128999c -5.51  -4.07c
iter:  15 06:50:04 -2791.128991c -5.61  -4.07c
iter:  16 06:50:31 -2791.128992c -5.59  -4.20c
iter:  17 06:50:57 -2791.128989c -5.92  -4.30c
iter:  18 06:51:24 -2791.128979c -6.30  -4.37c
iter:  19 06:51:50 -2791.128967c -6.30  -4.48c
iter:  20 06:52:17 -2791.128964c -6.61  -4.67c
iter:  21 06:52:43 -2791.128966c -6.95  -4.78c
iter:  22 06:53:10 -2791.128968c -7.29  -4.92c
iter:  23 06:53:36 -2791.128971c -7.43c -4.95c

Converged after 23 iterations.

Dipole moment: (-5.085399, -4.791956, -0.234219) |e|*Ang

Energy contributions relative to reference atoms: (reference = -1760035.387621)

Kinetic:       +634.574557
Potential:     -528.707517
External:        +0.000000
XC:            -2895.072529
Entropy (-ST):   -0.427122
Local:           -1.709922
--------------------------
Free energy:   -2791.342532
Extrapolated:  -2791.128971

Showing only first 2 kpts
 Kpt  Band  Eigenvalues  Occupancy
  0   216     -4.82440    1.68181
  0   217     -4.77152    1.51396
  0   218     -4.60018    0.71918
  0   219     -4.40402    0.14636

  1   216     -4.54033    0.47166
  1   217     -4.38811    0.12620
  1   218     -4.12712    0.00986
  1   219     -3.81889    0.00045


Fermi level: -4.65790

No gap

Forces in eV/Ang:
  0 Zn   -0.00756   -0.00437   -0.14944
  1 Zn    0.01494    0.00862    0.12505
  2 Zn    0.00472    0.01130    0.03258
  3 Zn   -0.00938    0.01418   -0.02161
  4 Zn   -0.00437    0.03584   -0.21079
  5 Zn    0.01505   -0.00890    0.17340
  6 Zn   -0.00061   -0.00035   -0.10269
  7 Zn   -0.15659   -0.09041   -0.07640
  8 Zn    0.02885   -0.02171   -0.21079
  9 Zn   -0.00018    0.01748    0.17340
 10 Zn    0.01215   -0.00157    0.03258
 11 Zn    0.00759   -0.01521   -0.02161
 12 Zn   -0.01273   -0.00306   -0.15829
 13 Zn   -0.03552    0.02188    0.12848
 14 Zn    0.03607    0.02082   -0.08292
 15 Zn    0.02733    0.01578   -0.04855
 16 Zn   -0.00901   -0.00950   -0.15829
 17 Zn    0.00119   -0.04170    0.12848
 18 Zn   -0.00784   -0.01920    0.03419
 19 Zn    0.01616   -1.78406   -0.29701
 20 Zn   -0.04173   -0.02410   -0.20081
 21 Zn   -0.01395   -0.00805    0.16992
 22 Zn   -0.02054    0.00281    0.03419
 23 Zn   -1.53696    0.90603   -0.29701
 24 Zn    0.01881    0.00338   -0.14159
 25 Zn    0.02139    0.00697    0.16541
 26 Zn   -0.03809    0.03119    0.04715
 27 Zn   -0.02041    0.17692   -0.04588
 28 Zn    0.00953    0.00550   -0.17025
 29 Zn   -0.01457   -0.00841    0.16419
 30 Zn    0.00796   -0.04858    0.04715
 31 Zn    0.14301   -0.10614   -0.04588
 32 Zn    0.01233    0.01460   -0.14159
 33 Zn    0.01674    0.01504    0.16541
 34 Zn    0.00710    0.00410    0.09779
 35 Zn    1.58554    0.91541   -0.31249
 36 C    -0.06113   -0.03529    1.20366

BFGS:    1 06:53:49    -2791.128971        1.8573
System changes: positions 

Initializing position-dependent things.

Density initialized from wave functions
                                             
                                             
                                             
                                             
                         C                   
               Zn     Zn     Zn              
                 Zn     Zn     Zn            
                                             
           Zn     ZZn    ZZn     Zn          
                                             
             Zn     Zn     Zn                
               Zn     Zn     Zn              
              Zn     Zn     Zn               
                Zn     Zn     Zn             
                                             
          Zn     ZZn    ZZn     Zn           
                                             
            Zn     Zn     Zn                 
              Zn     Zn     Zn               
                                             
                                             
                                             
                                             

Positions:
   0 Zn     0.000000    0.000000   10.000000    ( 0.0000,  0.0000,  0.0000)
   1 Zn     1.414214    0.816497   12.309401    ( 0.0000,  0.0000,  0.0000)
   2 Zn     0.000341    1.629042   14.654834    ( 0.0000,  0.0000,  0.0000)
   3 Zn     1.412399    2.447555   17.070260    ( 0.0000,  0.0000,  0.0000)
   4 Zn    -1.414214    2.449490   10.000000    ( 0.0000,  0.0000,  0.0000)
   5 Zn     0.000000    3.265986   12.309401    ( 0.0000,  0.0000,  0.0000)
   6 Zn    -1.415945    4.081483   14.648267    ( 0.0000,  0.0000,  0.0000)
   7 Zn    -0.008433    4.894111   17.080641    ( 0.0000,  0.0000,  0.0000)
   8 Zn    -2.828427    4.898979   10.000000    ( 0.0000,  0.0000,  0.0000)
   9 Zn    -1.414214    5.715476   12.309401    ( 0.0000,  0.0000,  0.0000)
  10 Zn    -2.831679    6.534244   14.654834    ( 0.0000,  0.0000,  0.0000)
  11 Zn    -1.416796    7.347865   17.070260    ( 0.0000,  0.0000,  0.0000)
  12 Zn     2.828427    0.000000   10.000000    ( 0.0000,  0.0000,  0.0000)
  13 Zn     4.242641    0.816497   12.309401    ( 0.0000,  0.0000,  0.0000)
  14 Zn     2.826993    1.632165   14.643358    ( 0.0000,  0.0000,  0.0000)
  15 Zn     4.243972    2.450259   17.079521    ( 0.0000,  0.0000,  0.0000)
  16 Zn     1.414214    2.449490   10.000000    ( 0.0000,  0.0000,  0.0000)
  17 Zn     2.828427    3.265986   12.309401    ( 0.0000,  0.0000,  0.0000)
  18 Zn     1.415610    4.080466   14.655465    ( 0.0000,  0.0000,  0.0000)
  19 Zn     2.830677    4.796178   17.050652    ( 0.0000,  0.0000,  0.0000)
  20 Zn     0.000000    4.898979   10.000000    ( 0.0000,  0.0000,  0.0000)
  21 Zn     1.414214    5.715476   12.309401    ( 0.0000,  0.0000,  0.0000)
  22 Zn    -0.001048    6.534190   14.655465    ( 0.0000,  0.0000,  0.0000)
  23 Zn     1.326310    7.401819   17.050652    ( 0.0000,  0.0000,  0.0000)
  24 Zn     5.656854    0.000000   10.000000    ( 0.0000,  0.0000,  0.0000)
  25 Zn     7.071068    0.816497   12.309401    ( 0.0000,  0.0000,  0.0000)
  26 Zn     5.658087    1.632636   14.650102    ( 0.0000,  0.0000,  0.0000)
  27 Zn     7.071382    2.456491   17.068930    ( 0.0000,  0.0000,  0.0000)
  28 Zn     4.242641    2.449490   10.000000    ( 0.0000,  0.0000,  0.0000)
  29 Zn     5.656854    3.265986   12.309401    ( 0.0000,  0.0000,  0.0000)
  30 Zn     4.242947    4.083729   14.650102    ( 0.0000,  0.0000,  0.0000)
  31 Zn     5.663075    4.895751   17.068930    ( 0.0000,  0.0000,  0.0000)
  32 Zn     2.828427    4.898979   10.000000    ( 0.0000,  0.0000,  0.0000)
  33 Zn     4.242641    5.715476   12.309401    ( 0.0000,  0.0000,  0.0000)
  34 Zn     2.832671    6.534423   14.657277    ( 0.0000,  0.0000,  0.0000)
  35 Zn     4.337229    7.403080   17.069493    ( 0.0000,  0.0000,  0.0000)
  36 C      2.825841    6.530480   17.966091    ( 0.0000,  0.0000,  0.0000)

Unit cell:
           periodic     x           y           z      points  spacing
  1. axis:    yes    8.485281    0.000000    0.000000    40     0.1837
  2. axis:    yes   -4.242641    7.348469    0.000000    40     0.1837
  3. axis:    no     0.000000    0.000000   26.928203   148     0.1819

  Lengths:   8.485281   8.485281  26.928203
  Angles:   90.000000  90.000000 120.000000

Effective grid spacing dv^(1/3) = 0.1921

     iter     time        total  log10-change:
                         energy  eigst   dens
iter:   1 06:54:48 -2792.291231  -0.87
iter:   2 06:55:15 -2791.724420  -1.48  -2.19
iter:   3 06:55:41 -2791.470849  -1.96  -2.32
iter:   4 06:56:08 -2791.408514  -2.23  -2.63
iter:   5 06:56:34 -2791.421116c -2.64  -2.86
iter:   6 06:57:01 -2791.388691c -2.70  -2.87
iter:   7 06:57:27 -2791.385063c -2.90  -3.11
iter:   8 06:57:54 -2791.385792c -3.11  -3.36
iter:   9 06:58:20 -2791.386170c -3.46  -3.40
iter:  10 06:58:47 -2791.386073c -3.89  -3.47
iter:  11 06:59:13 -2791.386321c -4.18  -3.66
iter:  12 06:59:40 -2791.386259c -4.42  -3.71
iter:  13 07:00:06 -2791.386309c -4.77  -3.91
iter:  14 07:00:33 -2791.386332c -4.97  -4.02c
iter:  15 07:00:59 -2791.386357c -5.32  -4.12c
iter:  16 07:01:26 -2791.386332c -5.58  -4.26c
iter:  17 07:01:53 -2791.386324c -5.95  -4.36c
iter:  18 07:02:19 -2791.386307c -6.26  -4.41c
iter:  19 07:02:46 -2791.386315c -6.45  -4.63c
iter:  20 07:03:13 -2791.386318c -6.65  -4.70c
iter:  21 07:03:39 -2791.386318c -6.96  -4.79c
iter:  22 07:04:06 -2791.386315c -7.17  -4.87c
iter:  23 07:04:32 -2791.386314c -7.47c -4.94c

Converged after 23 iterations.

Dipole moment: (-6.173988, -6.505115, -0.251757) |e|*Ang

Energy contributions relative to reference atoms: (reference = -1760035.387621)

Kinetic:       +629.610915
Potential:     -524.907514
External:        +0.000000
XC:            -2894.175134
Entropy (-ST):   -0.431971
Local:           -1.698595
--------------------------
Free energy:   -2791.602299
Extrapolated:  -2791.386314

Showing only first 2 kpts
 Kpt  Band  Eigenvalues  Occupancy
  0   216     -4.83353    1.65719
  0   217     -4.77907    1.47425
  0   218     -4.61750    0.71571
  0   219     -4.43053    0.15824

  1   216     -4.54922    0.43940
  1   217     -4.39676    0.11551
  1   218     -4.11077    0.00700
  1   219     -3.85202    0.00053


Fermi level: -4.67596

No gap

Forces in eV/Ang:
  0 Zn   -0.01088   -0.00628   -0.14960
  1 Zn    0.01540    0.00889    0.12121
  2 Zn   -0.00584    0.01820    0.01195
  3 Zn   -0.01415    0.02088   -0.01225
  4 Zn   -0.00538    0.03343   -0.20908
  5 Zn    0.01813   -0.01048    0.17489
  6 Zn    0.00090    0.00052   -0.10101
  7 Zn   -0.09867   -0.05697   -0.06111
  8 Zn    0.02627   -0.02137   -0.20908
  9 Zn   -0.00001    0.02094    0.17489
 10 Zn    0.01285   -0.01415    0.01195
 11 Zn    0.01101   -0.02270   -0.01225
 12 Zn   -0.01230    0.00015   -0.15811
 13 Zn   -0.03510    0.02193    0.12329
 14 Zn    0.03153    0.01820   -0.08819
 15 Zn    0.03188    0.01840   -0.03596
 16 Zn   -0.00602   -0.01072   -0.15811
 17 Zn    0.00144   -0.04136    0.12329
 18 Zn   -0.01915   -0.01139    0.01170
 19 Zn   -0.00569   -0.62281    0.16250
 20 Zn   -0.04016   -0.02318   -0.19861
 21 Zn   -0.01004   -0.00580    0.17317
 22 Zn   -0.01944   -0.01089    0.01170
 23 Zn   -0.54222    0.30648    0.16250
 24 Zn    0.02144    0.00279   -0.14167
 25 Zn    0.02041    0.00280    0.16648
 26 Zn   -0.02317    0.03484    0.02348
 27 Zn   -0.01480    0.10761   -0.03002
 28 Zn    0.00799    0.00461   -0.16970
 29 Zn   -0.01783   -0.01029    0.16347
 30 Zn    0.01859   -0.03748    0.02348
 31 Zn    0.08579   -0.06662   -0.03002
 32 Zn    0.01314    0.01717   -0.14167
 33 Zn    0.01263    0.01627    0.16648
 34 Zn    0.00468    0.00270    0.17452
 35 Zn    0.50687    0.29264    0.14185
 36 C     0.02424    0.01399   -0.19177

BFGS:    2 07:04:45    -2791.386314        0.6437
System changes: positions 

Initializing position-dependent things.

Density initialized from wave functions
                                             
                                             
                                             
                                             
                         C                   
               Zn     Zn     Zn              
                 Zn            Zn            
                        Zn                   
           Zn     ZZn    ZZn     Zn          
                                             
             Zn     Zn     Zn                
               Zn     Zn     Zn              
              Zn     Zn     Zn               
                Zn     Zn     Zn             
                                             
          Zn     ZZn    ZZn     Zn           
                                             
            Zn     Zn     Zn                 
              Zn     Zn     Zn               
                                             
                                             
                                             
                                             

Positions:
   0 Zn     0.000000    0.000000   10.000000    ( 0.0000,  0.0000,  0.0000)
   1 Zn     1.414214    0.816497   12.309401    ( 0.0000,  0.0000,  0.0000)
   2 Zn     0.000274    1.629490   14.655360    ( 0.0000,  0.0000,  0.0000)
   3 Zn     1.412045    2.448081   17.069833    ( 0.0000,  0.0000,  0.0000)
   4 Zn    -1.414214    2.449490   10.000000    ( 0.0000,  0.0000,  0.0000)
   5 Zn     0.000000    3.265986   12.309401    ( 0.0000,  0.0000,  0.0000)
   6 Zn    -1.415933    4.081490   14.645409    ( 0.0000,  0.0000,  0.0000)
   7 Zn    -0.011738    4.892202   17.078783    ( 0.0000,  0.0000,  0.0000)
   8 Zn    -2.828427    4.898979   10.000000    ( 0.0000,  0.0000,  0.0000)
   9 Zn    -1.414214    5.715476   12.309401    ( 0.0000,  0.0000,  0.0000)
  10 Zn    -2.831324    6.533961   14.655360    ( 0.0000,  0.0000,  0.0000)
  11 Zn    -1.416518    7.347295   17.069833    ( 0.0000,  0.0000,  0.0000)
  12 Zn     2.828427    0.000000   10.000000    ( 0.0000,  0.0000,  0.0000)
  13 Zn     4.242641    0.816497   12.309401    ( 0.0000,  0.0000,  0.0000)
  14 Zn     2.827921    1.632701   14.640926    ( 0.0000,  0.0000,  0.0000)
  15 Zn     4.244827    2.450752   17.078398    ( 0.0000,  0.0000,  0.0000)
  16 Zn     1.414214    2.449490   10.000000    ( 0.0000,  0.0000,  0.0000)
  17 Zn     2.828427    3.265986   12.309401    ( 0.0000,  0.0000,  0.0000)
  18 Zn     1.415175    4.080074   14.656001    ( 0.0000,  0.0000,  0.0000)
  19 Zn     2.830704    4.767834   17.050948    ( 0.0000,  0.0000,  0.0000)
  20 Zn     0.000000    4.898979   10.000000    ( 0.0000,  0.0000,  0.0000)
  21 Zn     1.414214    5.715476   12.309401    ( 0.0000,  0.0000,  0.0000)
  22 Zn    -0.001605    6.534010   14.656001    ( 0.0000,  0.0000,  0.0000)
  23 Zn     1.301777    7.416014   17.050948    ( 0.0000,  0.0000,  0.0000)
  24 Zn     5.656854    0.000000   10.000000    ( 0.0000,  0.0000,  0.0000)
  25 Zn     7.071068    0.816497   12.309401    ( 0.0000,  0.0000,  0.0000)
  26 Zn     5.657299    1.633582   14.650980    ( 0.0000,  0.0000,  0.0000)
  27 Zn     7.070915    2.460153   17.067942    ( 0.0000,  0.0000,  0.0000)
  28 Zn     4.242641    2.449490   10.000000    ( 0.0000,  0.0000,  0.0000)
  29 Zn     5.656854    3.265986   12.309401    ( 0.0000,  0.0000,  0.0000)
  30 Zn     4.243373    4.082573   14.650980    ( 0.0000,  0.0000,  0.0000)
  31 Zn     5.666012    4.893516   17.067942    ( 0.0000,  0.0000,  0.0000)
  32 Zn     2.828427    4.898979   10.000000    ( 0.0000,  0.0000,  0.0000)
  33 Zn     4.242641    5.715476   12.309401    ( 0.0000,  0.0000,  0.0000)
  34 Zn     2.832824    6.534511   14.661483    ( 0.0000,  0.0000,  0.0000)
  35 Zn     4.361560    7.417127   17.069221    ( 0.0000,  0.0000,  0.0000)
  36 C      2.825729    6.530415   17.973713    ( 0.0000,  0.0000,  0.0000)

Unit cell:
           periodic     x           y           z      points  spacing
  1. axis:    yes    8.485281    0.000000    0.000000    40     0.1837
  2. axis:    yes   -4.242641    7.348469    0.000000    40     0.1837
  3. axis:    no     0.000000    0.000000   26.928203   148     0.1819

  Lengths:   8.485281   8.485281  26.928203
  Angles:   90.000000  90.000000 120.000000

Effective grid spacing dv^(1/3) = 0.1921

     iter     time        total  log10-change:
                         energy  eigst   dens
iter:   1 07:05:44 -2791.510844  -1.79
iter:   2 07:06:11 -2791.458944  -2.44  -2.71
iter:   3 07:06:37 -2791.431657c -2.89  -2.82
iter:   4 07:07:04 -2791.425590c -3.17  -3.11
iter:   5 07:07:30 -2791.424093c -3.47  -3.36
iter:   6 07:07:57 -2791.423157c -3.52  -3.47
iter:   7 07:08:23 -2791.422940c -3.87  -3.60
iter:   8 07:08:50 -2791.423020c -4.12  -3.81
iter:   9 07:09:17 -2791.423048c -4.57  -3.84
iter:  10 07:09:43 -2791.423034c -4.77  -4.10c
iter:  11 07:10:10 -2791.423040c -5.05  -4.15c
iter:  12 07:10:36 -2791.423031c -5.28  -4.25c
iter:  13 07:11:03 -2791.423074c -5.59  -4.40c
iter:  14 07:11:30 -2791.423076c -5.92  -4.53c
iter:  15 07:11:56 -2791.423061c -6.21  -4.56c
iter:  16 07:12:23 -2791.423057c -6.44  -4.83c
iter:  17 07:12:49 -2791.423056c -6.74  -4.89c
iter:  18 07:13:16 -2791.423057c -7.14  -4.94c
iter:  19 07:13:43 -2791.423059c -7.33  -5.15c
iter:  20 07:14:09 -2791.423060c -7.57c -5.33c

Converged after 20 iterations.

Dipole moment: (-6.545570, -7.181738, -0.253894) |e|*Ang

Energy contributions relative to reference atoms: (reference = -1760035.387621)

Kinetic:       +628.349125
Potential:     -523.938122
External:        +0.000000
XC:            -2893.918821
Entropy (-ST):   -0.433432
Local:           -1.698526
--------------------------
Free energy:   -2791.639777
Extrapolated:  -2791.423060

Showing only first 2 kpts
 Kpt  Band  Eigenvalues  Occupancy
  0   216     -4.83421    1.65259
  0   217     -4.77672    1.45607
  0   218     -4.61879    0.71113
  0   219     -4.43646    0.16363

  1   216     -4.54923    0.43162
  1   217     -4.39566    0.11188
  1   218     -4.10073    0.00619
  1   219     -3.86010    0.00056


Fermi level: -4.67825

No gap

Forces in eV/Ang:
  0 Zn   -0.01250   -0.00722   -0.14977
  1 Zn    0.01417    0.00818    0.12070
  2 Zn   -0.01109    0.01745    0.00478
  3 Zn   -0.01732    0.02244   -0.00864
  4 Zn   -0.00591    0.03232   -0.20790
  5 Zn    0.01887   -0.01096    0.17461
  6 Zn    0.00141    0.00081   -0.09942
  7 Zn   -0.07153   -0.04130   -0.05589
  8 Zn    0.02504   -0.02127   -0.20790
  9 Zn   -0.00006    0.02183    0.17461
 10 Zn    0.00957   -0.01833    0.00478
 11 Zn    0.01077   -0.02622   -0.00864
 12 Zn   -0.01204    0.00161   -0.15847
 13 Zn   -0.03324    0.02093    0.12182
 14 Zn    0.02772    0.01600   -0.08765
 15 Zn    0.03382    0.01953   -0.03036
 16 Zn   -0.00463   -0.01123   -0.15847
 17 Zn    0.00151   -0.03925    0.12182
 18 Zn   -0.02097   -0.00479    0.00322
 19 Zn   -0.00924   -0.29831    0.28328
 20 Zn   -0.03947   -0.02279   -0.19735
 21 Zn   -0.00653   -0.00377    0.17695
 22 Zn   -0.01463   -0.01577    0.00322
 23 Zn   -0.26296    0.14115    0.28328
 24 Zn    0.02266    0.00256   -0.14184
 25 Zn    0.01987   -0.00078    0.16947
 26 Zn   -0.01417    0.03171    0.01412
 27 Zn   -0.01191    0.07702   -0.02581
 28 Zn    0.00723    0.00417   -0.16977
 29 Zn   -0.01856   -0.01071    0.16197
 30 Zn    0.02037   -0.02813    0.01412
 31 Zn    0.06074   -0.04882   -0.02581
 32 Zn    0.01355    0.01834   -0.14184
 33 Zn    0.00926    0.01760    0.16947
 34 Zn    0.00298    0.00172    0.20411
 35 Zn    0.21437    0.12377    0.25844
 36 C     0.02643    0.01526   -0.53919

BFGS:    3 07:14:22    -2791.423060        0.5401
System changes: positions 

Initializing position-dependent things.

Density initialized from wave functions
                                             
                                             
                                             
                                             
                         C                   
               Zn     Zn     Zn              
                 Zn            Zn            
                        Zn                   
           Zn     ZZn    ZZn     Zn          
                                             
             Zn     Zn     Zn                
               Zn     Zn     Zn              
              Zn     Zn     Zn               
                Zn     Zn     Zn             
                                             
          Zn     ZZn    ZZn     Zn           
                                             
            Zn     Zn     Zn                 
              Zn     Zn     Zn               
                                             
                                             
                                             
                                             

Positions:
   0 Zn     0.000000    0.000000   10.000000    ( 0.0000,  0.0000,  0.0000)
   1 Zn     1.414214    0.816497   12.309401    ( 0.0000,  0.0000,  0.0000)
   2 Zn    -0.000006    1.630148   14.655828    ( 0.0000,  0.0000,  0.0000)
   3 Zn     1.411437    2.448904   17.069360    ( 0.0000,  0.0000,  0.0000)
   4 Zn    -1.414214    2.449490   10.000000    ( 0.0000,  0.0000,  0.0000)
   5 Zn     0.000000    3.265986   12.309401    ( 0.0000,  0.0000,  0.0000)
   6 Zn    -1.415897    4.081511   14.641375    ( 0.0000,  0.0000,  0.0000)
   7 Zn    -0.015492    4.890035   17.076337    ( 0.0000,  0.0000,  0.0000)
   8 Zn    -2.828427    4.898979   10.000000    ( 0.0000,  0.0000,  0.0000)
   9 Zn    -1.414214    5.715476   12.309401    ( 0.0000,  0.0000,  0.0000)
  10 Zn    -2.830894    6.533390   14.655828    ( 0.0000,  0.0000,  0.0000)
  11 Zn    -1.416109    7.346357   17.069360    ( 0.0000,  0.0000,  0.0000)
  12 Zn     2.828427    0.000000   10.000000    ( 0.0000,  0.0000,  0.0000)
  13 Zn     4.242641    0.816497   12.309401    ( 0.0000,  0.0000,  0.0000)
  14 Zn     2.829129    1.633398   14.637440    ( 0.0000,  0.0000,  0.0000)
  15 Zn     4.246118    2.451497   17.076996    ( 0.0000,  0.0000,  0.0000)
  16 Zn     1.414214    2.449490   10.000000    ( 0.0000,  0.0000,  0.0000)
  17 Zn     2.828427    3.265986   12.309401    ( 0.0000,  0.0000,  0.0000)
  18 Zn     1.414452    4.079718   14.656441    ( 0.0000,  0.0000,  0.0000)
  19 Zn     2.830542    4.741238   17.056676    ( 0.0000,  0.0000,  0.0000)
  20 Zn     0.000000    4.898979   10.000000    ( 0.0000,  0.0000,  0.0000)
  21 Zn     1.414214    5.715476   12.309401    ( 0.0000,  0.0000,  0.0000)
  22 Zn    -0.002275    6.533561   14.656441    ( 0.0000,  0.0000,  0.0000)
  23 Zn     1.278663    7.429171   17.056676    ( 0.0000,  0.0000,  0.0000)
  24 Zn     5.656854    0.000000   10.000000    ( 0.0000,  0.0000,  0.0000)
  25 Zn     7.071068    0.816497   12.309401    ( 0.0000,  0.0000,  0.0000)
  26 Zn     5.656471    1.634874   14.651881    ( 0.0000,  0.0000,  0.0000)
  27 Zn     7.070348    2.464273   17.066715    ( 0.0000,  0.0000,  0.0000)
  28 Zn     4.242641    2.449490   10.000000    ( 0.0000,  0.0000,  0.0000)
  29 Zn     5.656854    3.265986   12.309401    ( 0.0000,  0.0000,  0.0000)
  30 Zn     4.244078    4.081211   14.651881    ( 0.0000,  0.0000,  0.0000)
  31 Zn     5.669297    4.890964   17.066715    ( 0.0000,  0.0000,  0.0000)
  32 Zn     2.828427    4.898979   10.000000    ( 0.0000,  0.0000,  0.0000)
  33 Zn     4.242641    5.715476   12.309401    ( 0.0000,  0.0000,  0.0000)
  34 Zn     2.832989    6.534606   14.668612    ( 0.0000,  0.0000,  0.0000)
  35 Zn     4.383635    7.429873   17.074000    ( 0.0000,  0.0000,  0.0000)
  36 C      2.826055    6.530603   17.968971    ( 0.0000,  0.0000,  0.0000)

Unit cell:
           periodic     x           y           z      points  spacing
  1. axis:    yes    8.485281    0.000000    0.000000    40     0.1837
  2. axis:    yes   -4.242641    7.348469    0.000000    40     0.1837
  3. axis:    no     0.000000    0.000000   26.928203   148     0.1819

  Lengths:   8.485281   8.485281  26.928203
  Angles:   90.000000  90.000000 120.000000

Effective grid spacing dv^(1/3) = 0.1921

     iter     time        total  log10-change:
                         energy  eigst   dens
iter:   1 07:15:21 -2791.493595  -1.93
iter:   2 07:15:48 -2791.468982  -2.49  -2.73
iter:   3 07:16:14 -2791.450639c -2.88  -2.95
iter:   4 07:16:40 -2791.449094c -3.37  -3.19
iter:   5 07:17:07 -2791.447901c -3.62  -3.46
iter:   6 07:17:33 -2791.447583c -3.79  -3.61
iter:   7 07:18:00 -2791.447569c -4.13  -3.78
iter:   8 07:18:26 -2791.447613c -4.40  -3.90
iter:   9 07:18:53 -2791.447636c -4.79  -3.93
iter:  10 07:19:19 -2791.447625c -5.02  -4.11c
iter:  11 07:19:45 -2791.447604c -5.17  -4.24c
iter:  12 07:20:12 -2791.447615c -5.40  -4.32c
iter:  13 07:20:38 -2791.447631c -5.84  -4.38c
iter:  14 07:21:05 -2791.447643c -5.99  -4.46c
iter:  15 07:21:31 -2791.447647c -6.21  -4.66c
iter:  16 07:21:58 -2791.447649c -6.49  -4.77c
iter:  17 07:22:24 -2791.447643c -6.98  -4.83c
iter:  18 07:22:51 -2791.447639c -7.13  -4.93c
iter:  19 07:23:17 -2791.447640c -7.45c -5.10c

Converged after 19 iterations.

Dipole moment: (-6.840627, -7.775009, -0.251139) |e|*Ang

Energy contributions relative to reference atoms: (reference = -1760035.387621)

Kinetic:       +627.567256
Potential:     -523.338010
External:        +0.000000
XC:            -2893.762855
Entropy (-ST):   -0.434041
Local:           -1.697010
--------------------------
Free energy:   -2791.664660
Extrapolated:  -2791.447640

Showing only first 2 kpts
 Kpt  Band  Eigenvalues  Occupancy
  0   216     -4.83260    1.65459
  0   217     -4.77064    1.44105
  0   218     -4.61469    0.70300
  0   219     -4.43729    0.16842

  1   216     -4.54695    0.43174
  1   217     -4.39114    0.10957
  1   218     -4.08935    0.00565
  1   219     -3.86213    0.00058


Fermi level: -4.67594

No gap

Forces in eV/Ang:
  0 Zn   -0.01305   -0.00754   -0.15107
  1 Zn    0.01281    0.00739    0.11994
  2 Zn   -0.01497    0.01428    0.00079
  3 Zn   -0.01976    0.02137   -0.00553
  4 Zn   -0.00663    0.03180   -0.20779
  5 Zn    0.02025   -0.01179    0.17163
  6 Zn    0.00149    0.00086   -0.09607
  7 Zn   -0.04805   -0.02774   -0.05109
  8 Zn    0.02422   -0.02164   -0.20779
  9 Zn   -0.00008    0.02343    0.17163
 10 Zn    0.00488   -0.02010    0.00079
 11 Zn    0.00863   -0.02780   -0.00553
 12 Zn   -0.01163    0.00419   -0.15947
 13 Zn   -0.03090    0.01981    0.11965
 14 Zn    0.02251    0.01299   -0.08188
 15 Zn    0.03349    0.01934   -0.02478
 16 Zn   -0.00218   -0.01217   -0.15947
 17 Zn    0.00171   -0.03667    0.11965
 18 Zn   -0.01966    0.00241   -0.00232
 19 Zn   -0.00614   -0.06591    0.34458
 20 Zn   -0.03929   -0.02269   -0.19714
 21 Zn   -0.00182   -0.00105    0.18326
 22 Zn   -0.00775   -0.01823   -0.00232
 23 Zn   -0.06015    0.02764    0.34458
 24 Zn    0.02253    0.00315   -0.14300
 25 Zn    0.01909   -0.00559    0.17497
 26 Zn   -0.00533    0.02483    0.00762
 27 Zn   -0.00889    0.05221   -0.02299
 28 Zn    0.00567    0.00328   -0.17056
 29 Zn   -0.01992   -0.01150    0.15744
 30 Zn    0.01884   -0.01703    0.00762
 31 Zn    0.04077   -0.03380   -0.02299
 32 Zn    0.01400    0.01794   -0.14300
 33 Zn    0.00470    0.01932    0.17497
 34 Zn    0.00006    0.00004    0.22840
 35 Zn    0.02046    0.01181    0.33183
 36 C     0.02289    0.01321   -0.77679

BFGS:    4 07:23:30    -2791.447640        0.7772
System changes: positions 

Initializing position-dependent things.

Density initialized from wave functions
                                             
                                             
                                             
                                             
                         C                   
               Zn     Zn     Zn              
                 Zn            Zn            
                        Zn                   
           Zn     ZZn    ZZn     Zn          
                                             
             Zn     Zn     Zn                
               Zn     Zn     Zn              
              Zn     Zn     Zn               
                Zn     Zn     Zn             
                                             
          Zn     ZZn    ZZn     Zn           
                                             
            Zn     Zn     Zn                 
              Zn     Zn     Zn               
                                             
                                             
                                             
                                             

Positions:
   0 Zn     0.000000    0.000000   10.000000    ( 0.0000,  0.0000,  0.0000)
   1 Zn     1.414214    0.816497   12.309401    ( 0.0000,  0.0000,  0.0000)
   2 Zn    -0.000738    1.631362   14.656484    ( 0.0000,  0.0000,  0.0000)
   3 Zn     1.410147    2.450511   17.068597    ( 0.0000,  0.0000,  0.0000)
   4 Zn    -1.414214    2.449490   10.000000    ( 0.0000,  0.0000,  0.0000)
   5 Zn     0.000000    3.265986   12.309401    ( 0.0000,  0.0000,  0.0000)
   6 Zn    -1.415813    4.081559   14.633663    ( 0.0000,  0.0000,  0.0000)
   7 Zn    -0.021673    4.886467   17.071834    ( 0.0000,  0.0000,  0.0000)
   8 Zn    -2.828427    4.898979   10.000000    ( 0.0000,  0.0000,  0.0000)
   9 Zn    -1.414214    5.715476   12.309401    ( 0.0000,  0.0000,  0.0000)
  10 Zn    -2.830208    6.532149   14.656484    ( 0.0000,  0.0000,  0.0000)
  11 Zn    -1.415362    7.344437   17.068597    ( 0.0000,  0.0000,  0.0000)
  12 Zn     2.828427    0.000000   10.000000    ( 0.0000,  0.0000,  0.0000)
  13 Zn     4.242641    0.816497   12.309401    ( 0.0000,  0.0000,  0.0000)
  14 Zn     2.831280    1.634640   14.630822    ( 0.0000,  0.0000,  0.0000)
  15 Zn     4.248645    2.452956   17.074530    ( 0.0000,  0.0000,  0.0000)
  16 Zn     1.414214    2.449490   10.000000    ( 0.0000,  0.0000,  0.0000)
  17 Zn     2.828427    3.265986   12.309401    ( 0.0000,  0.0000,  0.0000)
  18 Zn     1.413021    4.079305   14.656982    ( 0.0000,  0.0000,  0.0000)
  19 Zn     2.830187    4.703752   17.072441    ( 0.0000,  0.0000,  0.0000)
  20 Zn     0.000000    4.898979   10.000000    ( 0.0000,  0.0000,  0.0000)
  21 Zn     1.414214    5.715476   12.309401    ( 0.0000,  0.0000,  0.0000)
  22 Zn    -0.003348    6.532529   14.656982    ( 0.0000,  0.0000,  0.0000)
  23 Zn     1.246021    7.447607   17.072441    ( 0.0000,  0.0000,  0.0000)
  24 Zn     5.656854    0.000000   10.000000    ( 0.0000,  0.0000,  0.0000)
  25 Zn     7.071068    0.816497   12.309401    ( 0.0000,  0.0000,  0.0000)
  26 Zn     5.655241    1.637185   14.653276    ( 0.0000,  0.0000,  0.0000)
  27 Zn     7.069377    2.471053   17.064517    ( 0.0000,  0.0000,  0.0000)
  28 Zn     4.242641    2.449490   10.000000    ( 0.0000,  0.0000,  0.0000)
  29 Zn     5.656854    3.265986   12.309401    ( 0.0000,  0.0000,  0.0000)
  30 Zn     4.245464    4.078990   14.653276    ( 0.0000,  0.0000,  0.0000)
  31 Zn     5.674683    4.886734   17.064517    ( 0.0000,  0.0000,  0.0000)
  32 Zn     2.828427    4.898979   10.000000    ( 0.0000,  0.0000,  0.0000)
  33 Zn     4.242641    5.715476   12.309401    ( 0.0000,  0.0000,  0.0000)
  34 Zn     2.833204    6.534730   14.683671    ( 0.0000,  0.0000,  0.0000)
  35 Zn     4.414040    7.447427   17.088227    ( 0.0000,  0.0000,  0.0000)
  36 C      2.827025    6.531163   17.944233    ( 0.0000,  0.0000,  0.0000)

Unit cell:
           periodic     x           y           z      points  spacing
  1. axis:    yes    8.485281    0.000000    0.000000    40     0.1837
  2. axis:    yes   -4.242641    7.348469    0.000000    40     0.1837
  3. axis:    no     0.000000    0.000000   26.928203   148     0.1819

  Lengths:   8.485281   8.485281  26.928203
  Angles:   90.000000  90.000000 120.000000

Effective grid spacing dv^(1/3) = 0.1921

     iter     time        total  log10-change:
                         energy  eigst   dens
iter:   1 07:24:29 -2791.581997  -1.56
iter:   2 07:24:56 -2791.521439  -2.11  -2.48
iter:   3 07:25:22 -2791.509259c -2.49  -2.76
iter:   4 07:25:49 -2791.485236c -2.78  -2.87
iter:   5 07:26:15 -2791.486058c -3.22  -3.35
iter:   6 07:26:42 -2791.485178c -3.48  -3.42
iter:   7 07:27:09 -2791.485155c -3.72  -3.63
iter:   8 07:27:35 -2791.485276c -4.03  -3.77
iter:   9 07:28:02 -2791.485398c -4.47  -3.81
iter:  10 07:28:28 -2791.485352c -4.70  -3.93
iter:  11 07:28:55 -2791.485414c -5.05  -4.06c
iter:  12 07:29:22 -2791.485435c -5.33  -4.19c
iter:  13 07:29:48 -2791.485437c -5.65  -4.33c
iter:  14 07:30:15 -2791.485418c -5.90  -4.45c
iter:  15 07:30:41 -2791.485423c -6.20  -4.61c
iter:  16 07:31:08 -2791.485421c -6.36  -4.65c
iter:  17 07:31:34 -2791.485423c -6.61  -4.83c
iter:  18 07:32:01 -2791.485422c -6.98  -4.97c
iter:  19 07:32:28 -2791.485421c -7.30  -5.05c
iter:  20 07:32:54 -2791.485420c -7.50c -5.15c

Converged after 20 iterations.

Dipole moment: (-7.177834, -8.554706, -0.240233) |e|*Ang

Energy contributions relative to reference atoms: (reference = -1760035.387621)

Kinetic:       +626.881075
Potential:     -522.806565
External:        +0.000000
XC:            -2893.648444
Entropy (-ST):   -0.433780
Local:           -1.694596
--------------------------
Free energy:   -2791.702310
Extrapolated:  -2791.485420

Showing only first 2 kpts
 Kpt  Band  Eigenvalues  Occupancy
  0   216     -4.82585    1.66572
  0   217     -4.75607    1.42529
  0   218     -4.59981    0.68401
  0   219     -4.43116    0.17559

  1   216     -4.53906    0.44129
  1   217     -4.37847    0.10754
  1   218     -4.07027    0.00520
  1   219     -3.85583    0.00061


Fermi level: -4.66525

No gap

Forces in eV/Ang:
  0 Zn   -0.01628   -0.00940   -0.15200
  1 Zn    0.00776    0.00448    0.12144
  2 Zn   -0.01918    0.00491   -0.00159
  3 Zn   -0.02349    0.01590   -0.00085
  4 Zn   -0.00732    0.02900   -0.20575
  5 Zn    0.02053   -0.01238    0.16706
  6 Zn    0.00007    0.00004   -0.09392
  7 Zn   -0.01201   -0.00694   -0.04346
  8 Zn    0.02145   -0.02084   -0.20575
  9 Zn   -0.00046    0.02397    0.16706
 10 Zn   -0.00534   -0.01907   -0.00159
 11 Zn    0.00203   -0.02829   -0.00085
 12 Zn   -0.01116    0.00601   -0.16081
 13 Zn   -0.02446    0.01589    0.11870
 14 Zn    0.01221    0.00705   -0.06786
 15 Zn    0.03070    0.01772   -0.01541
 16 Zn   -0.00037   -0.01267   -0.16081
 17 Zn    0.00153   -0.02913    0.11870
 18 Zn   -0.01278    0.01420   -0.00750
 19 Zn   -0.00039    0.17472    0.38029
 20 Zn   -0.03739   -0.02159   -0.19523
 21 Zn    0.00699    0.00403    0.19241
 22 Zn    0.00591   -0.01817   -0.00750
 23 Zn    0.15112   -0.08770    0.38029
 24 Zn    0.02499    0.00241   -0.14372
 25 Zn    0.01804   -0.01458    0.18339
 26 Zn    0.00841    0.00904    0.00065
 27 Zn   -0.00451    0.01737   -0.02154
 28 Zn    0.00472    0.00272   -0.17132
 29 Zn   -0.01966   -0.01135    0.15044
 30 Zn    0.01203    0.00277    0.00065
 31 Zn    0.01278   -0.01259   -0.02154
 32 Zn    0.01459    0.02044   -0.14372
 33 Zn   -0.00361    0.02292    0.18339
 34 Zn   -0.00563   -0.00325    0.26001
 35 Zn   -0.15773   -0.09107    0.36893
 36 C     0.00479    0.00276   -0.95228

BFGS:    5 07:33:07    -2791.485420        0.9523
System changes: positions 

Initializing position-dependent things.

Density initialized from wave functions
                                             
                                             
                                             
                                             
                         C                   
               Zn     Zn      Zn             
                 Zn     Zn     Zn            
                                             
           Zn     ZZn    ZZn     Zn          
                                             
             Zn     Zn     Zn                
               Zn     Zn     Zn              
              Zn     Zn     Zn               
                Zn     Zn     Zn             
                                             
          Zn     ZZn    ZZn     Zn           
                                             
            Zn     Zn     Zn                 
              Zn     Zn     Zn               
                                             
                                             
                                             
                                             

Positions:
   0 Zn     0.000000    0.000000   10.000000    ( 0.0000,  0.0000,  0.0000)
   1 Zn     1.414214    0.816497   12.309401    ( 0.0000,  0.0000,  0.0000)
   2 Zn    -0.002601    1.633742   14.657652    ( 0.0000,  0.0000,  0.0000)
   3 Zn     1.407132    2.453904   17.067174    ( 0.0000,  0.0000,  0.0000)
   4 Zn    -1.414214    2.449490   10.000000    ( 0.0000,  0.0000,  0.0000)
   5 Zn     0.000000    3.265986   12.309401    ( 0.0000,  0.0000,  0.0000)
   6 Zn    -1.415664    4.081645   14.616831    ( 0.0000,  0.0000,  0.0000)
   7 Zn    -0.033409    4.879691   17.062351    ( 0.0000,  0.0000,  0.0000)
   8 Zn    -2.828427    4.898979   10.000000    ( 0.0000,  0.0000,  0.0000)
   9 Zn    -1.414214    5.715476   12.309401    ( 0.0000,  0.0000,  0.0000)
  10 Zn    -2.829080    6.529346   14.657652    ( 0.0000,  0.0000,  0.0000)
  11 Zn    -1.413932    7.340130   17.067174    ( 0.0000,  0.0000,  0.0000)
  12 Zn     2.828427    0.000000   10.000000    ( 0.0000,  0.0000,  0.0000)
  13 Zn     4.242641    0.816497   12.309401    ( 0.0000,  0.0000,  0.0000)
  14 Zn     2.835585    1.637126   14.616752    ( 0.0000,  0.0000,  0.0000)
  15 Zn     4.254139    2.456128   17.069565    ( 0.0000,  0.0000,  0.0000)
  16 Zn     1.414214    2.449490   10.000000    ( 0.0000,  0.0000,  0.0000)
  17 Zn     2.828427    3.265986   12.309401    ( 0.0000,  0.0000,  0.0000)
  18 Zn     1.410033    4.078913   14.657779    ( 0.0000,  0.0000,  0.0000)
  19 Zn     2.829450    4.639781   17.112162    ( 0.0000,  0.0000,  0.0000)
  20 Zn     0.000000    4.898979   10.000000    ( 0.0000,  0.0000,  0.0000)
  21 Zn     1.414214    5.715476   12.309401    ( 0.0000,  0.0000,  0.0000)
  22 Zn    -0.005182    6.530137   14.657779    ( 0.0000,  0.0000,  0.0000)
  23 Zn     1.190253    7.478954   17.112162    ( 0.0000,  0.0000,  0.0000)
  24 Zn     5.656854    0.000000   10.000000    ( 0.0000,  0.0000,  0.0000)
  25 Zn     7.071068    0.816497   12.309401    ( 0.0000,  0.0000,  0.0000)
  26 Zn     5.653184    1.641706   14.655874    ( 0.0000,  0.0000,  0.0000)
  27 Zn     7.067457    2.484045   17.059876    ( 0.0000,  0.0000,  0.0000)
  28 Zn     4.242641    2.449490   10.000000    ( 0.0000,  0.0000,  0.0000)
  29 Zn     5.656854    3.265986   12.309401    ( 0.0000,  0.0000,  0.0000)
  30 Zn     4.248351    4.074948   14.655874    ( 0.0000,  0.0000,  0.0000)
  31 Zn     5.684975    4.878575   17.059876    ( 0.0000,  0.0000,  0.0000)
  32 Zn     2.828427    4.898979   10.000000    ( 0.0000,  0.0000,  0.0000)
  33 Zn     4.242641    5.715476   12.309401    ( 0.0000,  0.0000,  0.0000)
  34 Zn     2.833447    6.534871   14.718566    ( 0.0000,  0.0000,  0.0000)
  35 Zn     4.465427    7.477095   17.124594    ( 0.0000,  0.0000,  0.0000)
  36 C      2.829091    6.532356   17.872106    ( 0.0000,  0.0000,  0.0000)

Unit cell:
           periodic     x           y           z      points  spacing
  1. axis:    yes    8.485281    0.000000    0.000000    40     0.1837
  2. axis:    yes   -4.242641    7.348469    0.000000    40     0.1837
  3. axis:    no     0.000000    0.000000   26.928203   148     0.1819

  Lengths:   8.485281   8.485281  26.928203
  Angles:   90.000000  90.000000 120.000000

Effective grid spacing dv^(1/3) = 0.1921

     iter     time        total  log10-change:
                         energy  eigst   dens
iter:   1 07:34:06 -2791.923259  -1.00
iter:   2 07:34:33 -2791.668958  -1.52  -2.19
iter:   3 07:34:59 -2791.617573  -1.90  -2.47
iter:   4 07:35:26 -2791.557690c -2.24  -2.62
iter:   5 07:35:52 -2791.559738c -2.64  -3.06
iter:   6 07:36:19 -2791.559118c -2.94  -3.15
iter:   7 07:36:45 -2791.559233c -3.16  -3.35
iter:   8 07:37:12 -2791.559402c -3.54  -3.46
iter:   9 07:37:38 -2791.559857c -3.93  -3.65
iter:  10 07:38:05 -2791.559876c -4.28  -3.73
iter:  11 07:38:31 -2791.559925c -4.63  -3.88
iter:  12 07:38:58 -2791.559925c -4.93  -3.96
iter:  13 07:39:24 -2791.559944c -5.26  -4.14c
iter:  14 07:39:51 -2791.559891c -5.43  -4.20c
iter:  15 07:40:17 -2791.559913c -5.61  -4.41c
iter:  16 07:40:44 -2791.559938c -5.94  -4.40c
iter:  17 07:41:10 -2791.559920c -6.03  -4.60c
iter:  18 07:41:36 -2791.559921c -6.40  -4.83c
iter:  19 07:42:03 -2791.559922c -6.52  -4.83c
iter:  20 07:42:29 -2791.559923c -6.80  -4.84c
iter:  21 07:42:56 -2791.559924c -6.84  -4.83c
iter:  22 07:43:22 -2791.559923c -7.28  -4.77c
iter:  23 07:43:49 -2791.559924c -7.44c -4.78c

Converged after 23 iterations.

Dipole moment: (-7.543223, -9.746660, -0.210108) |e|*Ang

Energy contributions relative to reference atoms: (reference = -1760035.387621)

Kinetic:       +626.204696
Potential:     -522.278740
External:        +0.000000
XC:            -2893.580412
Entropy (-ST):   -0.431816
Local:           -1.689561
--------------------------
Free energy:   -2791.775832
Extrapolated:  -2791.559924

Showing only first 2 kpts
 Kpt  Band  Eigenvalues  Occupancy
  0   216     -4.80725    1.69362
  0   217     -4.72425    1.41354
  0   218     -4.56065    0.63895
  0   219     -4.41126    0.19067

  1   216     -4.51789    0.46874
  1   217     -4.34650    0.10453
  1   218     -4.03796    0.00503
  1   219     -3.83159    0.00064


Fermi level: -4.63627

No gap

Forces in eV/Ang:
  0 Zn   -0.01809   -0.01044   -0.15580
  1 Zn   -0.00052   -0.00030    0.12564
  2 Zn   -0.02312   -0.01632   -0.00005
  3 Zn   -0.03552    0.00305    0.00570
  4 Zn   -0.00946    0.02629   -0.20346
  5 Zn    0.02392   -0.01509    0.15252
  6 Zn   -0.00635   -0.00367   -0.07565
  7 Zn    0.04977    0.02874   -0.02349
  8 Zn    0.01804   -0.02133   -0.20346
  9 Zn   -0.00111    0.02826    0.15252
 10 Zn   -0.02569   -0.01186   -0.00005
 11 Zn   -0.01512   -0.03228    0.00570
 12 Zn   -0.00969    0.01064   -0.16328
 13 Zn   -0.01295    0.00981    0.11705
 14 Zn   -0.00972   -0.00561   -0.03374
 15 Zn    0.02603    0.01503    0.00081
 16 Zn    0.00437   -0.01371   -0.16328
 17 Zn    0.00202   -0.01612    0.11705
 18 Zn    0.00592    0.03473   -0.01009
 19 Zn   -0.00650    0.49656    0.39509
 20 Zn   -0.03571   -0.02062   -0.19303
 21 Zn    0.02455    0.01418    0.21387
 22 Zn    0.03304   -0.01224   -0.01009
 23 Zn    0.42678   -0.25391    0.39509
 24 Zn    0.02466    0.00405   -0.14727
 25 Zn    0.01560   -0.03239    0.20426
 26 Zn    0.03085   -0.02610   -0.00572
 27 Zn    0.00449   -0.03744   -0.01857
 28 Zn    0.00235    0.00135   -0.17254
 29 Zn   -0.02295   -0.01325    0.13075
 30 Zn   -0.00718    0.03977   -0.00572
 31 Zn   -0.03018    0.02260   -0.01857
 32 Zn    0.01583    0.01934   -0.14727
 33 Zn   -0.02025    0.02970    0.20426
 34 Zn   -0.02095   -0.01210    0.31042
 35 Zn   -0.38849   -0.22429    0.38392
 36 C    -0.01453   -0.00839   -1.14641

BFGS:    6 07:44:02    -2791.559924        1.1465
System changes: positions 

Initializing position-dependent things.

Density initialized from wave functions
                                             
                                             
                                             
                                             
                     Zn  C    Zn             
               Zn                            
                 Zn     Zn     Zn            
                   Zn     Zn     Zn          
           Zn     Zn     Zn                  
             Zn     Zn     Zn                
                                             
              ZZn    ZZn    ZZn              
                                             
                Zn     Zn     Zn             
          Zn     ZZn    ZZn     Zn           
                                             
            Zn     Zn     Zn                 
              Zn     Zn     Zn               
                                             
                                             
                                             
                                             

Positions:
   0 Zn     0.000000    0.000000   10.000000    ( 0.0000,  0.0000,  0.0000)
   1 Zn     1.414214    0.816497   12.309401    ( 0.0000,  0.0000,  0.0000)
   2 Zn    -0.006185    1.637286   14.659481    ( 0.0000,  0.0000,  0.0000)
   3 Zn     1.401352    2.459536   17.065016    ( 0.0000,  0.0000,  0.0000)
   4 Zn    -1.414214    2.449490   10.000000    ( 0.0000,  0.0000,  0.0000)
   5 Zn     0.000000    3.265986   12.309401    ( 0.0000,  0.0000,  0.0000)
   6 Zn    -1.415585    4.081691   14.587768    ( 0.0000,  0.0000,  0.0000)
   7 Zn    -0.051184    4.869428   17.046478    ( 0.0000,  0.0000,  0.0000)
   8 Zn    -2.828427    4.898979   10.000000    ( 0.0000,  0.0000,  0.0000)
   9 Zn    -1.414214    5.715476   12.309401    ( 0.0000,  0.0000,  0.0000)
  10 Zn    -2.827802    6.524470   14.659481    ( 0.0000,  0.0000,  0.0000)
  11 Zn    -1.411944    7.332308   17.065016    ( 0.0000,  0.0000,  0.0000)
  12 Zn     2.828427    0.000000   10.000000    ( 0.0000,  0.0000,  0.0000)
  13 Zn     4.242641    0.816497   12.309401    ( 0.0000,  0.0000,  0.0000)
  14 Zn     2.842359    1.641037   14.593037    ( 0.0000,  0.0000,  0.0000)
  15 Zn     4.263725    2.461663   17.061538    ( 0.0000,  0.0000,  0.0000)
  16 Zn     1.414214    2.449490   10.000000    ( 0.0000,  0.0000,  0.0000)
  17 Zn     2.828427    3.265986   12.309401    ( 0.0000,  0.0000,  0.0000)
  18 Zn     1.405255    4.079066   14.658778    ( 0.0000,  0.0000,  0.0000)
  19 Zn     2.827787    4.552178   17.188222    ( 0.0000,  0.0000,  0.0000)
  20 Zn     0.000000    4.898979   10.000000    ( 0.0000,  0.0000,  0.0000)
  21 Zn     1.414214    5.715476   12.309401    ( 0.0000,  0.0000,  0.0000)
  22 Zn    -0.007439    6.525923   14.658778    ( 0.0000,  0.0000,  0.0000)
  23 Zn     1.113555    7.521316   17.188222    ( 0.0000,  0.0000,  0.0000)
  24 Zn     5.656854    0.000000   10.000000    ( 0.0000,  0.0000,  0.0000)
  25 Zn     7.071068    0.816497   12.309401    ( 0.0000,  0.0000,  0.0000)
  26 Zn     5.650561    1.648505   14.659903    ( 0.0000,  0.0000,  0.0000)
  27 Zn     7.064457    2.504114   17.051984    ( 0.0000,  0.0000,  0.0000)
  28 Zn     4.242641    2.449490   10.000000    ( 0.0000,  0.0000,  0.0000)
  29 Zn     5.656854    3.265986   12.309401    ( 0.0000,  0.0000,  0.0000)
  30 Zn     4.252928    4.069276   14.659903    ( 0.0000,  0.0000,  0.0000)
  31 Zn     5.700855    4.865942   17.051984    ( 0.0000,  0.0000,  0.0000)
  32 Zn     2.828427    4.898979   10.000000    ( 0.0000,  0.0000,  0.0000)
  33 Zn     4.242641    5.715476   12.309401    ( 0.0000,  0.0000,  0.0000)
  34 Zn     2.833334    6.534806   14.782823    ( 0.0000,  0.0000,  0.0000)
  35 Zn     4.535116    7.517330   17.194738    ( 0.0000,  0.0000,  0.0000)
  36 C      2.832807    6.534501   17.721678    ( 0.0000,  0.0000,  0.0000)

Unit cell:
           periodic     x           y           z      points  spacing
  1. axis:    yes    8.485281    0.000000    0.000000    40     0.1837
  2. axis:    yes   -4.242641    7.348469    0.000000    40     0.1837
  3. axis:    no     0.000000    0.000000   26.928203   148     0.1819

  Lengths:   8.485281   8.485281  26.928203
  Angles:   90.000000  90.000000 120.000000

Effective grid spacing dv^(1/3) = 0.1921

     iter     time        total  log10-change:
                         energy  eigst   dens
iter:   1 07:45:01 -2792.217385  -0.62
iter:   2 07:45:27 -2791.821862  -1.13  -2.08
iter:   3 07:45:53 -2791.752096  -1.49  -2.34
iter:   4 07:46:20 -2791.653107c -1.88  -2.48
iter:   5 07:46:46 -2791.658269c -2.27  -2.86
iter:   6 07:47:13 -2791.656687c -2.59  -2.93
iter:   7 07:47:39 -2791.657719c -2.82  -3.14
iter:   8 07:48:05 -2791.657730c -3.18  -3.25
iter:   9 07:48:32 -2791.658568c -3.49  -3.50
iter:  10 07:48:58 -2791.658746c -3.80  -3.65
iter:  11 07:49:25 -2791.658771c -4.25  -3.69
iter:  12 07:49:51 -2791.658970c -4.48  -3.79
iter:  13 07:50:18 -2791.658987c -4.98  -3.88
iter:  14 07:50:44 -2791.658973c -5.28  -3.94
iter:  15 07:51:11 -2791.658854c -5.13  -4.01c
iter:  16 07:51:37 -2791.658859c -5.39  -4.32c
iter:  17 07:52:04 -2791.658864c -5.85  -4.38c
iter:  18 07:52:30 -2791.658875c -6.11  -4.42c
iter:  19 07:52:56 -2791.658888c -6.23  -4.63c
iter:  20 07:53:23 -2791.658880c -6.73  -4.80c
iter:  21 07:53:49 -2791.658882c -6.98  -4.79c
iter:  22 07:54:16 -2791.658884c -7.19  -4.79c
iter:  23 07:54:42 -2791.658885c -7.37  -4.89c
iter:  24 07:55:09 -2791.658884c -7.47c -4.99c

Converged after 24 iterations.

Dipole moment: (-7.677999, -11.063213, -0.153513) |e|*Ang

Energy contributions relative to reference atoms: (reference = -1760035.387621)

Kinetic:       +626.045336
Potential:     -522.177677
External:        +0.000000
XC:            -2893.627939
Entropy (-ST):   -0.425941
Local:           -1.685632
--------------------------
Free energy:   -2791.871855
Extrapolated:  -2791.658884

Showing only first 2 kpts
 Kpt  Band  Eigenvalues  Occupancy
  0   216     -4.77233    1.74174
  0   217     -4.67020    1.41671
  0   218     -4.48800    0.56402
  0   219     -4.37346    0.22213

  1   216     -4.47164    0.50017
  1   217     -4.27875    0.09243
  1   218     -4.00810    0.00645
  1   219     -3.77836    0.00065


Fermi level: -4.58146

No gap

Forces in eV/Ang:
  0 Zn   -0.02110   -0.01218   -0.15942
  1 Zn   -0.01994   -0.01151    0.13046
  2 Zn   -0.02377   -0.04663    0.00629
  3 Zn   -0.06259   -0.02487    0.00540
  4 Zn   -0.01040    0.01483   -0.19335
  5 Zn    0.02677   -0.01819    0.12954
  6 Zn   -0.01849   -0.01067   -0.04226
  7 Zn    0.12657    0.07308    0.00249
  8 Zn    0.00764   -0.01643   -0.19335
  9 Zn   -0.00237    0.03227    0.12954
 10 Zn   -0.05226    0.00273    0.00629
 11 Zn   -0.05283   -0.04177    0.00540
 12 Zn   -0.00878    0.01363   -0.16556
 13 Zn    0.01150   -0.00620    0.11366
 14 Zn   -0.05162   -0.02980    0.04421
 15 Zn    0.02100    0.01213    0.02000
 16 Zn    0.00741   -0.01442   -0.16556
 17 Zn    0.00038    0.01306    0.11366
 18 Zn    0.03709    0.05891   -0.00955
 19 Zn    0.00529    0.94130    0.31672
 20 Zn   -0.02705   -0.01562   -0.18332
 21 Zn    0.04804    0.02773    0.23920
 22 Zn    0.06956    0.00267   -0.00955
 23 Zn    0.81783   -0.46607    0.31672
 24 Zn    0.02557    0.00480   -0.14999
 25 Zn    0.01182   -0.05593    0.23149
 26 Zn    0.05986   -0.07842   -0.00860
 27 Zn    0.01549   -0.13243   -0.00972
 28 Zn    0.00059    0.00034   -0.17268
 29 Zn   -0.02335   -0.01348    0.10092
 30 Zn   -0.03799    0.09105   -0.00860
 31 Zn   -0.10695    0.07963   -0.00972
 32 Zn    0.01694    0.01975   -0.14999
 33 Zn   -0.04253    0.03820    0.23149
 34 Zn   -0.01427   -0.00824    0.41048
 35 Zn   -0.67832   -0.39163    0.28305
 36 C    -0.06463   -0.03732   -1.16206

BFGS:    7 07:55:21    -2791.658884        1.1645
System changes: positions 

Initializing position-dependent things.

Density initialized from wave functions
                                             
                                             
                                             
                                             
               Zn    Zn  C    Zn             
                                             
                 Zn     Zn     Zn            
                   Zn     Zn     Zn          
           Zn     Zn     Zn                  
             Zn     Zn     Zn                
                                             
              ZZn    ZZn    ZZn              
                                             
                Zn     Zn     Zn             
          Zn     ZZn    ZZn     Zn           
                                             
            Zn     Zn     Zn                 
              Zn     Zn     Zn               
                                             
                                             
                                             
                                             

Positions:
   0 Zn     0.000000    0.000000   10.000000    ( 0.0000,  0.0000,  0.0000)
   1 Zn     1.414214    0.816497   12.309401    ( 0.0000,  0.0000,  0.0000)
   2 Zn    -0.008514    1.638471   14.660266    ( 0.0000,  0.0000,  0.0000)
   3 Zn     1.397340    2.462110   17.064083    ( 0.0000,  0.0000,  0.0000)
   4 Zn    -1.414214    2.449490   10.000000    ( 0.0000,  0.0000,  0.0000)
   5 Zn     0.000000    3.265986   12.309401    ( 0.0000,  0.0000,  0.0000)
   6 Zn    -1.415813    4.081560   14.572267    ( 0.0000,  0.0000,  0.0000)
   7 Zn    -0.057660    4.865689   17.038554    ( 0.0000,  0.0000,  0.0000)
   8 Zn    -2.828427    4.898979   10.000000    ( 0.0000,  0.0000,  0.0000)
   9 Zn    -1.414214    5.715476   12.309401    ( 0.0000,  0.0000,  0.0000)
  10 Zn    -2.827940    6.521861   14.660266    ( 0.0000,  0.0000,  0.0000)
  11 Zn    -1.411721    7.327546   17.064083    ( 0.0000,  0.0000,  0.0000)
  12 Zn     2.828427    0.000000   10.000000    ( 0.0000,  0.0000,  0.0000)
  13 Zn     4.242641    0.816497   12.309401    ( 0.0000,  0.0000,  0.0000)
  14 Zn     2.844960    1.642538   14.581552    ( 0.0000,  0.0000,  0.0000)
  15 Zn     4.269032    2.464727   17.057873    ( 0.0000,  0.0000,  0.0000)
  16 Zn     1.414214    2.449490   10.000000    ( 0.0000,  0.0000,  0.0000)
  17 Zn     2.828427    3.265986   12.309401    ( 0.0000,  0.0000,  0.0000)
  18 Zn     1.403242    4.080140   14.658872    ( 0.0000,  0.0000,  0.0000)
  19 Zn     2.826801    4.535302   17.237284    ( 0.0000,  0.0000,  0.0000)
  20 Zn     0.000000    4.898979   10.000000    ( 0.0000,  0.0000,  0.0000)
  21 Zn     1.414214    5.715476   12.309401    ( 0.0000,  0.0000,  0.0000)
  22 Zn    -0.007514    6.523643   14.658872    ( 0.0000,  0.0000,  0.0000)
  23 Zn     1.098446    7.528899   17.237284    ( 0.0000,  0.0000,  0.0000)
  24 Zn     5.656854    0.000000   10.000000    ( 0.0000,  0.0000,  0.0000)
  25 Zn     7.071068    0.816497   12.309401    ( 0.0000,  0.0000,  0.0000)
  26 Zn     5.650319    1.650828   14.661554    ( 0.0000,  0.0000,  0.0000)
  27 Zn     7.063223    2.511463   17.047991    ( 0.0000,  0.0000,  0.0000)
  28 Zn     4.242641    2.449490   10.000000    ( 0.0000,  0.0000,  0.0000)
  29 Zn     5.656854    3.265986   12.309401    ( 0.0000,  0.0000,  0.0000)
  30 Zn     4.254818    4.067906   14.661554    ( 0.0000,  0.0000,  0.0000)
  31 Zn     5.706602    4.861199   17.047991    ( 0.0000,  0.0000,  0.0000)
  32 Zn     2.828427    4.898979   10.000000    ( 0.0000,  0.0000,  0.0000)
  33 Zn     4.242641    5.715476   12.309401    ( 0.0000,  0.0000,  0.0000)
  34 Zn     2.833101    6.534671   14.823060    ( 0.0000,  0.0000,  0.0000)
  35 Zn     4.547855    7.524685   17.240095    ( 0.0000,  0.0000,  0.0000)
  36 C      2.834572    6.535520   17.611114    ( 0.0000,  0.0000,  0.0000)

Unit cell:
           periodic     x           y           z      points  spacing
  1. axis:    yes    8.485281    0.000000    0.000000    40     0.1837
  2. axis:    yes   -4.242641    7.348469    0.000000    40     0.1837
  3. axis:    no     0.000000    0.000000   26.928203   148     0.1819

  Lengths:   8.485281   8.485281  26.928203
  Angles:   90.000000  90.000000 120.000000

Effective grid spacing dv^(1/3) = 0.1921

     iter     time        total  log10-change:
                         energy  eigst   dens
iter:   1 07:56:20 -2791.899507  -1.13
iter:   2 07:56:47 -2791.809675  -1.68  -2.42
iter:   3 07:57:13 -2791.794918c -2.07  -2.67
iter:   4 07:57:40 -2791.791683c -2.45  -2.93
iter:   5 07:58:06 -2791.786434c -2.76  -3.04
iter:   6 07:58:33 -2791.787853c -3.03  -3.33
iter:   7 07:58:59 -2791.787611c -3.43  -3.39
iter:   8 07:59:26 -2791.788039c -3.70  -3.71
iter:   9 07:59:52 -2791.788167c -4.05  -3.81
iter:  10 08:00:18 -2791.788240c -4.46  -3.97
iter:  11 08:00:45 -2791.788279c -4.78  -4.08c
iter:  12 08:01:11 -2791.788287c -5.08  -4.19c
iter:  13 08:01:38 -2791.788286c -5.42  -4.30c
iter:  14 08:02:04 -2791.788291c -5.77  -4.44c
iter:  15 08:02:31 -2791.788293c -6.10  -4.49c
iter:  16 08:02:57 -2791.788298c -6.26  -4.60c
iter:  17 08:03:23 -2791.788299c -6.55  -4.81c
iter:  18 08:03:50 -2791.788301c -6.81  -4.81c
iter:  19 08:04:16 -2791.788305c -6.90  -4.88c
iter:  20 08:04:43 -2791.788304c -7.15  -5.02c
iter:  21 08:05:09 -2791.788304c -7.36  -5.10c
iter:  22 08:05:36 -2791.788304c -7.65c -5.18c

Converged after 22 iterations.

Dipole moment: (-7.774082, -11.222436, -0.116091) |e|*Ang

Energy contributions relative to reference atoms: (reference = -1760035.387621)

Kinetic:       +626.397616
Potential:     -522.493052
External:        +0.000000
XC:            -2893.794347
Entropy (-ST):   -0.419471
Local:           -1.688785
--------------------------
Free energy:   -2791.998040
Extrapolated:  -2791.788304

Showing only first 2 kpts
 Kpt  Band  Eigenvalues  Occupancy
  0   216     -4.75550    1.77933
  0   217     -4.63393    1.41017
  0   218     -4.44305    0.52340
  0   219     -4.34606    0.23693

  1   216     -4.43755    0.50243
  1   217     -4.22874    0.07983
  1   218     -4.00169    0.00855
  1   219     -3.73547    0.00060


Fermi level: -4.54676

No gap

Forces in eV/Ang:
  0 Zn   -0.02081   -0.01202   -0.16238
  1 Zn   -0.02943   -0.01699    0.13296
  2 Zn   -0.02028   -0.05860    0.01095
  3 Zn   -0.06017   -0.03740    0.00152
  4 Zn   -0.01022    0.01237   -0.19032
  5 Zn    0.03005   -0.02073    0.11586
  6 Zn   -0.02155   -0.01244   -0.02401
  7 Zn    0.14202    0.08200    0.01011
  8 Zn    0.00560   -0.01504   -0.19032
  9 Zn   -0.00292    0.03639    0.11586
 10 Zn   -0.06088    0.01174    0.01095
 11 Zn   -0.06247   -0.03340    0.00152
 12 Zn   -0.00868    0.01430   -0.16767
 13 Zn    0.02295   -0.01339    0.11272
 14 Zn   -0.06707   -0.03872    0.09075
 15 Zn    0.00684    0.00395    0.02579
 16 Zn    0.00804   -0.01467   -0.16767
 17 Zn   -0.00012    0.02657    0.11272
 18 Zn    0.05126    0.06320   -0.00548
 19 Zn    0.00580    0.88974    0.22384
 20 Zn   -0.02545   -0.01469   -0.18028
 21 Zn    0.06035    0.03484    0.25182
 22 Zn    0.08036    0.01279   -0.00548
 23 Zn    0.77343   -0.43985    0.22384
 24 Zn    0.02461    0.00561   -0.15285
 25 Zn    0.01045   -0.06906    0.24652
 26 Zn    0.06610   -0.09954   -0.00566
 27 Zn    0.01874   -0.16147   -0.00468
 28 Zn   -0.00022   -0.00013   -0.17270
 29 Zn   -0.02594   -0.01498    0.08382
 30 Zn   -0.05316    0.10701   -0.00566
 31 Zn   -0.13047    0.09696   -0.00468
 32 Zn    0.01716    0.01851   -0.15285
 33 Zn   -0.05458    0.04358    0.24652
 34 Zn   -0.00445   -0.00257    0.47469
 35 Zn   -0.59397   -0.34293    0.16055
 36 C    -0.11787   -0.06805   -0.98051

BFGS:    8 08:05:48    -2791.788304        0.9899
System changes: positions 

Initializing position-dependent things.

Density initialized from wave functions
                                             
                                             
                                             
                                             
               Zn    Zn  C    Zn             
                                             
                 Zn     Zn     Zn            
                   Zn    ZZn     Zn          
           Zn     Zn                         
             Zn     Zn     Zn                
                                             
              ZZn    ZZn    ZZn              
                                             
                Zn     Zn     Zn             
          Zn     ZZn    ZZn     Zn           
                                             
            Zn     Zn     Zn                 
              Zn     Zn     Zn               
                                             
                                             
                                             
                                             

Positions:
   0 Zn     0.000000    0.000000   10.000000    ( 0.0000,  0.0000,  0.0000)
   1 Zn     1.414214    0.816497   12.309401    ( 0.0000,  0.0000,  0.0000)
   2 Zn    -0.012506    1.639103   14.661425    ( 0.0000,  0.0000,  0.0000)
   3 Zn     1.390190    2.465233   17.062777    ( 0.0000,  0.0000,  0.0000)
   4 Zn    -1.414214    2.449490   10.000000    ( 0.0000,  0.0000,  0.0000)
   5 Zn     0.000000    3.265986   12.309401    ( 0.0000,  0.0000,  0.0000)
   6 Zn    -1.416558    4.081130   14.548718    ( 0.0000,  0.0000,  0.0000)
   7 Zn    -0.063810    4.862139   17.027078    ( 0.0000,  0.0000,  0.0000)
   8 Zn    -2.828427    4.898979   10.000000    ( 0.0000,  0.0000,  0.0000)
   9 Zn    -1.414214    5.715476   12.309401    ( 0.0000,  0.0000,  0.0000)
  10 Zn    -2.829389    6.518087   14.661425    ( 0.0000,  0.0000,  0.0000)
  11 Zn    -1.412591    7.319793   17.062777    ( 0.0000,  0.0000,  0.0000)
  12 Zn     2.828427    0.000000   10.000000    ( 0.0000,  0.0000,  0.0000)
  13 Zn     4.242641    0.816497   12.309401    ( 0.0000,  0.0000,  0.0000)
  14 Zn     2.847381    1.643936   14.566482    ( 0.0000,  0.0000,  0.0000)
  15 Zn     4.277002    2.469328   17.053073    ( 0.0000,  0.0000,  0.0000)
  16 Zn     1.414214    2.449490   10.000000    ( 0.0000,  0.0000,  0.0000)
  17 Zn     2.828427    3.265986   12.309401    ( 0.0000,  0.0000,  0.0000)
  18 Zn     1.401190    4.083104   14.658653    ( 0.0000,  0.0000,  0.0000)
[...]
  16 Zn     1.414214    2.449490   10.000000    ( 0.0000,  0.0000,  0.0000)
  17 Zn     2.828427    3.265986   12.309401    ( 0.0000,  0.0000,  0.0000)
  18 Zn     1.403243    4.086252   14.635945    ( 0.0000,  0.0000,  0.0000)
  19 Zn     2.829318    4.575854   17.346007    ( 0.0000,  0.0000,  0.0000)
  20 Zn     0.000000    4.898979   10.000000    ( 0.0000,  0.0000,  0.0000)
  21 Zn     1.414214    5.715476   12.309401    ( 0.0000,  0.0000,  0.0000)
  22 Zn    -0.002221    6.520587   14.635945    ( 0.0000,  0.0000,  0.0000)
  23 Zn     1.134825    7.510804   17.346007    ( 0.0000,  0.0000,  0.0000)
  24 Zn     5.656854    0.000000   10.000000    ( 0.0000,  0.0000,  0.0000)
  25 Zn     7.071068    0.816497   12.309401    ( 0.0000,  0.0000,  0.0000)
  26 Zn     5.651735    1.632880   14.643564    ( 0.0000,  0.0000,  0.0000)
  27 Zn     7.075564    2.462172   17.054251    ( 0.0000,  0.0000,  0.0000)
  28 Zn     4.242641    2.449490   10.000000    ( 0.0000,  0.0000,  0.0000)
  29 Zn     5.656854    3.265986   12.309401    ( 0.0000,  0.0000,  0.0000)
  30 Zn     4.239983    4.078106   14.643564    ( 0.0000,  0.0000,  0.0000)
  31 Zn     5.670085    4.896532   17.054251    ( 0.0000,  0.0000,  0.0000)
  32 Zn     2.828427    4.898979   10.000000    ( 0.0000,  0.0000,  0.0000)
  33 Zn     4.242641    5.715476   12.309401    ( 0.0000,  0.0000,  0.0000)
  34 Zn     2.822689    6.528660   14.935977    ( 0.0000,  0.0000,  0.0000)
  35 Zn     4.512912    7.504510   17.340884    ( 0.0000,  0.0000,  0.0000)
  36 C      2.824033    6.529436   17.027031    ( 0.0000,  0.0000,  0.0000)

Unit cell:
           periodic     x           y           z      points  spacing
  1. axis:    yes    8.485281    0.000000    0.000000    40     0.1837
  2. axis:    yes   -4.242641    7.348469    0.000000    40     0.1837
  3. axis:    no     0.000000    0.000000   26.928203   148     0.1819

  Lengths:   8.485281   8.485281  26.928203
  Angles:   90.000000  90.000000 120.000000

Effective grid spacing dv^(1/3) = 0.1921

     iter     time        total  log10-change:
                         energy  eigst   dens
iter:   1 11:32:11 -2792.337027  -2.38
iter:   2 11:32:38 -2792.336771  -2.89  -3.27
iter:   3 11:33:04 -2792.336585c -3.27  -3.45
iter:   4 11:33:30 -2792.336008c -3.69  -3.55
iter:   5 11:33:57 -2792.335971c -4.11  -3.86
iter:   6 11:34:23 -2792.335981c -4.42  -3.97
iter:   7 11:34:50 -2792.336011c -4.74  -4.14c
iter:   8 11:35:16 -2792.335989c -4.98  -4.28c
iter:   9 11:35:43 -2792.336000c -5.27  -4.45c
iter:  10 11:36:09 -2792.335995c -5.60  -4.59c
iter:  11 11:36:35 -2792.335989c -6.00  -4.67c
iter:  12 11:37:02 -2792.335990c -6.32  -4.74c
iter:  13 11:37:28 -2792.335997c -6.62  -4.79c
iter:  14 11:37:55 -2792.336000c -6.76  -5.07c
iter:  15 11:38:21 -2792.335999c -7.10  -5.13c
iter:  16 11:38:47 -2792.336000c -7.36  -5.19c
iter:  17 11:39:14 -2792.336000c -7.62c -5.29c

Converged after 17 iterations.

Dipole moment: (-7.736267, -9.845190, 0.044604) |e|*Ang

Energy contributions relative to reference atoms: (reference = -1760035.387621)

Kinetic:       +628.466657
Potential:     -524.465283
External:        +0.000000
XC:            -2894.449593
Entropy (-ST):   -0.378946
Local:           -1.698307
--------------------------
Free energy:   -2792.525473
Extrapolated:  -2792.336000

Showing only first 2 kpts
 Kpt  Band  Eigenvalues  Occupancy
  0   216     -4.62886    1.80628
  0   217     -4.44930    1.21508
  0   218     -4.24525    0.33498
  0   219     -4.22013    0.27066

  1   216     -4.23886    0.31756
  1   217     -4.00956    0.03740
  1   218     -3.83740    0.00679
  1   219     -3.56096    0.00043


Fermi level: -4.40560

No gap

Forces in eV/Ang:
  0 Zn   -0.02545   -0.01469   -0.16925
  1 Zn    0.02060    0.01189    0.15916
  2 Zn   -0.00347    0.01236    0.01661
  3 Zn    0.01372   -0.01256   -0.00413
  4 Zn   -0.00515    0.02737   -0.16329
  5 Zn   -0.00780   -0.00356    0.09271
  6 Zn   -0.00763   -0.00441    0.00990
  7 Zn   -0.00602   -0.00347   -0.00213
  8 Zn    0.02113   -0.01814   -0.16329
  9 Zn   -0.00698   -0.00497    0.09271
 10 Zn    0.00897   -0.00919    0.01661
 11 Zn   -0.00402    0.01816   -0.00413
 12 Zn   -0.01189    0.04356   -0.17905
 13 Zn   -0.03608    0.02453    0.15918
 14 Zn    0.02136    0.01233    0.00048
 15 Zn   -0.00393   -0.00227   -0.02278
 16 Zn    0.03178   -0.03207   -0.17905
 17 Zn    0.00320   -0.04351    0.15918
 18 Zn    0.00493   -0.02594    0.01612
 19 Zn   -0.00133    0.00786   -0.02382
 20 Zn   -0.03966   -0.02290   -0.16612
 21 Zn    0.09694    0.05597    0.27255
 22 Zn   -0.02000    0.01724    0.01612
 23 Zn    0.00614   -0.00508   -0.02382
 24 Zn    0.03273    0.00096   -0.15816
 25 Zn    0.00812   -0.11250    0.26807
 26 Zn   -0.01532    0.01167    0.02564
 27 Zn   -0.01046    0.00665   -0.00801
 28 Zn   -0.02966   -0.01712   -0.17568
 29 Zn   -0.00072   -0.00042    0.06267
 30 Zn    0.00245   -0.01911    0.02564
 31 Zn    0.00053   -0.01238   -0.00801
 32 Zn    0.01719    0.02787   -0.15816
 33 Zn   -0.09337    0.06328    0.26807
 34 Zn   -0.00617   -0.00356   -0.00239
 35 Zn    0.03889    0.02245   -0.02486
 36 C    -0.02768   -0.01598   -0.01616

BFGS:   33 11:39:26    -2792.336000        0.0513
System changes: positions 

Initializing position-dependent things.

Density initialized from wave functions
                                             
                                             
                                             
                                             
               Zn    Zn       Zn             
                        Zn                   
                 Zn            Zn            
                   Zn    ZZn     Zn          
           Zn     Zn                         
             Zn     Zn     Zn                
                                             
              ZZn    ZZn    ZZn              
                Zn     Zn     Zn             
                                             
          Zn     ZZn    ZZn     Zn           
                                             
            Zn     Zn     Zn                 
              Zn     Zn     Zn               
                                             
                                             
                                             
                                             

Positions:
   0 Zn     0.000000    0.000000   10.000000    ( 0.0000,  0.0000,  0.0000)
   1 Zn     1.414214    0.816497   12.309401    ( 0.0000,  0.0000,  0.0000)
   2 Zn    -0.012140    1.629338   14.636984    ( 0.0000,  0.0000,  0.0000)
   3 Zn     1.364881    2.476169   17.148690    ( 0.0000,  0.0000,  0.0000)
   4 Zn    -1.414214    2.449490   10.000000    ( 0.0000,  0.0000,  0.0000)
   5 Zn     0.000000    3.265986   12.309401    ( 0.0000,  0.0000,  0.0000)
   6 Zn    -1.427650    4.074725   14.593630    ( 0.0000,  0.0000,  0.0000)
   7 Zn    -0.004689    4.896272   17.033743    ( 0.0000,  0.0000,  0.0000)
   8 Zn    -2.828427    4.898979   10.000000    ( 0.0000,  0.0000,  0.0000)
   9 Zn    -1.414214    5.715476   12.309401    ( 0.0000,  0.0000,  0.0000)
  10 Zn    -2.837662    6.523287   14.636984    ( 0.0000,  0.0000,  0.0000)
  11 Zn    -1.415775    7.292406   17.148690    ( 0.0000,  0.0000,  0.0000)
  12 Zn     2.828427    0.000000   10.000000    ( 0.0000,  0.0000,  0.0000)
  13 Zn     4.242641    0.816497   12.309401    ( 0.0000,  0.0000,  0.0000)
  14 Zn     2.820507    1.628421   14.709770    ( 0.0000,  0.0000,  0.0000)
  15 Zn     4.298055    2.481483   17.171280    ( 0.0000,  0.0000,  0.0000)
  16 Zn     1.414214    2.449490   10.000000    ( 0.0000,  0.0000,  0.0000)
  17 Zn     2.828427    3.265986   12.309401    ( 0.0000,  0.0000,  0.0000)
  18 Zn     1.403125    4.085490   14.636026    ( 0.0000,  0.0000,  0.0000)
  19 Zn     2.829459    4.576296   17.345832    ( 0.0000,  0.0000,  0.0000)
  20 Zn     0.000000    4.898979   10.000000    ( 0.0000,  0.0000,  0.0000)
  21 Zn     1.414214    5.715476   12.309401    ( 0.0000,  0.0000,  0.0000)
  22 Zn    -0.002940    6.520866   14.636026    ( 0.0000,  0.0000,  0.0000)
  23 Zn     1.135278    7.510704   17.345832    ( 0.0000,  0.0000,  0.0000)
  24 Zn     5.656854    0.000000   10.000000    ( 0.0000,  0.0000,  0.0000)
  25 Zn     7.071068    0.816497   12.309401    ( 0.0000,  0.0000,  0.0000)
  26 Zn     5.651151    1.633377   14.643982    ( 0.0000,  0.0000,  0.0000)
  27 Zn     7.075185    2.462533   17.054027    ( 0.0000,  0.0000,  0.0000)
  28 Zn     4.242641    2.449490   10.000000    ( 0.0000,  0.0000,  0.0000)
  29 Zn     5.656854    3.265986   12.309401    ( 0.0000,  0.0000,  0.0000)
  30 Zn     4.240122    4.077351   14.643982    ( 0.0000,  0.0000,  0.0000)
  31 Zn     5.670208    4.896023   17.054027    ( 0.0000,  0.0000,  0.0000)
  32 Zn     2.828427    4.898979   10.000000    ( 0.0000,  0.0000,  0.0000)
  33 Zn     4.242641    5.715476   12.309401    ( 0.0000,  0.0000,  0.0000)
  34 Zn     2.822606    6.528612   14.936320    ( 0.0000,  0.0000,  0.0000)
  35 Zn     4.513522    7.504862   17.340781    ( 0.0000,  0.0000,  0.0000)
  36 C      2.823527    6.529144   17.026496    ( 0.0000,  0.0000,  0.0000)

Unit cell:
           periodic     x           y           z      points  spacing
  1. axis:    yes    8.485281    0.000000    0.000000    40     0.1837
  2. axis:    yes   -4.242641    7.348469    0.000000    40     0.1837
  3. axis:    no     0.000000    0.000000   26.928203   148     0.1819

  Lengths:   8.485281   8.485281  26.928203
  Angles:   90.000000  90.000000 120.000000

Effective grid spacing dv^(1/3) = 0.1921

     iter     time        total  log10-change:
                         energy  eigst   dens
iter:   1 11:40:26 -2792.336524  -4.21
iter:   2 11:40:52 -2792.336291  -4.73  -3.83
iter:   3 11:41:19 -2792.336274c -5.14  -4.08c
iter:   4 11:41:45 -2792.336168c -5.44  -4.22c
iter:   5 11:42:11 -2792.336185c -5.87  -4.71c
iter:   6 11:42:38 -2792.336179c -6.10  -4.72c
iter:   7 11:43:04 -2792.336164c -6.18  -4.91c
iter:   8 11:43:31 -2792.336168c -6.50  -5.12c
iter:   9 11:43:57 -2792.336171c -6.84  -5.29c
iter:  10 11:44:23 -2792.336173c -7.22  -5.37c
iter:  11 11:44:50 -2792.336173c -7.41c -5.53c

Converged after 11 iterations.

Dipole moment: (-7.728267, -9.846195, 0.044608) |e|*Ang

Energy contributions relative to reference atoms: (reference = -1760035.387621)

Kinetic:       +628.487700
Potential:     -524.481407
External:        +0.000000
XC:            -2894.454764
Entropy (-ST):   -0.379029
Local:           -1.698186
--------------------------
Free energy:   -2792.525687
Extrapolated:  -2792.336173

Showing only first 2 kpts
 Kpt  Band  Eigenvalues  Occupancy
  0   216     -4.62877    1.80608
  0   217     -4.44931    1.21507
  0   218     -4.24545    0.33549
  0   219     -4.22049    0.27145

  1   216     -4.23872    0.31712
  1   217     -4.00985    0.03750
  1   218     -3.83724    0.00678
  1   219     -3.56096    0.00043


Fermi level: -4.40562

No gap

Forces in eV/Ang:
  0 Zn   -0.02519   -0.01455   -0.16959
  1 Zn    0.02068    0.01194    0.15977
  2 Zn   -0.00365    0.01018    0.01601
  3 Zn    0.01543   -0.00956   -0.00491
  4 Zn   -0.00511    0.02734   -0.16321
  5 Zn   -0.00820   -0.00338    0.09288
  6 Zn   -0.00615   -0.00355    0.00709
  7 Zn   -0.00507   -0.00293   -0.00196
  8 Zn    0.02112   -0.01810   -0.16321
  9 Zn   -0.00703   -0.00542    0.09288
 10 Zn    0.00699   -0.00825    0.01601
 11 Zn   -0.00056    0.01814   -0.00491
 12 Zn   -0.01200    0.04398   -0.17892
 13 Zn   -0.03586    0.02429    0.15906
 14 Zn    0.01696    0.00979    0.00003
 15 Zn   -0.00540   -0.00312   -0.02199
 16 Zn    0.03209   -0.03238   -0.17892
 17 Zn    0.00311   -0.04320    0.15906
 18 Zn    0.00539   -0.02224    0.01523
 19 Zn   -0.00138   -0.00033   -0.02167
 20 Zn   -0.03972   -0.02293   -0.16595
 21 Zn    0.09699    0.05599    0.27460
 22 Zn   -0.01656    0.01579    0.01523
 23 Zn   -0.00098   -0.00103   -0.02167
 24 Zn    0.03254    0.00110   -0.15828
 25 Zn    0.00781   -0.11260    0.26977
 26 Zn   -0.01199    0.00868    0.02379
 27 Zn   -0.00857    0.00442   -0.00725
 28 Zn   -0.02995   -0.01729   -0.17561
 29 Zn   -0.00032   -0.00018    0.06281
 30 Zn    0.00152   -0.01473    0.02379
 31 Zn   -0.00045   -0.00963   -0.00725
 32 Zn    0.01722    0.02764   -0.15828
 33 Zn   -0.09361    0.06307    0.26977
 34 Zn   -0.00573   -0.00331   -0.00872
 35 Zn    0.02403    0.01387   -0.02659
 36 C    -0.01096   -0.00633   -0.01162

BFGS:   34 11:45:02    -2792.336173        0.0384
Timing:                                      incl.     excl.
-------------------------------------------------------------------
Density initialized from wave functions:    25.131    23.957   0.1% |
 Symmetrize density:                         1.174     1.174   0.0% |
Forces:                                    443.940   443.940   2.3% ||
Hamiltonian:                               117.263     0.006   0.0% |
 Atomic:                                     0.009     0.009   0.0% |
  XC Correction:                             0.000     0.000   0.0% |
 Calculate atomic Hamiltonians:              0.013     0.013   0.0% |
 Communicate:                                5.967     5.967   0.0% |
 Hartree integrate/restrict:                 0.343     0.343   0.0% |
 Initialize Hamiltonian:                     0.001     0.001   0.0% |
 Poisson:                                    6.172     0.242   0.0% |
  Communicate from 1D:                       0.466     0.466   0.0% |
  Communicate from 2D:                       1.060     1.060   0.0% |
  Communicate to 1D:                         0.293     0.293   0.0% |
  Communicate to 2D:                         1.096     1.096   0.0% |
  FFT 1D:                                    1.538     1.538   0.0% |
  FFT 2D:                                    1.477     1.477   0.0% |
 XC 3D grid:                               104.681    26.716   0.1% |
  VdW-DF integral:                          77.965     4.492   0.0% |
   Convolution:                              7.287     7.287   0.0% |
   FFT:                                      5.257     5.257   0.0% |
   gather:                                  23.622    23.622   0.1% |
   hmm1:                                     1.489     1.489   0.0% |
   hmm2:                                     3.170     3.170   0.0% |
   iFFT:                                     4.936     4.936   0.0% |
   potential:                               23.528     0.541   0.0% |
    collect:                                 1.551     1.551   0.0% |
    p1:                                     13.986    13.986   0.1% |
    p2:                                      4.780     4.780   0.0% |
    sum:                                     2.670     2.670   0.0% |
   splines:                                  4.184     4.184   0.0% |
 vbar:                                       0.072     0.072   0.0% |
LCAO initialization:                        22.467     0.841   0.0% |
 LCAO eigensolver:                          14.206     0.004   0.0% |
  Calculate projections:                     0.000     0.000   0.0% |
  DenseAtomicCorrection:                     0.000     0.000   0.0% |
  Distribute overlap matrix:                13.695    13.695   0.1% |
  Orbital Layouts:                           0.411     0.411   0.0% |
  Potential matrix:                          0.016     0.016   0.0% |
  Sum over cells:                            0.080     0.080   0.0% |
 LCAO to grid:                               6.014     6.014   0.0% |
 Set positions (LCAO WFS):                   1.406     1.031   0.0% |
  Basic WFS set positions:                   0.002     0.002   0.0% |
  Basis functions set positions:             0.000     0.000   0.0% |
  P tci:                                     0.001     0.001   0.0% |
  ST tci:                                    0.282     0.282   0.0% |
  mktci:                                     0.089     0.089   0.0% |
Redistribute:                                0.019     0.019   0.0% |
SCF-cycle:                               17325.629   172.204   0.9% |
 Davidson:                               14970.299  4962.500  26.2% |---------|
  Apply hamiltonian:                       401.205   401.205   2.1% ||
  Subspace diag:                          1462.041     0.081   0.0% |
   calc_h_matrix:                          762.168   382.519   2.0% ||
    Apply hamiltonian:                     379.650   379.650   2.0% ||
   diagonalize:                             34.707    34.707   0.2% |
   rotate_psi:                             665.085   665.085   3.5% ||
  calc. matrices:                         6692.939  2565.802  13.6% |----|
   Apply hamiltonian:                     4127.136  4127.136  21.8% |--------|
  diagonalize:                             165.228   165.228   0.9% |
  rotate_psi:                             1286.387  1286.387   6.8% |--|
 Density:                                   53.613     0.018   0.0% |
  Atomic density matrices:                   3.053     3.053   0.0% |
  Mix:                                       9.860     9.860   0.1% |
  Multipole moments:                         0.269     0.269   0.0% |
  Pseudo density:                           40.413    22.483   0.1% |
   Symmetrize density:                      17.930    17.930   0.1% |
 Hamiltonian:                             2011.945     0.081   0.0% |
  Atomic:                                    0.170     0.168   0.0% |
   XC Correction:                            0.002     0.002   0.0% |
  Calculate atomic Hamiltonians:             0.217     0.217   0.0% |
  Communicate:                             109.021   109.021   0.6% |
  Hartree integrate/restrict:                6.001     6.001   0.0% |
  Poisson:                                 109.149     4.182   0.0% |
   Communicate from 1D:                      8.349     8.349   0.0% |
   Communicate from 2D:                     18.612    18.612   0.1% |
   Communicate to 1D:                        5.038     5.038   0.0% |
   Communicate to 2D:                       19.536    19.536   0.1% |
   FFT 1D:                                  27.417    27.417   0.1% |
   FFT 2D:                                  26.016    26.016   0.1% |
  XC 3D grid:                             1786.215   466.685   2.5% ||
   VdW-DF integral:                       1319.530    79.148   0.4% |
    Convolution:                           129.080   129.080   0.7% |
    FFT:                                    92.372    92.372   0.5% |
    gather:                                433.022   433.022   2.3% ||
    hmm1:                                   25.686    25.686   0.1% |
    hmm2:                                   54.434    54.434   0.3% |
    iFFT:                                   87.904    87.904   0.5% |
    potential:                             417.880     9.400   0.0% |
     collect:                               27.455    27.455   0.1% |
     p1:                                   247.434   247.434   1.3% ||
     p2:                                    83.958    83.958   0.4% |
     sum:                                   49.634    49.634   0.3% |
    splines:                                 0.005     0.005   0.0% |
  vbar:                                      1.091     1.091   0.0% |
 Orthonormalize:                           117.569     0.007   0.0% |
  calc_s_matrix:                             9.207     9.207   0.0% |
  inverse-cholesky:                         90.328    90.328   0.5% |
  projections:                               0.002     0.002   0.0% |
  rotate_psi_s:                             18.024    18.024   0.1% |
Set symmetry:                                0.002     0.002   0.0% |
Other:                                     976.213   976.213   5.2% |-|
-------------------------------------------------------------------
Total:                                             18910.665 100.0%

Memory usage: 1.46 GiB
Date: Thu Sep 28 11:45:02 2023
