
  ___ ___ ___ _ _ _  
 |   |   |_  | | | | 
 | | | | | . | | | | 
 |__ |  _|___|_____|  22.8.0
 |___|_|             

User:   s204775@c070.nifl.fysik.dtu.dk
Date:   Tue Sep 26 11:30:27 2023
Arch:   x86_64
Pid:    44864
CWD:    /home/cat/s204775/projects/Bachelor_project/OH_missing_features
Python: 3.10.4
gpaw:   /home/modules/software/GPAW/22.8.0-intel-2022a/lib/python3.10/site-packages/gpaw
_gpaw:  /home/modules/software/GPAW/22.8.0-intel-2022a/lib/python3.10/site-packages/
        _gpaw.cpython-310-x86_64-linux-gnu.so
ase:    /home/modules/software/ASE/3.22.1-intel-2022a/lib/python3.10/site-packages/ase (version 3.22.1)
numpy:  /home/modules/software/SciPy-bundle/2022.05-intel-2022a/lib/python3.10/site-packages/numpy (version 1.22.3)
scipy:  /home/modules/software/SciPy-bundle/2022.05-intel-2022a/lib/python3.10/site-packages/scipy (version 1.8.1)
libxc:  5.2.3
units:  Angstrom and eV
cores: 40
OpenMP: False
OMP_NUM_THREADS: 1

Input parameters:
  basis: dzp
  h: 0.18
  kpts: {size: (4, 4, 1)}
  xc: BEEF-vdW

System changes: positions, numbers, cell, pbc, initial_charges, initial_magmoms 

Initialize ...

species:
  Ag:
    name: Silver
    id: 33ddeab48f408598355e2011f1241e14
    Z: 47.0
    valence: 17
    core: 30
    charge: 0.0
    file: /home/modules/software/GPAW-setups/0.9.20000/Ag.PBE.gz
    compensation charges: {type: gauss,
                           rc: 0.40,
                           lmax: 2}
    cutoffs: {filter: 2.35,
              core: 2.19}
    valence states:
      #              energy  rcut
      - 5s(1.00)    -4.401   1.286
      - 4p(6.00)   -58.577   1.328
      - 5p(0.00)    -0.738   1.328
      - 4d(10.00)    -7.446   1.180
      -  s          22.811   1.286
      -  d          19.766   1.180
  
    # LCAO basis set for Ag:
    #   Name: dzp
    #   File: /home/modules/software/GPAW-setups/0.9.20000/Ag.dzp.basis.gz
    #   Number of radial functions: 9
    #   Number of spherical harmonics: 27
    #     l=0, rc=9.2812 Bohr: 5s-sz confined orbital
    #     l=1, rc=3.3750 Bohr: 4p-sz confined orbital
    #     l=1, rc=14.2344 Bohr: 5p-sz confined orbital
    #     l=2, rc=5.4531 Bohr: 4d-sz confined orbital
    #     l=0, rc=5.5156 Bohr: 5s-dz split-valence wave
    #     l=1, rc=2.3281 Bohr: 4p-dz split-valence wave
    #     l=1, rc=8.7656 Bohr: 5p-dz split-valence wave
    #     l=2, rc=3.2656 Bohr: 4d-dz split-valence wave
    #     l=1, rc=9.2812 Bohr: p-type Gaussian polarization
    #   Number of RI-basis functions 0

  O:
    name: Oxygen
    id: 32ecd46bf208036f09c70b0ec9a88b78
    Z: 8.0
    valence: 6
    core: 2
    charge: 0.0
    file: /home/modules/software/GPAW-setups/0.9.20000/O.PBE.gz
    compensation charges: {type: gauss,
                           rc: 0.21,
                           lmax: 2}
    cutoffs: {filter: 1.17,
              core: 0.83}
    valence states:
      #              energy  rcut
      - 2s(2.00)   -23.961   0.688
      - 2p(4.00)    -9.029   0.598
      -  s           3.251   0.688
      -  p          18.182   0.598
      -  d           0.000   0.619
  
    # LCAO basis set for O:
    #   Name: dzp
    #   File: /home/modules/software/GPAW-setups/0.9.20000/O.dzp.basis.gz
    #   Number of radial functions: 5
    #   Number of spherical harmonics: 13
    #     l=0, rc=4.3438 Bohr: 2s-sz confined orbital
    #     l=1, rc=5.3906 Bohr: 2p-sz confined orbital
    #     l=0, rc=2.2969 Bohr: 2s-dz split-valence wave
    #     l=1, rc=2.8906 Bohr: 2p-dz split-valence wave
    #     l=2, rc=5.3906 Bohr: d-type Gaussian polarization
    #   Number of RI-basis functions 0

  H:
    name: Hydrogen
    id: d65de229564ff8ea4db303e23b6d1ecf
    Z: 1.0
    valence: 1
    core: 0
    charge: 0.0
    file: /home/modules/software/GPAW-setups/0.9.20000/H.PBE.gz
    compensation charges: {type: gauss,
                           rc: 0.15,
                           lmax: 2}
    cutoffs: {filter: 0.85,
              core: 0.53}
    valence states:
      #              energy  rcut
      - 1s(1.00)    -6.494   0.476
      -  s          20.717   0.476
      -  p           0.000   0.476
  
    # LCAO basis set for H:
    #   Name: dzp
    #   File: /home/modules/software/GPAW-setups/0.9.20000/H.dzp.basis.gz
    #   Number of radial functions: 3
    #   Number of spherical harmonics: 5
    #     l=0, rc=6.4219 Bohr: 1s-sz confined orbital
    #     l=0, rc=3.6094 Bohr: 1s-dz split-valence wave
    #     l=1, rc=6.4219 Bohr: p-type Gaussian polarization
    #   Number of RI-basis functions 0

Reference energy: -5207575.091197  # eV

Spin-paired calculation

Convergence criteria:
 Maximum [total energy] change in last 3 cyles: 0.0005 eV / electron
 Maximum integral of absolute [dens]ity change: 0.0001 electrons / valence electron
 Maximum integral of absolute [eigenst]ate change: 4e-08 eV^2 / valence electron
 Maximum number of scf [iter]ations: 333
 (Square brackets indicate name in SCF output, whereas a 'c' in
 the SCF output indicates the quantity has converged.)

Symmetries present (total): 6

  ( 1  1  0)  ( 1  0  0)  ( 0  1  0)  ( 0 -1  0)  (-1  0  0)  (-1 -1  0)
  ( 0 -1  0)  ( 0  1  0)  (-1 -1  0)  (-1  0  0)  ( 1  1  0)  ( 1  0  0)
  ( 0  0  1)  ( 0  0  1)  ( 0  0  1)  ( 0  0  1)  ( 0  0  1)  ( 0  0  1)
Note: your k-points are not as symmetric as your crystal!

16 k-points: 4 x 4 x 1 Monkhorst-Pack grid
6 k-points in the irreducible part of the Brillouin zone
       k-points in crystal coordinates                weights
   0:     0.12500000   -0.12500000    0.00000000          2/16
   1:     0.12500000    0.12500000    0.00000000          2/16
   2:     0.37500000   -0.37500000    0.00000000          2/16
   3:     0.37500000   -0.12500000    0.00000000          4/16
   4:     0.37500000    0.12500000    0.00000000          4/16
   5:     0.37500000    0.37500000    0.00000000          2/16

Wave functions: Uniform real-space grid
  Kinetic energy operator: 8*3+1=25 point O(h^6) finite-difference Laplacian
  ScaLapack parameters: grid=1x1, blocksize=None
  Wavefunction extrapolation:
    Improved wavefunction reuse through dual PAW basis 

Occupation numbers: Fermi-Dirac:
  width: 0.1000  # eV
 

Eigensolver
   Davidson(niter=2) 

Densities:
  Coarse grid: 44*44*152 grid
  Fine grid: 88*88*304 grid
  Total Charge: 0.000000 

Density mixing:
  Method: separate
  Backend: pulay
  Linear mixing parameter: 0.05
  old densities: 5
  Damping of long wavelength oscillations: 50 

Hamiltonian:
  XC and Coulomb potentials evaluated on a 88*88*304 grid
  Using the BEEF-vdW Exchange-Correlation functional
  Interpolation: tri-quintic (5. degree polynomial)
  Poisson solver: FastPoissonSolver using
    Stencil: 8*3+1=25 point O(h^6) finite-difference Laplacian
    FFT axes: [0, 1]
    FST axes: [2]
 

XC parameters: BEEF-vdW with 2 nearest neighbor stencil

Memory estimate:
  Process memory now: 187.89 MiB
  Calculator: 377.49 MiB
    Density: 16.12 MiB
      Arrays: 2.88 MiB
      Localized functions: 12.14 MiB
      Mixer: 1.11 MiB
    Hamiltonian: 2.81 MiB
      Arrays: 1.88 MiB
      XC: 0.00 MiB
      Poisson: 0.00 MiB
      vbar: 0.92 MiB
    Wavefunctions: 358.56 MiB
      Arrays psit_nG: 249.92 MiB
      Eigensolver: 106.00 MiB
      Projections: 0.57 MiB
      Projectors: 2.08 MiB

Total number of cores used: 40
Parallelization over k-points: 2
Domain decomposition: 2 x 2 x 5

Number of atoms: 38
Number of atomic orbitals: 990
Number of bands in calculation: 376
Number of valence electrons: 619
Bands to converge: occupied

... initialized

Initializing position-dependent things.

Density initialized from atomic densities
Creating initial wave functions:
  376 bands from LCAO basis set

                                                  
                                                  
                                                  
                                                  
                                                  
                                                  
                                                  
                           H                      
                           O                      
                  Ag     Ag     Ag                
                    Ag     Ag     Ag              
            Ag     Ag     Ag                      
              Ag     AAg    AAg     Ag            
                                                  
               AAg    AAg    AAg                  
                                                  
                 Ag     Ag     Ag                 
                                                  
           Ag     AAg    AAg     Ag               
                                                  
            Ag      Ag     Ag                     
              Ag      Ag     Ag                   
                                                  
                                                  
                                                  
                                                  

Positions:
   0 Ag    -0.000000    0.000000    9.999999    ( 0.0000,  0.0000,  0.0000)
   1 Ag     1.496122    0.863786   12.443156    ( 0.0000,  0.0000,  0.0000)
   2 Ag    -0.000000    1.721500   14.879470    ( 0.0000,  0.0000,  0.0000)
   3 Ag     2.990772    0.000104   17.332927    ( 0.0000,  0.0000,  0.0000)
   4 Ag    -1.496122    2.591359    9.999999    ( 0.0000,  0.0000,  0.0000)
   5 Ag     0.000000    3.455145   12.443156    ( 0.0000,  0.0000,  0.0000)
   6 Ag    -1.490401    4.322235   14.880555    ( 0.0000,  0.0000,  0.0000)
   7 Ag     1.495476    2.590033   17.332927    ( 0.0000,  0.0000,  0.0000)
   8 Ag    -2.992244    5.182718    9.999999    ( 0.0000,  0.0000,  0.0000)
   9 Ag    -1.496122    6.046505   12.443156    ( 0.0000,  0.0000,  0.0000)
  10 Ag    -2.997503    6.913327   14.879470    ( 0.0000,  0.0000,  0.0000)
  11 Ag     0.000000    5.182718   17.332986    ( 0.0000,  0.0000,  0.0000)
  12 Ag     2.992244    0.000000    9.999999    ( 0.0000,  0.0000,  0.0000)
  13 Ag     4.488366    0.863786   12.443156    ( 0.0000,  0.0000,  0.0000)
  14 Ag     2.995517    1.729463   14.878053    ( 0.0000,  0.0000,  0.0000)
  15 Ag     5.985960    0.000104   17.332927    ( 0.0000,  0.0000,  0.0000)
  16 Ag     1.496122    2.591359    9.999999    ( 0.0000,  0.0000,  0.0000)
  17 Ag     2.992244    3.455145   12.443156    ( 0.0000,  0.0000,  0.0000)
  18 Ag     1.490401    4.322235   14.880555    ( 0.0000,  0.0000,  0.0000)
  19 Ag     4.488366    2.591359   17.331088    ( 0.0000,  0.0000,  0.0000)
  20 Ag     0.000000    5.182718    9.999999    ( 0.0000,  0.0000,  0.0000)
  21 Ag     1.496122    6.046505   12.443156    ( 0.0000,  0.0000,  0.0000)
  22 Ag     0.000000    6.903685   14.880555    ( 0.0000,  0.0000,  0.0000)
  23 Ag     2.993069    5.183941   17.332927    ( 0.0000,  0.0000,  0.0000)
  24 Ag     5.984488    0.000000    9.999999    ( 0.0000,  0.0000,  0.0000)
  25 Ag     7.480609    0.863786   12.443156    ( 0.0000,  0.0000,  0.0000)
  26 Ag     5.981214    1.729463   14.878053    ( 0.0000,  0.0000,  0.0000)
  27 Ag     8.976731   -0.000000   17.337351    ( 0.0000,  0.0000,  0.0000)
  28 Ag     4.488366    2.591359    9.999999    ( 0.0000,  0.0000,  0.0000)
  29 Ag     5.984488    3.455145   12.443156    ( 0.0000,  0.0000,  0.0000)
  30 Ag     4.488366    4.315152   14.878053    ( 0.0000,  0.0000,  0.0000)
  31 Ag     7.481256    2.590033   17.332927    ( 0.0000,  0.0000,  0.0000)
  32 Ag     2.992244    5.182718    9.999999    ( 0.0000,  0.0000,  0.0000)
  33 Ag     4.488366    6.046505   12.443156    ( 0.0000,  0.0000,  0.0000)
  34 Ag     2.997503    6.913327   14.879470    ( 0.0000,  0.0000,  0.0000)
  35 Ag     5.983662    5.183941   17.332927    ( 0.0000,  0.0000,  0.0000)
  36 O      4.488366    2.591359   19.331088    ( 0.0000,  0.0000,  0.0000)
  37 H      4.488366    2.591359   20.291088    ( 0.0000,  0.0000,  0.0000)

Unit cell:
           periodic     x           y           z      points  spacing
  1. axis:    yes    8.976731    0.000000    0.000000    44     0.1767
  2. axis:    yes   -4.488366    7.774077    0.000000    44     0.1767
  3. axis:    no     0.000000    0.000000   27.329469   152     0.1798

  Lengths:   8.976731   8.976731  27.329469
  Angles:   90.000000  90.000000 120.000000

Effective grid spacing dv^(1/3) = 0.1864

     iter     time        total  log10-change:
                         energy  eigst   dens
iter:   1 11:31:43 -5364.290458
iter:   2 11:32:21 -5362.681151  -1.11  -1.51
iter:   3 11:33:00 -5361.569269  -1.81  -1.54
iter:   4 11:33:38 -5360.340492  -1.37  -1.59
iter:   5 11:34:16 -5360.349735  -2.54  -1.84
iter:   6 11:34:54 -5365.428437  -1.59  -1.84
iter:   7 11:35:32 -5368.528033  -1.93  -1.80
iter:   8 11:36:10 -5361.648127  -1.80  -1.88
iter:   9 11:36:48 -5360.323721  -1.67  -2.15
iter:  10 11:37:26 -5360.179172  -2.21  -2.51
iter:  11 11:38:04 -5360.158938c -2.75  -2.70
iter:  12 11:38:42 -5360.162740c -3.82  -2.79
iter:  13 11:39:20 -5360.154086c -4.23  -2.81
iter:  14 11:39:58 -5360.132102c -3.19  -2.80
iter:  15 11:40:37 -5360.128304c -3.70  -2.98
iter:  16 11:41:15 -5360.118230c -4.15  -3.02
iter:  17 11:41:53 -5360.113148c -3.86  -3.17
iter:  18 11:42:31 -5360.112395c -4.87  -3.47
iter:  19 11:43:09 -5360.111994c -5.23  -3.55
iter:  20 11:43:47 -5360.112083c -5.14  -3.60
iter:  21 11:44:25 -5360.112007c -5.81  -3.70
iter:  22 11:45:03 -5360.112057c -5.79  -3.78
iter:  23 11:45:41 -5360.112130c -5.71  -3.90
iter:  24 11:46:19 -5360.112212c -5.95  -4.04c
iter:  25 11:46:57 -5360.112193c -6.42  -4.14c
iter:  26 11:47:35 -5360.112199c -6.76  -4.30c
iter:  27 11:48:13 -5360.112205c -6.63  -4.41c
iter:  28 11:48:51 -5360.112204c -7.33  -4.76c
iter:  29 11:49:30 -5360.112203c -7.37  -4.81c
iter:  30 11:50:08 -5360.112205c -7.99c -4.90c

Converged after 30 iterations.

Dipole moment: (-4.622319, -7.528627, -0.165723) |e|*Ang

Energy contributions relative to reference atoms: (reference = -5207575.091197)

Kinetic:       +884.201687
Potential:     -863.558313
External:        +0.000000
XC:            -5384.813435
Entropy (-ST):   -0.345590
Local:           +4.230651
--------------------------
Free energy:   -5360.285000
Extrapolated:  -5360.112205

Showing only first 2 kpts
 Kpt  Band  Eigenvalues  Occupancy
  0   307     -5.50278    1.99898
  0   308     -5.42724    1.99783
  0   309     -5.20474    1.98009
  0   310     -5.07464    1.92875

  1   307     -5.45335    1.99833
  1   308     -5.32845    1.99418
  1   309     -5.24620    1.98680
  1   310     -4.78028    1.17559


Fermi level: -4.74479

No gap

Forces in eV/Ang:
  0 Ag   -0.00000    0.00000   -0.01332
  1 Ag   -0.00381   -0.00220    0.01957
  2 Ag   -0.00000    0.00545    0.01997
  3 Ag   -0.04954   -0.08941   -0.02272
  4 Ag    0.01170   -0.01249   -0.03207
  5 Ag    0.00000    0.02044    0.03983
  6 Ag   -0.01693   -0.00978    0.02460
  7 Ag   -0.10220    0.00181   -0.02272
  8 Ag   -0.00497    0.01638   -0.03207
  9 Ag    0.01770   -0.01022    0.03983
 10 Ag    0.00472   -0.00272    0.01997
 11 Ag   -0.00000    0.00000    0.00457
 12 Ag   -0.01667   -0.00389   -0.03207
 13 Ag    0.00000    0.04525   -0.00603
 14 Ag    0.06561    0.03788    0.07573
 15 Ag    0.04954   -0.08941   -0.02272
 16 Ag   -0.01170   -0.01249   -0.03207
 17 Ag    0.03919   -0.02263   -0.00603
 18 Ag    0.01693   -0.00978    0.02460
 19 Ag    0.00000    0.00000   -1.44806
 20 Ag    0.00000    0.00000   -0.01190
 21 Ag   -0.01770   -0.01022    0.03983
 22 Ag   -0.00000    0.01955    0.02460
 23 Ag   -0.05266    0.08760   -0.02272
 24 Ag    0.01667   -0.00389   -0.03207
 25 Ag    0.00381   -0.00220    0.01957
 26 Ag   -0.06561    0.03788    0.07573
 27 Ag    0.00000    0.00000   -0.00013
 28 Ag   -0.00000   -0.00000   -0.03145
 29 Ag   -0.03919   -0.02263   -0.00603
 30 Ag   -0.00000   -0.07576    0.07573
 31 Ag    0.10220    0.00181   -0.02272
 32 Ag    0.00497    0.01638   -0.03207
 33 Ag   -0.00000    0.00440    0.01957
 34 Ag   -0.00472   -0.00272    0.01997
 35 Ag    0.05266    0.08760   -0.02272
 36 O     0.00000    0.00000    1.31560
 37 H     0.00000    0.00000   -0.01117

      Step     Time          Energy         fmax
BFGS:    0 11:50:28    -5360.112205        1.4481
System changes: positions 

Initializing position-dependent things.

Density initialized from wave functions
                                                  
                                                  
                                                  
                                                  
                                                  
                                                  
                                                  
                           H                      
                           O                      
                  Ag     Ag     Ag                
                    Ag     Ag     Ag              
            Ag     Ag     Ag                      
              Ag     AAg    AAg     Ag            
                                                  
               AAg    AAg    AAg                  
                                                  
                 Ag     Ag     Ag                 
                                                  
           Ag     AAg    AAg     Ag               
                                                  
            Ag      Ag     Ag                     
              Ag      Ag     Ag                   
                                                  
                                                  
                                                  
                                                  

Positions:
   0 Ag    -0.000000    0.000000    9.999999    ( 0.0000,  0.0000,  0.0000)
   1 Ag     1.496122    0.863786   12.443156    ( 0.0000,  0.0000,  0.0000)
   2 Ag    -0.000000    1.721578   14.879755    ( 0.0000,  0.0000,  0.0000)
   3 Ag     2.990064   -0.001174   17.332603    ( 0.0000,  0.0000,  0.0000)
   4 Ag    -1.496122    2.591359    9.999999    ( 0.0000,  0.0000,  0.0000)
   5 Ag     0.000000    3.455145   12.443156    ( 0.0000,  0.0000,  0.0000)
   6 Ag    -1.490643    4.322095   14.880907    ( 0.0000,  0.0000,  0.0000)
   7 Ag     1.494016    2.590058   17.332603    ( 0.0000,  0.0000,  0.0000)
   8 Ag    -2.992244    5.182718    9.999999    ( 0.0000,  0.0000,  0.0000)
   9 Ag    -1.496122    6.046505   12.443156    ( 0.0000,  0.0000,  0.0000)
  10 Ag    -2.997435    6.913288   14.879755    ( 0.0000,  0.0000,  0.0000)
  11 Ag     0.000000    5.182718   17.333052    ( 0.0000,  0.0000,  0.0000)
  12 Ag     2.992244    0.000000    9.999999    ( 0.0000,  0.0000,  0.0000)
  13 Ag     4.488366    0.863786   12.443156    ( 0.0000,  0.0000,  0.0000)
  14 Ag     2.996454    1.730004   14.879135    ( 0.0000,  0.0000,  0.0000)
  15 Ag     5.986667   -0.001174   17.332603    ( 0.0000,  0.0000,  0.0000)
  16 Ag     1.496122    2.591359    9.999999    ( 0.0000,  0.0000,  0.0000)
  17 Ag     2.992244    3.455145   12.443156    ( 0.0000,  0.0000,  0.0000)
  18 Ag     1.490643    4.322095   14.880907    ( 0.0000,  0.0000,  0.0000)
  19 Ag     4.488366    2.591359   17.310402    ( 0.0000,  0.0000,  0.0000)
  20 Ag     0.000000    5.182718    9.999999    ( 0.0000,  0.0000,  0.0000)
  21 Ag     1.496122    6.046505   12.443156    ( 0.0000,  0.0000,  0.0000)
  22 Ag     0.000000    6.903964   14.880907    ( 0.0000,  0.0000,  0.0000)
  23 Ag     2.992317    5.185193   17.332603    ( 0.0000,  0.0000,  0.0000)
  24 Ag     5.984488    0.000000    9.999999    ( 0.0000,  0.0000,  0.0000)
  25 Ag     7.480609    0.863786   12.443156    ( 0.0000,  0.0000,  0.0000)
  26 Ag     5.980277    1.730004   14.879135    ( 0.0000,  0.0000,  0.0000)
  27 Ag     8.976731   -0.000000   17.337349    ( 0.0000,  0.0000,  0.0000)
  28 Ag     4.488366    2.591359    9.999999    ( 0.0000,  0.0000,  0.0000)
  29 Ag     5.984488    3.455145   12.443156    ( 0.0000,  0.0000,  0.0000)
  30 Ag     4.488366    4.314070   14.879135    ( 0.0000,  0.0000,  0.0000)
  31 Ag     7.482716    2.590058   17.332603    ( 0.0000,  0.0000,  0.0000)
  32 Ag     2.992244    5.182718    9.999999    ( 0.0000,  0.0000,  0.0000)
  33 Ag     4.488366    6.046505   12.443156    ( 0.0000,  0.0000,  0.0000)
  34 Ag     2.997435    6.913288   14.879755    ( 0.0000,  0.0000,  0.0000)
  35 Ag     5.984414    5.185193   17.332603    ( 0.0000,  0.0000,  0.0000)
  36 O      4.488366    2.591359   19.349883    ( 0.0000,  0.0000,  0.0000)
  37 H      4.488366    2.591359   20.290929    ( 0.0000,  0.0000,  0.0000)

Unit cell:
           periodic     x           y           z      points  spacing
  1. axis:    yes    8.976731    0.000000    0.000000    44     0.1767
  2. axis:    yes   -4.488366    7.774077    0.000000    44     0.1767
  3. axis:    no     0.000000    0.000000   27.329469   152     0.1798

  Lengths:   8.976731   8.976731  27.329469
  Angles:   90.000000  90.000000 120.000000

Effective grid spacing dv^(1/3) = 0.1864

     iter     time        total  log10-change:
                         energy  eigst   dens
iter:   1 11:51:53 -5360.163889  -2.75
iter:   2 11:52:32 -5360.154029  -3.85  -3.11
iter:   3 11:53:10 -5360.152367c -4.69  -3.50
iter:   4 11:53:49 -5360.149504c -4.29  -3.60
iter:   5 11:54:27 -5360.148665c -4.60  -3.79
iter:   6 11:55:06 -5360.148595c -4.88  -4.04c
iter:   7 11:55:45 -5360.148497c -5.32  -4.10c
iter:   8 11:56:23 -5360.148519c -5.45  -4.30c
iter:   9 11:57:02 -5360.148489c -6.28  -4.47c
iter:  10 11:57:40 -5360.148479c -6.53  -4.69c
iter:  11 11:58:19 -5360.148480c -7.14  -4.69c
iter:  12 11:58:57 -5360.148472c -7.42c -4.72c

Converged after 12 iterations.

Dipole moment: (-4.835992, -7.405777, -0.195010) |e|*Ang

Energy contributions relative to reference atoms: (reference = -5207575.091197)

Kinetic:       +883.743742
Potential:     -863.038431
External:        +0.000000
XC:            -5384.919351
Entropy (-ST):   -0.345440
Local:           +4.238289
--------------------------
Free energy:   -5360.321192
Extrapolated:  -5360.148472

Showing only first 2 kpts
 Kpt  Band  Eigenvalues  Occupancy
  0   307     -5.52024    1.99891
  0   308     -5.44831    1.99776
  0   309     -5.22548    1.97941
  0   310     -5.10178    1.93082

  1   307     -5.47528    1.99829
  1   308     -5.35223    1.99416
  1   309     -5.26996    1.98676
  1   310     -4.80287    1.16831


Fermi level: -4.76889

No gap

Forces in eV/Ang:
  0 Ag    0.00000    0.00000   -0.01024
  1 Ag   -0.00267   -0.00154    0.02305
  2 Ag   -0.00000    0.00601    0.01718
  3 Ag   -0.04500   -0.08137   -0.01966
  4 Ag    0.01217   -0.01246   -0.02913
  5 Ag    0.00000    0.02042    0.04151
  6 Ag   -0.01798   -0.01038    0.02246
  7 Ag   -0.09297    0.00171   -0.01966
  8 Ag   -0.00470    0.01676   -0.02913
  9 Ag    0.01768   -0.01021    0.04151
 10 Ag    0.00520   -0.00300    0.01718
 11 Ag    0.00000    0.00000    0.00437
 12 Ag   -0.01687   -0.00431   -0.02913
 13 Ag    0.00000    0.04699    0.00051
 14 Ag    0.05101    0.02945    0.05509
 15 Ag    0.04500   -0.08137   -0.01966
 16 Ag   -0.01217   -0.01246   -0.02913
 17 Ag    0.04070   -0.02350    0.00051
 18 Ag    0.01798   -0.01038    0.02246
 19 Ag   -0.00000    0.00000   -0.92621
 20 Ag   -0.00000    0.00000   -0.00871
 21 Ag   -0.01768   -0.01021    0.04151
 22 Ag    0.00000    0.02076    0.02246
 23 Ag   -0.04797    0.07966   -0.01966
 24 Ag    0.01687   -0.00431   -0.02913
 25 Ag    0.00267   -0.00154    0.02305
 26 Ag   -0.05101    0.02945    0.05509
 27 Ag    0.00000   -0.00000    0.00059
 28 Ag    0.00000    0.00000   -0.02886
 29 Ag   -0.04070   -0.02350    0.00051
 30 Ag   -0.00000   -0.05891    0.05509
 31 Ag    0.09297    0.00171   -0.01966
 32 Ag    0.00470    0.01676   -0.02913
 33 Ag   -0.00000    0.00308    0.02305
 34 Ag   -0.00520   -0.00300    0.01718
 35 Ag    0.04797    0.07966   -0.01966
 36 O    -0.00000    0.00000   -0.19200
 37 H     0.00000    0.00000    1.04024

BFGS:    1 11:59:17    -5360.148472        1.0402
System changes: positions 

Initializing position-dependent things.

Density initialized from wave functions
                                                  
                                                  
                                                  
                                                  
                                                  
                                                  
                                                  
                           H                      
                           O                      
                  Ag     Ag     Ag                
                    Ag     Ag     Ag              
            Ag     Ag     Ag                      
              Ag     AAg    AAg     Ag            
                                                  
               AAg    AAg    AAg                  
                                                  
                 Ag     Ag     Ag                 
                                                  
           Ag     AAg    AAg     Ag               
                                                  
            Ag      Ag     Ag                     
              Ag      Ag     Ag                   
                                                  
                                                  
                                                  
                                                  

Positions:
   0 Ag    -0.000000    0.000000    9.999999    ( 0.0000,  0.0000,  0.0000)
   1 Ag     1.496122    0.863786   12.443156    ( 0.0000,  0.0000,  0.0000)
   2 Ag    -0.000000    1.721768   14.880354    ( 0.0000,  0.0000,  0.0000)
   3 Ag     2.988529   -0.003948   17.331918    ( 0.0000,  0.0000,  0.0000)
   4 Ag    -1.496122    2.591359    9.999999    ( 0.0000,  0.0000,  0.0000)
   5 Ag     0.000000    3.455145   12.443156    ( 0.0000,  0.0000,  0.0000)
   6 Ag    -1.491220    4.321762   14.881672    ( 0.0000,  0.0000,  0.0000)
   7 Ag     1.490845    2.590116   17.331918    ( 0.0000,  0.0000,  0.0000)
   8 Ag    -2.992244    5.182718    9.999999    ( 0.0000,  0.0000,  0.0000)
   9 Ag    -1.496122    6.046505   12.443156    ( 0.0000,  0.0000,  0.0000)
  10 Ag    -2.997270    6.913193   14.880354    ( 0.0000,  0.0000,  0.0000)
  11 Ag    -0.000000    5.182718   17.333198    ( 0.0000,  0.0000,  0.0000)
  12 Ag     2.992244    0.000000    9.999999    ( 0.0000,  0.0000,  0.0000)
  13 Ag     4.488366    0.863786   12.443156    ( 0.0000,  0.0000,  0.0000)
  14 Ag     2.998314    1.731077   14.881204    ( 0.0000,  0.0000,  0.0000)
  15 Ag     5.988203   -0.003948   17.331918    ( 0.0000,  0.0000,  0.0000)
  16 Ag     1.496122    2.591359    9.999999    ( 0.0000,  0.0000,  0.0000)
  17 Ag     2.992244    3.455145   12.443156    ( 0.0000,  0.0000,  0.0000)
  18 Ag     1.491220    4.321762   14.881672    ( 0.0000,  0.0000,  0.0000)
  19 Ag     4.488366    2.591359   17.273421    ( 0.0000,  0.0000,  0.0000)
  20 Ag     0.000000    5.182718    9.999999    ( 0.0000,  0.0000,  0.0000)
  21 Ag     1.496122    6.046505   12.443156    ( 0.0000,  0.0000,  0.0000)
  22 Ag     0.000000    6.904631   14.881672    ( 0.0000,  0.0000,  0.0000)
  23 Ag     2.990682    5.187910   17.331918    ( 0.0000,  0.0000,  0.0000)
  24 Ag     5.984488    0.000000    9.999999    ( 0.0000,  0.0000,  0.0000)
  25 Ag     7.480609    0.863786   12.443156    ( 0.0000,  0.0000,  0.0000)
  26 Ag     5.978418    1.731077   14.881204    ( 0.0000,  0.0000,  0.0000)
  27 Ag     8.976731   -0.000000   17.337360    ( 0.0000,  0.0000,  0.0000)
  28 Ag     4.488366    2.591359    9.999999    ( 0.0000,  0.0000,  0.0000)
  29 Ag     5.984488    3.455145   12.443156    ( 0.0000,  0.0000,  0.0000)
  30 Ag     4.488366    4.311923   14.881204    ( 0.0000,  0.0000,  0.0000)
  31 Ag     7.485886    2.590116   17.331918    ( 0.0000,  0.0000,  0.0000)
  32 Ag     2.992244    5.182718    9.999999    ( 0.0000,  0.0000,  0.0000)
  33 Ag     4.488366    6.046505   12.443156    ( 0.0000,  0.0000,  0.0000)
  34 Ag     2.997270    6.913193   14.880354    ( 0.0000,  0.0000,  0.0000)
  35 Ag     5.986049    5.187910   17.331918    ( 0.0000,  0.0000,  0.0000)
  36 O      4.488366    2.591359   19.362488    ( 0.0000,  0.0000,  0.0000)
  37 H      4.488366    2.591359   20.311918    ( 0.0000,  0.0000,  0.0000)

Unit cell:
           periodic     x           y           z      points  spacing
  1. axis:    yes    8.976731    0.000000    0.000000    44     0.1767
  2. axis:    yes   -4.488366    7.774077    0.000000    44     0.1767
  3. axis:    no     0.000000    0.000000   27.329469   152     0.1798

  Lengths:   8.976731   8.976731  27.329469
  Angles:   90.000000  90.000000 120.000000

Effective grid spacing dv^(1/3) = 0.1864

     iter     time        total  log10-change:
                         energy  eigst   dens
iter:   1 12:00:42 -5360.213615  -2.51
iter:   2 12:01:21 -5360.199237  -3.61  -3.15
iter:   3 12:02:00 -5360.187762c -3.74  -3.31
iter:   4 12:02:38 -5360.188110c -4.82  -3.51
iter:   5 12:03:17 -5360.187219c -5.12  -3.72
iter:   6 12:03:56 -5360.187075c -5.52  -3.85
iter:   7 12:04:35 -5360.186810c -5.45  -4.00c
iter:   8 12:05:14 -5360.186832c -5.95  -4.13c
iter:   9 12:05:53 -5360.186817c -5.93  -4.22c
iter:  10 12:06:31 -5360.186811c -6.50  -4.53c
iter:  11 12:07:10 -5360.186798c -6.90  -4.58c
iter:  12 12:07:49 -5360.186798c -7.07  -4.72c
iter:  13 12:08:28 -5360.186804c -7.59c -4.79c

Converged after 13 iterations.

Dipole moment: (-5.271869, -7.153629, -0.219319) |e|*Ang

Energy contributions relative to reference atoms: (reference = -5207575.091197)

Kinetic:       +882.786252
Potential:     -862.283277
External:        +0.000000
XC:            -5384.741267
Entropy (-ST):   -0.345602
Local:           +4.224290
--------------------------
Free energy:   -5360.359605
Extrapolated:  -5360.186804

Showing only first 2 kpts
 Kpt  Band  Eigenvalues  Occupancy
  0   307     -5.52856    1.99878
  0   308     -5.46313    1.99766
  0   309     -5.23833    1.97808
  0   310     -5.12332    1.93238

  1   307     -5.48941    1.99820
  1   308     -5.36822    1.99397
  1   309     -5.28869    1.98670
  1   310     -4.81822    1.14967


Fermi level: -4.78806

No gap

Forces in eV/Ang:
  0 Ag    0.00000    0.00000   -0.01061
  1 Ag   -0.00260   -0.00150    0.02375
  2 Ag   -0.00000    0.00439    0.01487
  3 Ag   -0.03302   -0.05955   -0.01371
  4 Ag    0.01306   -0.01249   -0.02893
  5 Ag    0.00000    0.02079    0.03981
  6 Ag   -0.01266   -0.00731    0.02142
  7 Ag   -0.06808    0.00118   -0.01371
  8 Ag   -0.00429    0.01755   -0.02893
  9 Ag    0.01800   -0.01039    0.03981
 10 Ag    0.00380   -0.00219    0.01487
 11 Ag   -0.00000    0.00000    0.00094
 12 Ag   -0.01735   -0.00506   -0.02893
 13 Ag    0.00000    0.04671   -0.00029
 14 Ag    0.01254    0.00724    0.01745
 15 Ag    0.03302   -0.05955   -0.01371
 16 Ag   -0.01306   -0.01249   -0.02893
 17 Ag    0.04045   -0.02336   -0.00029
 18 Ag    0.01266   -0.00731    0.02142
 19 Ag    0.00000    0.00000   -0.35587
 20 Ag    0.00000   -0.00000   -0.00866
 21 Ag   -0.01800   -0.01039    0.03981
 22 Ag   -0.00000    0.01462    0.02142
 23 Ag   -0.03507    0.05837   -0.01371
 24 Ag    0.01735   -0.00506   -0.02893
 25 Ag    0.00260   -0.00150    0.02375
 26 Ag   -0.01254    0.00724    0.01745
 27 Ag   -0.00000    0.00000   -0.00165
 28 Ag    0.00000    0.00000   -0.02919
 29 Ag   -0.04045   -0.02336   -0.00029
 30 Ag    0.00000   -0.01448    0.01745
 31 Ag    0.06808    0.00118   -0.01371
 32 Ag    0.00429    0.01755   -0.02893
 33 Ag    0.00000    0.00300    0.02375
 34 Ag   -0.00380   -0.00219    0.01487
 35 Ag    0.03507    0.05837   -0.01371
 36 O     0.00000   -0.00000   -0.29371
 37 H    -0.00000    0.00000    0.58362

BFGS:    2 12:08:47    -5360.186804        0.5836
System changes: positions 

Initializing position-dependent things.

Density initialized from wave functions
                                                  
                                                  
                                                  
                                                  
                                                  
                                                  
                                                  
                           H                      
                           O                      
                  Ag     Ag     Ag                
                    Ag     Ag     Ag              
            Ag     Ag     Ag                      
              Ag     AAg    AAg     Ag            
                                                  
               AAg    AAg    AAg                  
                                                  
                 Ag     Ag     Ag                 
                                                  
           Ag     AAg    AAg     Ag               
                                                  
            Ag      Ag     Ag                     
              Ag      Ag     Ag                   
                                                  
                                                  
                                                  
                                                  

Positions:
   0 Ag    -0.000000    0.000000    9.999999    ( 0.0000,  0.0000,  0.0000)
   1 Ag     1.496122    0.863786   12.443156    ( 0.0000,  0.0000,  0.0000)
   2 Ag    -0.000000    1.721944   14.880957    ( 0.0000,  0.0000,  0.0000)
   3 Ag     2.987121   -0.006488   17.331310    ( 0.0000,  0.0000,  0.0000)
   4 Ag    -1.496122    2.591359    9.999999    ( 0.0000,  0.0000,  0.0000)
   5 Ag     0.000000    3.455145   12.443156    ( 0.0000,  0.0000,  0.0000)
   6 Ag    -1.491741    4.321461   14.882494    ( 0.0000,  0.0000,  0.0000)
   7 Ag     1.487942    2.590167   17.331310    ( 0.0000,  0.0000,  0.0000)
   8 Ag    -2.992244    5.182718    9.999999    ( 0.0000,  0.0000,  0.0000)
   9 Ag    -1.496122    6.046505   12.443156    ( 0.0000,  0.0000,  0.0000)
  10 Ag    -2.997118    6.913105   14.880957    ( 0.0000,  0.0000,  0.0000)
  11 Ag    -0.000000    5.182718   17.333277    ( 0.0000,  0.0000,  0.0000)
  12 Ag     2.992244    0.000000    9.999999    ( 0.0000,  0.0000,  0.0000)
  13 Ag     4.488366    0.863786   12.443156    ( 0.0000,  0.0000,  0.0000)
  14 Ag     2.999397    1.731703   14.882519    ( 0.0000,  0.0000,  0.0000)
  15 Ag     5.989610   -0.006488   17.331310    ( 0.0000,  0.0000,  0.0000)
  16 Ag     1.496122    2.591359    9.999999    ( 0.0000,  0.0000,  0.0000)
  17 Ag     2.992244    3.455145   12.443156    ( 0.0000,  0.0000,  0.0000)
  18 Ag     1.491741    4.321461   14.882494    ( 0.0000,  0.0000,  0.0000)
  19 Ag     4.488366    2.591359   17.248026    ( 0.0000,  0.0000,  0.0000)
  20 Ag     0.000000    5.182718    9.999999    ( 0.0000,  0.0000,  0.0000)
  21 Ag     1.496122    6.046505   12.443156    ( 0.0000,  0.0000,  0.0000)
  22 Ag     0.000000    6.905232   14.882494    ( 0.0000,  0.0000,  0.0000)
  23 Ag     2.989187    5.190398   17.331310    ( 0.0000,  0.0000,  0.0000)
  24 Ag     5.984488    0.000000    9.999999    ( 0.0000,  0.0000,  0.0000)
  25 Ag     7.480609    0.863786   12.443156    ( 0.0000,  0.0000,  0.0000)
  26 Ag     5.977334    1.731703   14.882519    ( 0.0000,  0.0000,  0.0000)
  27 Ag     8.976731   -0.000000   17.337320    ( 0.0000,  0.0000,  0.0000)
  28 Ag     4.488366    2.591359    9.999999    ( 0.0000,  0.0000,  0.0000)
  29 Ag     5.984488    3.455145   12.443156    ( 0.0000,  0.0000,  0.0000)
  30 Ag     4.488366    4.310672   14.882519    ( 0.0000,  0.0000,  0.0000)
  31 Ag     7.488789    2.590167   17.331310    ( 0.0000,  0.0000,  0.0000)
  32 Ag     2.992244    5.182718    9.999999    ( 0.0000,  0.0000,  0.0000)
  33 Ag     4.488366    6.046505   12.443156    ( 0.0000,  0.0000,  0.0000)
  34 Ag     2.997118    6.913105   14.880957    ( 0.0000,  0.0000,  0.0000)
  35 Ag     5.987545    5.190398   17.331310    ( 0.0000,  0.0000,  0.0000)
  36 O      4.488366    2.591359   19.368190    ( 0.0000,  0.0000,  0.0000)
  37 H      4.488366    2.591359   20.328376    ( 0.0000,  0.0000,  0.0000)

Unit cell:
           periodic     x           y           z      points  spacing
  1. axis:    yes    8.976731    0.000000    0.000000    44     0.1767
  2. axis:    yes   -4.488366    7.774077    0.000000    44     0.1767
  3. axis:    no     0.000000    0.000000   27.329469   152     0.1798

  Lengths:   8.976731   8.976731  27.329469
  Angles:   90.000000  90.000000 120.000000

Effective grid spacing dv^(1/3) = 0.1864

     iter     time        total  log10-change:
                         energy  eigst   dens
iter:   1 12:10:13 -5360.216708  -2.83
iter:   2 12:10:51 -5360.205376  -3.91  -3.25
iter:   3 12:11:30 -5360.197477c -4.00  -3.42
iter:   4 12:12:09 -5360.197411c -5.26  -3.64
iter:   5 12:12:47 -5360.197290c -5.51  -3.80
iter:   6 12:13:26 -5360.196981c -5.52  -4.00
iter:   7 12:14:05 -5360.197022c -5.53  -4.11c
iter:   8 12:14:43 -5360.196981c -6.64  -4.29c
iter:   9 12:15:22 -5360.196985c -6.02  -4.32c
iter:  10 12:16:00 -5360.196998c -6.53  -4.58c
iter:  11 12:16:39 -5360.197010c -7.11  -4.74c
iter:  12 12:17:18 -5360.197002c -7.04  -4.79c
iter:  13 12:17:56 -5360.197000c -7.73c -4.86c

Converged after 13 iterations.

Dipole moment: (-5.661041, -6.927572, -0.233418) |e|*Ang

Energy contributions relative to reference atoms: (reference = -5207575.091197)

Kinetic:       +881.994141
Potential:     -861.687180
External:        +0.000000
XC:            -5384.564021
Entropy (-ST):   -0.345792
Local:           +4.232955
--------------------------
Free energy:   -5360.369896
Extrapolated:  -5360.197000

Showing only first 2 kpts
 Kpt  Band  Eigenvalues  Occupancy
  0   307     -5.53186    1.99869
  0   308     -5.46967    1.99757
  0   309     -5.24413    1.97705
  0   310     -5.13443    1.93281

  1   307     -5.49561    1.99812
  1   308     -5.37579    1.99380
  1   309     -5.29816    1.98657
  1   310     -4.82576    1.13542


Fermi level: -4.79851

No gap

Forces in eV/Ang:
  0 Ag    0.00000    0.00000   -0.00920
  1 Ag   -0.00241   -0.00139    0.02912
  2 Ag   -0.00000    0.00177    0.00506
  3 Ag   -0.01991   -0.03562   -0.00350
  4 Ag    0.01277   -0.01240   -0.02651
  5 Ag    0.00000    0.02080    0.04456
  6 Ag   -0.00458   -0.00265    0.01205
  7 Ag   -0.04080    0.00056   -0.00350
  8 Ag   -0.00436    0.01726   -0.02651
  9 Ag    0.01801   -0.01040    0.04456
 10 Ag    0.00154   -0.00089    0.00506
 11 Ag   -0.00000    0.00000    0.00031
 12 Ag   -0.01712   -0.00485   -0.02651
 13 Ag    0.00000    0.04575   -0.00057
 14 Ag   -0.02110   -0.01218   -0.01648
 15 Ag    0.01991   -0.03562   -0.00350
 16 Ag   -0.01277   -0.01240   -0.02651
 17 Ag    0.03962   -0.02287   -0.00057
 18 Ag    0.00458   -0.00265    0.01205
 19 Ag    0.00000    0.00000   -0.07770
 20 Ag   -0.00000    0.00000   -0.00703
 21 Ag   -0.01801   -0.01040    0.04456
 22 Ag    0.00000    0.00529    0.01205
 23 Ag   -0.02089    0.03505   -0.00350
 24 Ag    0.01712   -0.00485   -0.02651
 25 Ag    0.00241   -0.00139    0.02912
 26 Ag    0.02110   -0.01218   -0.01648
 27 Ag   -0.00000    0.00000   -0.00218
 28 Ag   -0.00000    0.00000   -0.02604
 29 Ag   -0.03962   -0.02287   -0.00057
 30 Ag   -0.00000    0.02436   -0.01648
 31 Ag    0.04080    0.00056   -0.00350
 32 Ag    0.00436    0.01726   -0.02651
 33 Ag    0.00000    0.00278    0.02912
 34 Ag   -0.00154   -0.00089    0.00506
 35 Ag    0.02089    0.03505   -0.00350
 36 O     0.00000   -0.00000    0.02678
 37 H     0.00000    0.00000    0.02085

BFGS:    3 12:18:16    -5360.197000        0.0777
System changes: positions 

Initializing position-dependent things.

Density initialized from wave functions
                                                  
                                                  
                                                  
                                                  
                                                  
                                                  
                                                  
                           H                      
                           O                      
                  Ag     Ag     Ag                
                    Ag     Ag     Ag              
            Ag     Ag     Ag                      
              Ag     AAg    AAg     Ag            
                                                  
               AAg    AAg    AAg                  
                                                  
                 Ag     Ag     Ag                 
                                                  
           Ag     AAg    AAg     Ag               
                                                  
            Ag      Ag     Ag                     
              Ag      Ag     Ag                   
                                                  
                                                  
                                                  
                                                  

Positions:
   0 Ag    -0.000000    0.000000    9.999999    ( 0.0000,  0.0000,  0.0000)
   1 Ag     1.496122    0.863786   12.443156    ( 0.0000,  0.0000,  0.0000)
   2 Ag    -0.000000    1.722005   14.881146    ( 0.0000,  0.0000,  0.0000)
   3 Ag     2.986534   -0.007542   17.331142    ( 0.0000,  0.0000,  0.0000)
   4 Ag    -1.496122    2.591359    9.999999    ( 0.0000,  0.0000,  0.0000)
   5 Ag     0.000000    3.455145   12.443156    ( 0.0000,  0.0000,  0.0000)
   6 Ag    -1.491910    4.321364   14.882836    ( 0.0000,  0.0000,  0.0000)
   7 Ag     1.486736    2.590185   17.331142    ( 0.0000,  0.0000,  0.0000)
   8 Ag    -2.992244    5.182718    9.999999    ( 0.0000,  0.0000,  0.0000)
   9 Ag    -1.496122    6.046505   12.443156    ( 0.0000,  0.0000,  0.0000)
  10 Ag    -2.997066    6.913075   14.881146    ( 0.0000,  0.0000,  0.0000)
  11 Ag    -0.000000    5.182718   17.333299    ( 0.0000,  0.0000,  0.0000)
  12 Ag     2.992244    0.000000    9.999999    ( 0.0000,  0.0000,  0.0000)
  13 Ag     4.488366    0.863786   12.443156    ( 0.0000,  0.0000,  0.0000)
  14 Ag     2.999267    1.731628   14.882507    ( 0.0000,  0.0000,  0.0000)
  15 Ag     5.990197   -0.007542   17.331142    ( 0.0000,  0.0000,  0.0000)
  16 Ag     1.496122    2.591359    9.999999    ( 0.0000,  0.0000,  0.0000)
  17 Ag     2.992244    3.455145   12.443156    ( 0.0000,  0.0000,  0.0000)
  18 Ag     1.491910    4.321364   14.882836    ( 0.0000,  0.0000,  0.0000)
  19 Ag     4.488366    2.591359   17.241608    ( 0.0000,  0.0000,  0.0000)
  20 Ag     0.000000    5.182718    9.999999    ( 0.0000,  0.0000,  0.0000)
  21 Ag     1.496122    6.046505   12.443156    ( 0.0000,  0.0000,  0.0000)
  22 Ag     0.000000    6.905428   14.882836    ( 0.0000,  0.0000,  0.0000)
  23 Ag     2.988567    5.191434   17.331142    ( 0.0000,  0.0000,  0.0000)
  24 Ag     5.984488    0.000000    9.999999    ( 0.0000,  0.0000,  0.0000)
  25 Ag     7.480609    0.863786   12.443156    ( 0.0000,  0.0000,  0.0000)
  26 Ag     5.977464    1.731628   14.882507    ( 0.0000,  0.0000,  0.0000)
  27 Ag     8.976731   -0.000000   17.337278    ( 0.0000,  0.0000,  0.0000)
  28 Ag     4.488366    2.591359    9.999999    ( 0.0000,  0.0000,  0.0000)
  29 Ag     5.984488    3.455145   12.443156    ( 0.0000,  0.0000,  0.0000)
  30 Ag     4.488366    4.310822   14.882507    ( 0.0000,  0.0000,  0.0000)
  31 Ag     7.489996    2.590185   17.331142    ( 0.0000,  0.0000,  0.0000)
  32 Ag     2.992244    5.182718    9.999999    ( 0.0000,  0.0000,  0.0000)
  33 Ag     4.488366    6.046505   12.443156    ( 0.0000,  0.0000,  0.0000)
  34 Ag     2.997066    6.913075   14.881146    ( 0.0000,  0.0000,  0.0000)
  35 Ag     5.988164    5.191434   17.331142    ( 0.0000,  0.0000,  0.0000)
  36 O      4.488366    2.591359   19.370354    ( 0.0000,  0.0000,  0.0000)
  37 H      4.488366    2.591359   20.331545    ( 0.0000,  0.0000,  0.0000)

Unit cell:
           periodic     x           y           z      points  spacing
  1. axis:    yes    8.976731    0.000000    0.000000    44     0.1767
  2. axis:    yes   -4.488366    7.774077    0.000000    44     0.1767
  3. axis:    no     0.000000    0.000000   27.329469   152     0.1798

  Lengths:   8.976731   8.976731  27.329469
  Angles:   90.000000  90.000000 120.000000

Effective grid spacing dv^(1/3) = 0.1864

     iter     time        total  log10-change:
                         energy  eigst   dens
iter:   1 12:19:41 -5360.198790  -3.99
iter:   2 12:20:20 -5360.198157  -5.08  -3.85
iter:   3 12:20:59 -5360.197522c -5.32  -4.01c
iter:   4 12:21:38 -5360.197574c -6.48  -4.26c
iter:   5 12:22:17 -5360.197568c -6.51  -4.35c
iter:   6 12:22:56 -5360.197511c -6.54  -4.58c
iter:   7 12:23:34 -5360.197517c -7.10  -4.64c
iter:   8 12:24:13 -5360.197519c -7.50c -4.82c

Converged after 8 iterations.

Dipole moment: (-5.819967, -6.834960, -0.237695) |e|*Ang

Energy contributions relative to reference atoms: (reference = -5207575.091197)

Kinetic:       +881.893023
Potential:     -861.601301
External:        +0.000000
XC:            -5384.540970
Entropy (-ST):   -0.345852
Local:           +4.224655
--------------------------
Free energy:   -5360.370445
Extrapolated:  -5360.197519

Showing only first 2 kpts
 Kpt  Band  Eigenvalues  Occupancy
  0   307     -5.53447    1.99867
  0   308     -5.47257    1.99754
  0   309     -5.24733    1.97681
  0   310     -5.13865    1.93279

  1   307     -5.49878    1.99810
  1   308     -5.37919    1.99374
  1   309     -5.30189    1.98650
  1   310     -4.82926    1.13173


Fermi level: -4.80276

No gap

Forces in eV/Ang:
  0 Ag    0.00000    0.00000   -0.01357
  1 Ag   -0.00210   -0.00121    0.02901
  2 Ag   -0.00000    0.00112    0.00076
  3 Ag   -0.00977   -0.01695    0.00623
  4 Ag    0.01171   -0.01240   -0.03008
  5 Ag    0.00000    0.02133    0.04582
  6 Ag   -0.00203   -0.00117    0.00850
  7 Ag   -0.01956    0.00001    0.00623
  8 Ag   -0.00489    0.01634   -0.03008
  9 Ag    0.01848   -0.01067    0.04582
 10 Ag    0.00097   -0.00056    0.00076
 11 Ag   -0.00000    0.00000    0.00477
 12 Ag   -0.01659   -0.00394   -0.03008
 13 Ag    0.00000    0.04540   -0.00355
 14 Ag   -0.02571   -0.01484   -0.02010
 15 Ag    0.00977   -0.01695    0.00623
 16 Ag   -0.01171   -0.01240   -0.03008
 17 Ag    0.03932   -0.02270   -0.00355
 18 Ag    0.00203   -0.00117    0.00850
 19 Ag    0.00000   -0.00000    0.00342
 20 Ag   -0.00000    0.00000   -0.01108
 21 Ag   -0.01848   -0.01067    0.04582
 22 Ag    0.00000    0.00235    0.00850
 23 Ag   -0.00979    0.01694    0.00623
 24 Ag    0.01659   -0.00394   -0.03008
 25 Ag    0.00210   -0.00121    0.02901
 26 Ag    0.02571   -0.01484   -0.02010
 27 Ag    0.00000    0.00000    0.00227
 28 Ag   -0.00000    0.00000   -0.02798
 29 Ag   -0.03932   -0.02270   -0.00355
 30 Ag    0.00000    0.02969   -0.02010
 31 Ag    0.01956    0.00001    0.00623
 32 Ag    0.00489    0.01634   -0.03008
 33 Ag   -0.00000    0.00243    0.02901
 34 Ag   -0.00097   -0.00056    0.00076
 35 Ag    0.00979    0.01694    0.00623
 36 O     0.00000    0.00000    0.01511
 37 H     0.00000    0.00000   -0.02236

BFGS:    4 12:24:33    -5360.197519        0.0359
Timing:                                      incl.     excl.
-------------------------------------------------------------------
Density initialized from wave functions:     0.657     0.231   0.0% |
 Symmetrize density:                         0.426     0.426   0.0% |
Forces:                                     97.707    97.707   3.0% ||
Hamiltonian:                                20.116     0.001   0.0% |
 Atomic:                                     0.001     0.001   0.0% |
  XC Correction:                             0.000     0.000   0.0% |
 Calculate atomic Hamiltonians:              0.002     0.002   0.0% |
 Communicate:                                0.867     0.867   0.0% |
 Hartree integrate/restrict:                 0.017     0.017   0.0% |
 Initialize Hamiltonian:                     0.001     0.001   0.0% |
 Poisson:                                    0.345     0.011   0.0% |
  Communicate from 1D:                       0.057     0.057   0.0% |
  Communicate from 2D:                       0.055     0.055   0.0% |
  Communicate to 1D:                         0.052     0.052   0.0% |
  Communicate to 2D:                         0.065     0.065   0.0% |
  FFT 1D:                                    0.057     0.057   0.0% |
  FFT 2D:                                    0.048     0.048   0.0% |
 XC 3D grid:                                18.851     1.461   0.0% |
  VdW-DF integral:                          17.390     0.772   0.0% |
   Convolution:                              1.249     1.249   0.0% |
   FFT:                                      0.832     0.832   0.0% |
   gather:                                   4.355     4.355   0.1% |
   hmm1:                                     0.277     0.277   0.0% |
   hmm2:                                     0.563     0.563   0.0% |
   iFFT:                                     0.765     0.765   0.0% |
   potential:                                4.305     0.073   0.0% |
    collect:                                 0.333     0.333   0.0% |
    p1:                                      2.571     2.571   0.1% |
    p2:                                      0.861     0.861   0.0% |
    sum:                                     0.467     0.467   0.0% |
   splines:                                  4.271     4.271   0.1% |
 vbar:                                       0.032     0.032   0.0% |
LCAO initialization:                        24.885     1.674   0.1% |
 LCAO eigensolver:                          11.572     0.011   0.0% |
  Calculate projections:                     0.000     0.000   0.0% |
  DenseAtomicCorrection:                     0.000     0.000   0.0% |
  Distribute overlap matrix:                 8.958     8.958   0.3% |
  Orbital Layouts:                           2.063     2.063   0.1% |
  Potential matrix:                          0.028     0.028   0.0% |
  Sum over cells:                            0.512     0.512   0.0% |
 LCAO to grid:                              10.479    10.479   0.3% |
 Set positions (LCAO WFS):                   1.159     0.826   0.0% |
  Basic WFS set positions:                   0.007     0.007   0.0% |
  Basis functions set positions:             0.000     0.000   0.0% |
  P tci:                                     0.001     0.001   0.0% |
  ST tci:                                    0.218     0.218   0.0% |
  mktci:                                     0.106     0.106   0.0% |
Redistribute:                                0.003     0.003   0.0% |
SCF-cycle:                                2936.296    23.949   0.7% |
 Davidson:                                2651.076   677.631  20.9% |-------|
  Apply hamiltonian:                        62.279    62.279   1.9% ||
  Subspace diag:                           296.687     0.031   0.0% |
   calc_h_matrix:                          137.107    76.090   2.3% ||
    Apply hamiltonian:                      61.017    61.017   1.9% ||
   diagonalize:                             16.910    16.910   0.5% |
   rotate_psi:                             142.639   142.639   4.4% |-|
  calc. matrices:                         1187.252   534.233  16.5% |------|
   Apply hamiltonian:                      653.020   653.020  20.1% |-------|
  diagonalize:                             138.352   138.352   4.3% |-|
  rotate_psi:                              288.874   288.874   8.9% |---|
 Density:                                   11.513     0.002   0.0% |
  Atomic density matrices:                   0.573     0.573   0.0% |
  Mix:                                       0.394     0.394   0.0% |
  Multipole moments:                         0.014     0.014   0.0% |
  Pseudo density:                           10.529     3.257   0.1% |
   Symmetrize density:                       7.272     7.272   0.2% |
 Hamiltonian:                              221.540     0.009   0.0% |
  Atomic:                                    0.018     0.018   0.0% |
   XC Correction:                            0.000     0.000   0.0% |
  Calculate atomic Hamiltonians:             0.022     0.022   0.0% |
  Communicate:                              11.843    11.843   0.4% |
  Hartree integrate/restrict:                0.250     0.250   0.0% |
  Poisson:                                   4.858     0.135   0.0% |
   Communicate from 1D:                      0.782     0.782   0.0% |
   Communicate from 2D:                      0.766     0.766   0.0% |
   Communicate to 1D:                        0.755     0.755   0.0% |
   Communicate to 2D:                        0.911     0.911   0.0% |
   FFT 1D:                                   0.810     0.810   0.0% |
   FFT 2D:                                   0.700     0.700   0.0% |
  XC 3D grid:                              204.469    20.547   0.6% |
   VdW-DF integral:                        183.923    11.004   0.3% |
    Convolution:                            17.936    17.936   0.6% |
    FFT:                                    11.861    11.861   0.4% |
    gather:                                 59.503    59.503   1.8% ||
    hmm1:                                    3.969     3.969   0.1% |
    hmm2:                                    8.038     8.038   0.2% |
    iFFT:                                   10.869    10.869   0.3% |
    potential:                              60.742     1.070   0.0% |
     collect:                                4.529     4.529   0.1% |
     p1:                                    36.449    36.449   1.1% |
     p2:                                    12.298    12.298   0.4% |
     sum:                                    6.396     6.396   0.2% |
    splines:                                 0.000     0.000   0.0% |
  vbar:                                      0.071     0.071   0.0% |
 Orthonormalize:                            28.219     0.004   0.0% |
  calc_s_matrix:                             2.393     2.393   0.1% |
  inverse-cholesky:                         20.943    20.943   0.6% |
  projections:                               0.001     0.001   0.0% |
  rotate_psi_s:                              4.879     4.879   0.2% |
Set symmetry:                                0.003     0.003   0.0% |
Other:                                     166.828   166.828   5.1% |-|
-------------------------------------------------------------------
Total:                                              3246.495 100.0%

Memory usage: 1.59 GiB
Date: Tue Sep 26 12:24:33 2023
