
  ___ ___ ___ _ _ _  
 |   |   |_  | | | | 
 | | | | | . | | | | 
 |__ |  _|___|_____|  22.8.0
 |___|_|             

User:   s204775@c067.nifl.fysik.dtu.dk
Date:   Tue Sep 26 11:31:23 2023
Arch:   x86_64
Pid:    139357
CWD:    /home/cat/s204775/projects/Bachelor_project/OH_missing_features
Python: 3.10.4
gpaw:   /home/modules/software/GPAW/22.8.0-intel-2022a/lib/python3.10/site-packages/gpaw
_gpaw:  /home/modules/software/GPAW/22.8.0-intel-2022a/lib/python3.10/site-packages/
        _gpaw.cpython-310-x86_64-linux-gnu.so
ase:    /home/modules/software/ASE/3.22.1-intel-2022a/lib/python3.10/site-packages/ase (version 3.22.1)
numpy:  /home/modules/software/SciPy-bundle/2022.05-intel-2022a/lib/python3.10/site-packages/numpy (version 1.22.3)
scipy:  /home/modules/software/SciPy-bundle/2022.05-intel-2022a/lib/python3.10/site-packages/scipy (version 1.8.1)
libxc:  5.2.3
units:  Angstrom and eV
cores: 40
OpenMP: False
OMP_NUM_THREADS: 1

Input parameters:
  basis: dzp
  h: 0.18
  kpts: {size: (4, 4, 1)}
  xc: BEEF-vdW

System changes: positions, numbers, cell, pbc, initial_charges, initial_magmoms 

Initialize ...

species:
  Au:
    name: Gold
    id: b12133f335f6ca0d89c4b1ccaa844e9a
    Z: 79.0
    valence: 11
    core: 68
    charge: 0.0
    file: /home/modules/software/GPAW-setups/0.9.20000/Au.PBE.gz
    compensation charges: {type: gauss,
                           rc: 0.42,
                           lmax: 2}
    cutoffs: {filter: 2.33,
              core: 2.81}
    valence states:
      #              energy  rcut
      - 6s(1.00)    -5.728   1.323
      - 6p(0.00)    -0.775   1.323
      - 5d(10.00)    -6.891   1.323
      -  s          21.484   1.323
      -  p          26.436   1.323
      -  d          20.321   1.323
  
    # LCAO basis set for Au:
    #   Name: dzp
    #   File: /home/modules/software/GPAW-setups/0.9.20000/Au.dzp.basis.gz
    #   Number of radial functions: 5
    #   Number of spherical harmonics: 15
    #     l=0, rc=8.5938 Bohr: 6s-sz confined orbital
    #     l=2, rc=5.9219 Bohr: 5d-sz confined orbital
    #     l=0, rc=4.9844 Bohr: 6s-dz split-valence wave
    #     l=2, rc=3.5156 Bohr: 5d-dz split-valence wave
    #     l=1, rc=8.5938 Bohr: p-type Gaussian polarization
    #   Number of RI-basis functions 0

  O:
    name: Oxygen
    id: 32ecd46bf208036f09c70b0ec9a88b78
    Z: 8.0
    valence: 6
    core: 2
    charge: 0.0
    file: /home/modules/software/GPAW-setups/0.9.20000/O.PBE.gz
    compensation charges: {type: gauss,
                           rc: 0.21,
                           lmax: 2}
    cutoffs: {filter: 1.17,
              core: 0.83}
    valence states:
      #              energy  rcut
      - 2s(2.00)   -23.961   0.688
      - 2p(4.00)    -9.029   0.598
      -  s           3.251   0.688
      -  p          18.182   0.598
      -  d           0.000   0.619
  
    # LCAO basis set for O:
    #   Name: dzp
    #   File: /home/modules/software/GPAW-setups/0.9.20000/O.dzp.basis.gz
    #   Number of radial functions: 5
    #   Number of spherical harmonics: 13
    #     l=0, rc=4.3438 Bohr: 2s-sz confined orbital
    #     l=1, rc=5.3906 Bohr: 2p-sz confined orbital
    #     l=0, rc=2.2969 Bohr: 2s-dz split-valence wave
    #     l=1, rc=2.8906 Bohr: 2p-dz split-valence wave
    #     l=2, rc=5.3906 Bohr: d-type Gaussian polarization
    #   Number of RI-basis functions 0

  H:
    name: Hydrogen
    id: d65de229564ff8ea4db303e23b6d1ecf
    Z: 1.0
    valence: 1
    core: 0
    charge: 0.0
    file: /home/modules/software/GPAW-setups/0.9.20000/H.PBE.gz
    compensation charges: {type: gauss,
                           rc: 0.15,
                           lmax: 2}
    cutoffs: {filter: 0.85,
              core: 0.53}
    valence states:
      #              energy  rcut
      - 1s(1.00)    -6.494   0.476
      -  s          20.717   0.476
      -  p           0.000   0.476
  
    # LCAO basis set for H:
    #   Name: dzp
    #   File: /home/modules/software/GPAW-setups/0.9.20000/H.dzp.basis.gz
    #   Number of radial functions: 3
    #   Number of spherical harmonics: 5
    #     l=0, rc=6.4219 Bohr: 1s-sz confined orbital
    #     l=0, rc=3.6094 Bohr: 1s-dz split-valence wave
    #     l=1, rc=6.4219 Bohr: p-type Gaussian polarization
    #   Number of RI-basis functions 0

Reference energy: -18599591.102397  # eV

Spin-paired calculation

Convergence criteria:
 Maximum [total energy] change in last 3 cyles: 0.0005 eV / electron
 Maximum integral of absolute [dens]ity change: 0.0001 electrons / valence electron
 Maximum integral of absolute [eigenst]ate change: 4e-08 eV^2 / valence electron
 Maximum number of scf [iter]ations: 333
 (Square brackets indicate name in SCF output, whereas a 'c' in
 the SCF output indicates the quantity has converged.)

Symmetries present (total): 1

  ( 1  0  0)
  ( 0  1  0)
  ( 0  0  1)

16 k-points: 4 x 4 x 1 Monkhorst-Pack grid
8 k-points in the irreducible part of the Brillouin zone
       k-points in crystal coordinates                weights
   0:     0.12500000   -0.37500000    0.00000000          2/16
   1:     0.12500000   -0.12500000    0.00000000          2/16
   2:     0.12500000    0.12500000    0.00000000          2/16
   3:     0.12500000    0.37500000    0.00000000          2/16
   4:     0.37500000   -0.37500000    0.00000000          2/16
   5:     0.37500000   -0.12500000    0.00000000          2/16
   6:     0.37500000    0.12500000    0.00000000          2/16
   7:     0.37500000    0.37500000    0.00000000          2/16

Wave functions: Uniform real-space grid
  Kinetic energy operator: 8*3+1=25 point O(h^6) finite-difference Laplacian
  ScaLapack parameters: grid=1x1, blocksize=None
  Wavefunction extrapolation:
    Improved wavefunction reuse through dual PAW basis 

Occupation numbers: Fermi-Dirac:
  width: 0.1000  # eV
 

Eigensolver
   Davidson(niter=2) 

Densities:
  Coarse grid: 44*44*152 grid
  Fine grid: 88*88*304 grid
  Total Charge: 0.000000 

Density mixing:
  Method: separate
  Backend: pulay
  Linear mixing parameter: 0.05
  old densities: 5
  Damping of long wavelength oscillations: 50 

Hamiltonian:
  XC and Coulomb potentials evaluated on a 88*88*304 grid
  Using the BEEF-vdW Exchange-Correlation functional
  Interpolation: tri-quintic (5. degree polynomial)
  Poisson solver: FastPoissonSolver using
    Stencil: 8*3+1=25 point O(h^6) finite-difference Laplacian
    FFT axes: [0, 1]
    FST axes: [2]
 

XC parameters: BEEF-vdW with 2 nearest neighbor stencil

Memory estimate:
  Process memory now: 224.52 MiB
  Calculator: 533.69 MiB
    Density: 64.28 MiB
      Arrays: 11.52 MiB
      Localized functions: 48.33 MiB
      Mixer: 4.43 MiB
    Hamiltonian: 11.13 MiB
      Arrays: 7.53 MiB
      XC: 0.00 MiB
      Poisson: 0.00 MiB
      vbar: 3.60 MiB
    Wavefunctions: 458.28 MiB
      Arrays psit_nG: 218.01 MiB
      Eigensolver: 231.69 MiB
      Projections: 0.50 MiB
      Projectors: 8.08 MiB

Total number of cores used: 40
Parallelization over k-points: 8
Domain decomposition: 1 x 1 x 5

Number of atoms: 38
Number of atomic orbitals: 558
Number of bands in calculation: 246
Number of valence electrons: 403
Bands to converge: occupied

... initialized

Initializing position-dependent things.

Density initialized from atomic densities
Creating initial wave functions:
  246 bands from LCAO basis set

                                               
                                               
                                               
                                               
                                               
                                               
                                               
                    H                          
                    O                          
           Au     Au     Au                    
             Au     Au      Au                 
            Au     Au      Au                  
              AAu    AAu     AAu               
                                               
               AAu    AAu     AAu              
                                               
                 Au     Au      Au             
                                               
           Au     AAu    AAu      Au           
                                               
             Au     Au      Au                 
               Au     Au      Au               
                                               
                                               
                                               
                                               

Positions:
   0 Au     0.000000    0.000000    9.999999    ( 0.0000,  0.0000,  0.0000)
   1 Au     1.496891    0.864230   12.444412    ( 0.0000,  0.0000,  0.0000)
   2 Au    -0.000000    1.740301   14.871092    ( 0.0000,  0.0000,  0.0000)
   3 Au    -0.000000    0.000000   17.354004    ( 0.0000,  0.0000,  0.0000)
   4 Au    -1.496891    2.592691    9.999999    ( 0.0000,  0.0000,  0.0000)
   5 Au    -0.000000    3.456922   12.444412    ( 0.0000,  0.0000,  0.0000)
   6 Au    -1.501435    4.318529   14.890878    ( 0.0000,  0.0000,  0.0000)
   7 Au    -1.494007    2.589800   17.376551    ( 0.0000,  0.0000,  0.0000)
   8 Au    -2.993782    5.185383    9.999999    ( 0.0000,  0.0000,  0.0000)
   9 Au    -1.496891    6.049613   12.444412    ( 0.0000,  0.0000,  0.0000)
  10 Au    -2.983528    6.907923   14.871092    ( 0.0000,  0.0000,  0.0000)
  11 Au    -2.994844    5.189326   17.376551    ( 0.0000,  0.0000,  0.0000)
  12 Au     2.993782    0.000000    9.999999    ( 0.0000,  0.0000,  0.0000)
  13 Au     4.490673    0.864230   12.444412    ( 0.0000,  0.0000,  0.0000)
  14 Au     2.992384    1.727654   14.893737    ( 0.0000,  0.0000,  0.0000)
  15 Au     2.989836   -0.001052   17.376551    ( 0.0000,  0.0000,  0.0000)
  16 Au     1.496891    2.592691    9.999999    ( 0.0000,  0.0000,  0.0000)
  17 Au     2.993782    3.456922   12.444412    ( 0.0000,  0.0000,  0.0000)
  18 Au     1.501435    4.318529   14.890878    ( 0.0000,  0.0000,  0.0000)
  19 Au     1.494007    2.589800   17.376551    ( 0.0000,  0.0000,  0.0000)
  20 Au    -0.000000    5.185383    9.999999    ( 0.0000,  0.0000,  0.0000)
  21 Au     1.496891    6.049613   12.444412    ( 0.0000,  0.0000,  0.0000)
  22 Au    -0.000000    6.919091   14.890878    ( 0.0000,  0.0000,  0.0000)
  23 Au    -0.000000    5.185383   17.386406    ( 0.0000,  0.0000,  0.0000)
  24 Au     5.987564    0.000000    9.999999    ( 0.0000,  0.0000,  0.0000)
  25 Au     7.484455    0.864230   12.444412    ( 0.0000,  0.0000,  0.0000)
  26 Au     5.988962    1.727654   14.893737    ( 0.0000,  0.0000,  0.0000)
  27 Au     5.991510   -0.001052   17.376551    ( 0.0000,  0.0000,  0.0000)
  28 Au     4.490673    2.592691    9.999999    ( 0.0000,  0.0000,  0.0000)
  29 Au     5.987564    3.456922   12.444412    ( 0.0000,  0.0000,  0.0000)
  30 Au     4.490673    4.322767   14.893737    ( 0.0000,  0.0000,  0.0000)
  31 Au     4.490673    2.592691   17.388532    ( 0.0000,  0.0000,  0.0000)
  32 Au     2.993782    5.185383    9.999999    ( 0.0000,  0.0000,  0.0000)
  33 Au     4.490673    6.049613   12.444412    ( 0.0000,  0.0000,  0.0000)
  34 Au     2.983528    6.907923   14.871092    ( 0.0000,  0.0000,  0.0000)
  35 Au     2.994844    5.189326   17.376551    ( 0.0000,  0.0000,  0.0000)
  36 O      1.494007    2.589800   19.376551    ( 0.0000,  0.0000,  0.0000)
  37 H      1.494007    2.589800   20.336551    ( 0.0000,  0.0000,  0.0000)

Unit cell:
           periodic     x           y           z      points  spacing
  1. axis:    yes    8.981346    0.000000    0.000000    44     0.1768
  2. axis:    yes   -4.490673    7.778074    0.000000    44     0.1768
  3. axis:    no     0.000000    0.000000   27.333237   152     0.1798

  Lengths:   8.981346   8.981346  27.333237
  Angles:   90.000000  90.000000 120.000000

Effective grid spacing dv^(1/3) = 0.1865

     iter     time        total  log10-change:
                         energy  eigst   dens
iter:   1 11:32:16 -12057.700396
iter:   2 11:32:48 -12056.138606  -0.62  -1.30
iter:   3 11:33:20 -12052.788747  -0.95  -1.32
iter:   4 11:33:52 -12050.573326  -1.11  -1.40
iter:   5 11:34:24 -12051.084513  -1.63  -1.55
iter:   6 11:34:56 -12050.336437  -1.33  -1.55
iter:   7 11:35:28 -12050.387721  -1.96  -1.86
iter:   8 11:36:00 -12050.402732c -2.09  -2.03
iter:   9 11:36:32 -12050.281719c -2.40  -2.20
iter:  10 11:37:04 -12050.172849  -2.27  -2.40
iter:  11 11:37:36 -12050.173518c -2.85  -2.85
iter:  12 11:38:08 -12050.169856c -3.62  -2.90
iter:  13 11:38:39 -12050.168183c -3.75  -3.02
iter:  14 11:39:11 -12050.168096c -3.73  -3.15
iter:  15 11:39:43 -12050.168199c -4.38  -3.31
iter:  16 11:40:15 -12050.166938c -4.48  -3.34
iter:  17 11:40:47 -12050.167079c -4.92  -3.55
iter:  18 11:41:19 -12050.167022c -5.52  -3.69
iter:  19 11:41:51 -12050.166908c -5.41  -3.71
iter:  20 11:42:23 -12050.166750c -5.56  -3.79
iter:  21 11:42:54 -12050.166719c -5.77  -3.85
iter:  22 11:43:26 -12050.166757c -5.63  -4.02c
iter:  23 11:43:58 -12050.166777c -6.11  -4.30c
iter:  24 11:44:30 -12050.166744c -6.59  -4.37c
iter:  25 11:45:02 -12050.166750c -6.93  -4.43c
iter:  26 11:45:34 -12050.166771c -6.79  -4.50c
iter:  27 11:46:06 -12050.166771c -7.48c -4.78c

Converged after 27 iterations.

Dipole moment: (-4.137080, -7.134226, -0.056377) |e|*Ang

Energy contributions relative to reference atoms: (reference = -18599591.102397)

Kinetic:       +692.514437
Potential:     -696.814527
External:        +0.000000
XC:            -12050.457515
Entropy (-ST):   -0.413452
Local:           +4.797559
--------------------------
Free energy:   -12050.373497
Extrapolated:  -12050.166771

Showing only first 2 kpts
 Kpt  Band  Eigenvalues  Occupancy
  0   199     -5.77628    1.94631
  0   200     -5.61276    1.75202
  0   201     -5.49715    1.37957
  0   202     -5.36074    0.72480

  1   199     -6.19425    1.99916
  1   200     -6.10314    1.99790
  1   201     -5.94360    1.98970
  1   202     -5.77730    1.94684


Fermi level: -5.41724

No gap

Forces in eV/Ang:
  0 Au   -0.00048   -0.00428   -0.18126
  1 Au    0.00443   -0.00497    0.10463
  2 Au    0.09401    0.05000    0.14451
  3 Au   -0.09552   -0.18486   -0.06863
  4 Au    0.00536   -0.01152   -0.14554
  5 Au   -0.00374    0.01010    0.04916
  6 Au    0.01191   -0.00437    0.02102
  7 Au   -0.20661    0.00981   -0.05366
  8 Au   -0.00236    0.00611   -0.12530
  9 Au    0.00113   -0.00782    0.09742
 10 Au   -0.00412    0.01911    0.02619
 11 Au   -0.01102    0.00437    0.02909
 12 Au   -0.00432   -0.00850   -0.14415
 13 Au   -0.02995   -0.00258    0.15320
 14 Au   -0.09953    0.05856    0.14527
 15 Au    0.08103   -0.18350   -0.05179
 16 Au   -0.00463   -0.00839   -0.14990
 17 Au   -0.01014    0.02098    0.09420
 18 Au   -0.00249   -0.10818    0.14685
 19 Au    0.00318    0.00360   -1.92483
 20 Au    0.00405    0.00160   -0.09718
 21 Au   -0.00266   -0.04802    0.10689
 22 Au    0.00694    0.00080    0.00484
 23 Au   -0.11023    0.17312   -0.05462
 24 Au    0.01831   -0.00602   -0.09506
 25 Au    0.02988    0.02549    0.16436
 26 Au   -0.00085   -0.00680    0.00674
 27 Au    0.00276   -0.00231    0.01552
 28 Au    0.01025    0.00039   -0.09962
 29 Au    0.01797    0.01670    0.14375
 30 Au   -0.01656   -0.00849    0.02928
 31 Au    0.19920    0.02276   -0.05078
 32 Au    0.00797    0.01096   -0.14142
 33 Au    0.00295   -0.01436    0.15224
 34 Au   -0.00794    0.00521    0.00605
 35 Au    0.11257    0.17402   -0.06420
 36 O     0.00276    0.00160    1.80832
 37 H     0.00071    0.00223   -0.00608

      Step     Time          Energy         fmax
BFGS:    0 11:46:22   -12050.166771        1.9248
System changes: positions 

Initializing position-dependent things.

Density initialized from wave functions
                                               
                                               
                                               
                                               
                                               
                                               
                                               
                    H                          
                    O                          
           Au     Au     Au                    
             Au     Au      Au                 
            Au     Au      Au                  
              AAu    AAu     AAu               
                                               
               AAu    AAu     AAu              
                                               
                 Au     Au      Au             
                                               
           Au     AAu    AAu      Au           
                                               
             Au     Au      Au                 
               Au     Au      Au               
                                               
                                               
                                               
                                               

Positions:
   0 Au     0.000000    0.000000    9.999999    ( 0.0000,  0.0000,  0.0000)
   1 Au     1.496891    0.864230   12.444412    ( 0.0000,  0.0000,  0.0000)
   2 Au     0.001343    1.741016   14.873156    ( 0.0000,  0.0000,  0.0000)
   3 Au    -0.001365   -0.002641   17.353023    ( 0.0000,  0.0000,  0.0000)
   4 Au    -1.496891    2.592691    9.999999    ( 0.0000,  0.0000,  0.0000)
   5 Au    -0.000000    3.456922   12.444412    ( 0.0000,  0.0000,  0.0000)
   6 Au    -1.501265    4.318466   14.891178    ( 0.0000,  0.0000,  0.0000)
   7 Au    -1.496959    2.589940   17.375784    ( 0.0000,  0.0000,  0.0000)
   8 Au    -2.993782    5.185383    9.999999    ( 0.0000,  0.0000,  0.0000)
   9 Au    -1.496891    6.049613   12.444412    ( 0.0000,  0.0000,  0.0000)
  10 Au    -2.983587    6.908196   14.871466    ( 0.0000,  0.0000,  0.0000)
  11 Au    -2.995002    5.189389   17.376966    ( 0.0000,  0.0000,  0.0000)
  12 Au     2.993782    0.000000    9.999999    ( 0.0000,  0.0000,  0.0000)
  13 Au     4.490673    0.864230   12.444412    ( 0.0000,  0.0000,  0.0000)
  14 Au     2.990962    1.728490   14.895813    ( 0.0000,  0.0000,  0.0000)
  15 Au     2.990994   -0.003673   17.375811    ( 0.0000,  0.0000,  0.0000)
  16 Au     1.496891    2.592691    9.999999    ( 0.0000,  0.0000,  0.0000)
  17 Au     2.993782    3.456922   12.444412    ( 0.0000,  0.0000,  0.0000)
  18 Au     1.501400    4.316983   14.892976    ( 0.0000,  0.0000,  0.0000)
  19 Au     1.494053    2.589851   17.349053    ( 0.0000,  0.0000,  0.0000)
  20 Au    -0.000000    5.185383    9.999999    ( 0.0000,  0.0000,  0.0000)
  21 Au     1.496891    6.049613   12.444412    ( 0.0000,  0.0000,  0.0000)
  22 Au     0.000099    6.919102   14.890947    ( 0.0000,  0.0000,  0.0000)
  23 Au    -0.001575    5.187856   17.385626    ( 0.0000,  0.0000,  0.0000)
  24 Au     5.987564    0.000000    9.999999    ( 0.0000,  0.0000,  0.0000)
  25 Au     7.484455    0.864230   12.444412    ( 0.0000,  0.0000,  0.0000)
  26 Au     5.988950    1.727556   14.893834    ( 0.0000,  0.0000,  0.0000)
  27 Au     5.991550   -0.001085   17.376773    ( 0.0000,  0.0000,  0.0000)
  28 Au     4.490673    2.592691    9.999999    ( 0.0000,  0.0000,  0.0000)
  29 Au     5.987564    3.456922   12.444412    ( 0.0000,  0.0000,  0.0000)
  30 Au     4.490437    4.322646   14.894156    ( 0.0000,  0.0000,  0.0000)
  31 Au     4.493519    2.593017   17.387806    ( 0.0000,  0.0000,  0.0000)
  32 Au     2.993782    5.185383    9.999999    ( 0.0000,  0.0000,  0.0000)
  33 Au     4.490673    6.049613   12.444412    ( 0.0000,  0.0000,  0.0000)
  34 Au     2.983415    6.907998   14.871178    ( 0.0000,  0.0000,  0.0000)
  35 Au     2.996453    5.191812   17.375634    ( 0.0000,  0.0000,  0.0000)
  36 O      1.494047    2.589823   19.402384    ( 0.0000,  0.0000,  0.0000)
  37 H      1.494017    2.589832   20.336464    ( 0.0000,  0.0000,  0.0000)

Unit cell:
           periodic     x           y           z      points  spacing
  1. axis:    yes    8.981346    0.000000    0.000000    44     0.1768
  2. axis:    yes   -4.490673    7.778074    0.000000    44     0.1768
  3. axis:    no     0.000000    0.000000   27.333237   152     0.1798

  Lengths:   8.981346   8.981346  27.333237
  Angles:   90.000000  90.000000 120.000000

Effective grid spacing dv^(1/3) = 0.1865

     iter     time        total  log10-change:
                         energy  eigst   dens
iter:   1 11:47:27 -12050.258518  -2.25
iter:   2 11:47:59 -12050.245628  -3.23  -2.82
iter:   3 11:48:31 -12050.240675c -4.02  -3.15
iter:   4 11:49:04 -12050.237241c -3.15  -3.22
iter:   5 11:49:36 -12050.231618c -4.10  -3.25
iter:   6 11:50:08 -12050.231229c -4.57  -3.61
iter:   7 11:50:40 -12050.230948c -4.26  -3.78
iter:   8 11:51:13 -12050.230598c -5.11  -3.82
iter:   9 11:51:45 -12050.230555c -5.58  -3.98
iter:  10 11:52:17 -12050.230504c -5.32  -4.08c
iter:  11 11:52:49 -12050.230482c -5.74  -4.32c
iter:  12 11:53:21 -12050.230433c -6.22  -4.40c
iter:  13 11:53:54 -12050.230446c -6.34  -4.62c
iter:  14 11:54:26 -12050.230441c -6.86  -4.73c
iter:  15 11:54:58 -12050.230443c -7.21  -4.79c
iter:  16 11:55:30 -12050.230435c -7.50c -4.90c

Converged after 16 iterations.

Dipole moment: (-3.985858, -6.886045, -0.100252) |e|*Ang

Energy contributions relative to reference atoms: (reference = -18599591.102397)

Kinetic:       +693.142637
Potential:     -697.251303
External:        +0.000000
XC:            -12050.696829
Entropy (-ST):   -0.413778
Local:           +4.781949
--------------------------
Free energy:   -12050.437324
Extrapolated:  -12050.230435

Showing only first 2 kpts
 Kpt  Band  Eigenvalues  Occupancy
  0   199     -5.81058    1.94544
  0   200     -5.65324    1.76172
  0   201     -5.53413    1.38400
  0   202     -5.39829    0.73224

  1   199     -6.22797    1.99914
  1   200     -6.11894    1.99744
  1   201     -5.96597    1.98821
  1   202     -5.81427    1.94737


Fermi level: -5.45318

No gap

Forces in eV/Ang:
  0 Au   -0.00000   -0.00400   -0.17808
  1 Au    0.00446   -0.00248    0.10794
  2 Au    0.05965    0.02720    0.10562
  3 Au   -0.07531   -0.14670   -0.05598
  4 Au    0.00604   -0.01109   -0.14265
  5 Au   -0.00154    0.00866    0.05241
  6 Au    0.00655   -0.00181    0.01803
  7 Au   -0.18019    0.01180   -0.04373
  8 Au   -0.00225    0.00607   -0.12363
  9 Au    0.00093   -0.00787    0.09986
 10 Au   -0.00479    0.01360    0.02168
 11 Au   -0.00997    0.00369    0.02529
 12 Au   -0.00469   -0.00800   -0.14093
 13 Au   -0.03285   -0.00094    0.15894
 14 Au   -0.06704    0.03720    0.11288
 15 Au    0.07038   -0.15931   -0.04213
 16 Au   -0.00464   -0.00843   -0.14510
 17 Au   -0.01228    0.01979    0.09765
 18 Au    0.00078   -0.07119    0.11548
 19 Au   -0.00361   -0.00746   -1.07915
 20 Au    0.00398    0.00081   -0.09429
 21 Au   -0.00227   -0.05104    0.11268
 22 Au    0.00719    0.00197    0.00094
 23 Au   -0.09487    0.14745   -0.04495
 24 Au    0.01825   -0.00597   -0.09393
 25 Au    0.03280    0.02677    0.17033
 26 Au   -0.00121   -0.00755    0.00263
 27 Au    0.00160   -0.00177    0.01351
 28 Au    0.00961    0.00044   -0.09637
 29 Au    0.01797    0.01689    0.14624
 30 Au   -0.01154   -0.00564    0.02496
 31 Au    0.17019    0.02104   -0.04143
 32 Au    0.00799    0.01045   -0.13820
 33 Au    0.00286   -0.01436    0.15486
 34 Au   -0.00846    0.00504    0.00074
 35 Au    0.10150    0.15670   -0.05883
 36 O     0.00403    0.00959   -0.43074
 37 H     0.00060    0.00217    1.47933

BFGS:    1 11:55:47   -12050.230435        1.4793
System changes: positions 

Initializing position-dependent things.

Density initialized from wave functions
                                               
                                               
                                               
                                               
                                               
                                               
                                               
                    H                          
                    O                          
           Au     Au     Au                    
             Au     Au      Au                 
            Au     Au      Au                  
              AAu    AAu     AAu               
                                               
               AAu    AAu     AAu              
                                               
                 Au     Au      Au             
                                               
           Au     AAu    AAu      Au           
                                               
             Au     Au      Au                 
               Au     Au      Au               
                                               
                                               
                                               
                                               

Positions:
   0 Au     0.000000    0.000000    9.999999    ( 0.0000,  0.0000,  0.0000)
   1 Au     1.496891    0.864230   12.444412    ( 0.0000,  0.0000,  0.0000)
   2 Au     0.003459    1.742059   14.876664    ( 0.0000,  0.0000,  0.0000)
   3 Au    -0.003783   -0.007339   17.351251    ( 0.0000,  0.0000,  0.0000)
   4 Au    -1.496891    2.592691    9.999999    ( 0.0000,  0.0000,  0.0000)
   5 Au    -0.000000    3.456922   12.444412    ( 0.0000,  0.0000,  0.0000)
   6 Au    -1.501016    4.318385   14.891737    ( 0.0000,  0.0000,  0.0000)
   7 Au    -1.502506    2.590262   17.374399    ( 0.0000,  0.0000,  0.0000)
   8 Au    -2.993782    5.185383    9.999999    ( 0.0000,  0.0000,  0.0000)
   9 Au    -1.496891    6.049613   12.444412    ( 0.0000,  0.0000,  0.0000)
  10 Au    -2.983719    6.908653   14.872148    ( 0.0000,  0.0000,  0.0000)
  11 Au    -2.995304    5.189504   17.377746    ( 0.0000,  0.0000,  0.0000)
  12 Au     2.993782    0.000000    9.999999    ( 0.0000,  0.0000,  0.0000)
  13 Au     4.490673    0.864230   12.444412    ( 0.0000,  0.0000,  0.0000)
  14 Au     2.988650    1.729809   14.899461    ( 0.0000,  0.0000,  0.0000)
  15 Au     2.993164   -0.008587   17.374476    ( 0.0000,  0.0000,  0.0000)
  16 Au     1.496891    2.592691    9.999999    ( 0.0000,  0.0000,  0.0000)
  17 Au     2.993782    3.456922   12.444412    ( 0.0000,  0.0000,  0.0000)
  18 Au     1.501387    4.314501   14.896689    ( 0.0000,  0.0000,  0.0000)
  19 Au     1.494021    2.589754   17.308314    ( 0.0000,  0.0000,  0.0000)
  20 Au    -0.000000    5.185383    9.999999    ( 0.0000,  0.0000,  0.0000)
  21 Au     1.496891    6.049613   12.444412    ( 0.0000,  0.0000,  0.0000)
  22 Au     0.000306    6.919147   14.891017    ( 0.0000,  0.0000,  0.0000)
  23 Au    -0.004511    5.192440   17.384208    ( 0.0000,  0.0000,  0.0000)
  24 Au     5.987564    0.000000    9.999999    ( 0.0000,  0.0000,  0.0000)
  25 Au     7.484455    0.864230   12.444412    ( 0.0000,  0.0000,  0.0000)
  26 Au     5.988919    1.727344   14.893955    ( 0.0000,  0.0000,  0.0000)
  27 Au     5.991609   -0.001142   17.377189    ( 0.0000,  0.0000,  0.0000)
  28 Au     4.490673    2.592691    9.999999    ( 0.0000,  0.0000,  0.0000)
  29 Au     5.987564    3.456922   12.444412    ( 0.0000,  0.0000,  0.0000)
  30 Au     4.490045    4.322450   14.894931    ( 0.0000,  0.0000,  0.0000)
  31 Au     4.498803    2.593649   17.386495    ( 0.0000,  0.0000,  0.0000)
  32 Au     2.993782    5.185383    9.999999    ( 0.0000,  0.0000,  0.0000)
  33 Au     4.490673    6.049613   12.444412    ( 0.0000,  0.0000,  0.0000)
  34 Au     2.983174    6.908147   14.871258    ( 0.0000,  0.0000,  0.0000)
  35 Au     2.999536    5.196575   17.373858    ( 0.0000,  0.0000,  0.0000)
  36 O      1.494150    2.590015   19.414291    ( 0.0000,  0.0000,  0.0000)
  37 H      1.494036    2.589895   20.363398    ( 0.0000,  0.0000,  0.0000)

Unit cell:
           periodic     x           y           z      points  spacing
  1. axis:    yes    8.981346    0.000000    0.000000    44     0.1768
  2. axis:    yes   -4.490673    7.778074    0.000000    44     0.1768
  3. axis:    no     0.000000    0.000000   27.333237   152     0.1798

  Lengths:   8.981346   8.981346  27.333237
  Angles:   90.000000  90.000000 120.000000

Effective grid spacing dv^(1/3) = 0.1865

     iter     time        total  log10-change:
                         energy  eigst   dens
iter:   1 11:56:52 -12050.371400  -2.19
iter:   2 11:57:24 -12050.321330  -3.21  -2.80
iter:   3 11:57:56 -12050.294102c -3.15  -2.95
iter:   4 11:58:28 -12050.293603c -4.35  -3.17
iter:   5 11:59:01 -12050.291965c -4.45  -3.33
iter:   6 11:59:33 -12050.292224c -4.61  -3.52
iter:   7 12:00:05 -12050.291329c -4.84  -3.61
iter:   8 12:00:37 -12050.291350c -5.06  -3.73
iter:   9 12:01:10 -12050.291268c -5.26  -3.87
iter:  10 12:01:42 -12050.291161c -5.47  -4.12c
iter:  11 12:02:14 -12050.291199c -6.12  -4.20c
iter:  12 12:02:47 -12050.291192c -6.29  -4.23c
iter:  13 12:03:19 -12050.291176c -6.29  -4.31c
iter:  14 12:03:51 -12050.291176c -6.61  -4.37c
iter:  15 12:04:23 -12050.291196c -6.40  -4.51c
iter:  16 12:04:56 -12050.291187c -7.46c -4.83c

Converged after 16 iterations.

Dipole moment: (-3.730810, -6.454571, -0.124756) |e|*Ang

Energy contributions relative to reference atoms: (reference = -18599591.102397)

Kinetic:       +691.915015
Potential:     -696.339856
External:        +0.000000
XC:            -12050.428385
Entropy (-ST):   -0.414730
Local:           +4.769403
--------------------------
Free energy:   -12050.498552
Extrapolated:  -12050.291187

Showing only first 2 kpts
 Kpt  Band  Eigenvalues  Occupancy
  0   199     -5.83034    1.94535
  0   200     -5.67921    1.77411
  0   201     -5.55367    1.38235
  0   202     -5.42020    0.74146

  1   199     -6.24762    1.99913
  1   200     -6.11608    1.99678
  1   201     -5.96762    1.98587
  1   202     -5.83102    1.94572


Fermi level: -5.47311

No gap

Forces in eV/Ang:
  0 Au   -0.00058   -0.00494   -0.17666
  1 Au    0.00444   -0.00152    0.11300
  2 Au    0.01044   -0.00738    0.04258
  3 Au   -0.04598   -0.09117   -0.03496
  4 Au    0.00508   -0.01072   -0.14154
  5 Au   -0.00077    0.00799    0.05766
  6 Au    0.00195   -0.00012    0.01086
  7 Au   -0.14364    0.01712   -0.02689
  8 Au   -0.00205    0.00596   -0.12299
  9 Au    0.00034   -0.00824    0.10145
 10 Au   -0.00563    0.00873    0.01234
 11 Au   -0.00832    0.00267    0.02953
 12 Au   -0.00386   -0.00872   -0.13967
 13 Au   -0.03444   -0.00002    0.16536
 14 Au   -0.01952    0.00381    0.05770
 15 Au    0.05694   -0.12477   -0.02532
 16 Au   -0.00478   -0.00837   -0.14395
 17 Au   -0.01315    0.01947    0.10302
 18 Au    0.00598   -0.01771    0.06330
 19 Au    0.00453    0.01660   -0.43928
 20 Au    0.00317    0.00145   -0.09319
 21 Au   -0.00192   -0.05282    0.11883
 22 Au    0.00707    0.00341   -0.00912
 23 Au   -0.07426    0.11182   -0.02904
 24 Au    0.01808   -0.00586   -0.09425
 25 Au    0.03452    0.02757    0.17666
 26 Au   -0.00173   -0.00819   -0.00777
 27 Au   -0.00006   -0.00097    0.02074
 28 Au    0.01065    0.00009   -0.09511
 29 Au    0.01807    0.01753    0.14787
 30 Au   -0.00676   -0.00319    0.01579
 31 Au    0.12954    0.01808   -0.02461
 32 Au    0.00853    0.01142   -0.13673
 33 Au    0.00308   -0.01460    0.15648
 34 Au   -0.00920    0.00450   -0.01132
 35 Au    0.08536    0.13113   -0.04875
 36 O    -0.00109    0.00518   -0.19230
 37 H     0.00147    0.00240    0.63253

BFGS:    2 12:05:12   -12050.291187        0.6325
System changes: positions 

Initializing position-dependent things.

Density initialized from wave functions
                                               
                                               
                                               
                                               
                                               
                                               
                                               
                    H                          
                    O                          
           Au     Au      Au                   
             Au     Au      Au                 
            Au     Au      Au                  
              AAu    AAu     AAu               
                                               
               AAu    AAu     AAu              
                                               
                 Au     Au      Au             
                                               
           Au     AAu    AAu      Au           
                                               
             Au     Au      Au                 
               Au     Au      Au               
                                               
                                               
                                               
                                               

Positions:
   0 Au     0.000000    0.000000    9.999999    ( 0.0000,  0.0000,  0.0000)
   1 Au     1.496891    0.864230   12.444412    ( 0.0000,  0.0000,  0.0000)
   2 Au     0.004745    1.742398   14.879364    ( 0.0000,  0.0000,  0.0000)
   3 Au    -0.006041   -0.011767   17.349574    ( 0.0000,  0.0000,  0.0000)
   4 Au    -1.496891    2.592691    9.999999    ( 0.0000,  0.0000,  0.0000)
   5 Au    -0.000000    3.456922   12.444412    ( 0.0000,  0.0000,  0.0000)
   6 Au    -1.500840    4.318338   14.892258    ( 0.0000,  0.0000,  0.0000)
   7 Au    -1.508574    2.590824   17.373099    ( 0.0000,  0.0000,  0.0000)
   8 Au    -2.993782    5.185383    9.999999    ( 0.0000,  0.0000,  0.0000)
   9 Au    -1.496891    6.049613   12.444412    ( 0.0000,  0.0000,  0.0000)
  10 Au    -2.983915    6.909088   14.872764    ( 0.0000,  0.0000,  0.0000)
  11 Au    -2.995646    5.189622   17.378837    ( 0.0000,  0.0000,  0.0000)
  12 Au     2.993782    0.000000    9.999999    ( 0.0000,  0.0000,  0.0000)
  13 Au     4.490673    0.864230   12.444412    ( 0.0000,  0.0000,  0.0000)
  14 Au     2.987060    1.730542   14.902577    ( 0.0000,  0.0000,  0.0000)
  15 Au     2.995558   -0.013902   17.373237    ( 0.0000,  0.0000,  0.0000)
  16 Au     1.496891    2.592691    9.999999    ( 0.0000,  0.0000,  0.0000)
  17 Au     2.993782    3.456922   12.444412    ( 0.0000,  0.0000,  0.0000)
  18 Au     1.501520    4.312867   14.899970    ( 0.0000,  0.0000,  0.0000)
  19 Au     1.494152    2.590184   17.276709    ( 0.0000,  0.0000,  0.0000)
  20 Au    -0.000000    5.185383    9.999999    ( 0.0000,  0.0000,  0.0000)
  21 Au     1.496891    6.049613   12.444412    ( 0.0000,  0.0000,  0.0000)
  22 Au     0.000571    6.919248   14.890830    ( 0.0000,  0.0000,  0.0000)
  23 Au    -0.007684    5.197294   17.382841    ( 0.0000,  0.0000,  0.0000)
  24 Au     5.987564    0.000000    9.999999    ( 0.0000,  0.0000,  0.0000)
  25 Au     7.484455    0.864230   12.444412    ( 0.0000,  0.0000,  0.0000)
  26 Au     5.988863    1.727051   14.893825    ( 0.0000,  0.0000,  0.0000)
  27 Au     5.991637   -0.001193   17.377898    ( 0.0000,  0.0000,  0.0000)
  28 Au     4.490673    2.592691    9.999999    ( 0.0000,  0.0000,  0.0000)
  29 Au     5.987564    3.456922   12.444412    ( 0.0000,  0.0000,  0.0000)
  30 Au     4.489689    4.322275   14.895673    ( 0.0000,  0.0000,  0.0000)
  31 Au     4.504413    2.594379   17.385286    ( 0.0000,  0.0000,  0.0000)
  32 Au     2.993782    5.185383    9.999999    ( 0.0000,  0.0000,  0.0000)
  33 Au     4.490673    6.049613   12.444412    ( 0.0000,  0.0000,  0.0000)
  34 Au     2.982842    6.908324   14.871025    ( 0.0000,  0.0000,  0.0000)
  35 Au     3.003034    5.201960   17.371859    ( 0.0000,  0.0000,  0.0000)
  36 O      1.494160    2.590193   19.423718    ( 0.0000,  0.0000,  0.0000)
  37 H      1.494082    2.589983   20.384429    ( 0.0000,  0.0000,  0.0000)

Unit cell:
           periodic     x           y           z      points  spacing
  1. axis:    yes    8.981346    0.000000    0.000000    44     0.1768
  2. axis:    yes   -4.490673    7.778074    0.000000    44     0.1768
  3. axis:    no     0.000000    0.000000   27.333237   152     0.1798

  Lengths:   8.981346   8.981346  27.333237
  Angles:   90.000000  90.000000 120.000000

Effective grid spacing dv^(1/3) = 0.1865

     iter     time        total  log10-change:
                         energy  eigst   dens
iter:   1 12:06:17 -12050.358433  -2.40
iter:   2 12:06:49 -12050.325606  -3.41  -2.91
iter:   3 12:07:22 -12050.309534c -3.45  -3.06
iter:   4 12:07:54 -12050.309880c -4.63  -3.31
iter:   5 12:08:26 -12050.308645c -4.56  -3.44
iter:   6 12:08:59 -12050.308982c -4.75  -3.65
iter:   7 12:09:31 -12050.308387c -5.11  -3.72
iter:   8 12:10:04 -12050.308447c -5.47  -3.83
iter:   9 12:10:36 -12050.308456c -5.41  -3.96
iter:  10 12:11:09 -12050.308317c -5.76  -4.22c
iter:  11 12:11:41 -12050.308337c -6.43  -4.29c
iter:  12 12:12:14 -12050.308326c -6.42  -4.33c
iter:  13 12:12:46 -12050.308328c -6.53  -4.44c
iter:  14 12:13:19 -12050.308326c -6.74  -4.59c
iter:  15 12:13:51 -12050.308331c -7.02  -4.73c
iter:  16 12:14:23 -12050.308337c -7.85c -4.91c

Converged after 16 iterations.

Dipole moment: (-3.493041, -6.019832, -0.142491) |e|*Ang

Energy contributions relative to reference atoms: (reference = -18599591.102397)

Kinetic:       +691.540032
Potential:     -696.137341
External:        +0.000000
XC:            -12050.264670
Entropy (-ST):   -0.415697
Local:           +4.761490
--------------------------
Free energy:   -12050.516185
Extrapolated:  -12050.308337

Showing only first 2 kpts
 Kpt  Band  Eigenvalues  Occupancy
  0   199     -5.84509    1.94535
  0   200     -5.69871    1.78344
  0   201     -5.56766    1.37907
  0   202     -5.43667    0.74944

  1   199     -6.26246    1.99914
  1   200     -6.11478    1.99622
  1   201     -5.96805    1.98371
  1   202     -5.84187    1.94361


Fermi level: -5.48787

No gap

Forces in eV/Ang:
  0 Au   -0.00091   -0.00558   -0.17668
  1 Au    0.00455    0.00051    0.11705
  2 Au   -0.03284   -0.03629   -0.01099
  3 Au   -0.01958   -0.03945   -0.01644
  4 Au    0.00448   -0.01036   -0.14200
  5 Au    0.00126    0.00689    0.06264
  6 Au   -0.00246    0.00151    0.00431
  7 Au   -0.10324    0.02372   -0.01050
  8 Au   -0.00194    0.00589   -0.12432
  9 Au   -0.00008   -0.00845    0.10312
 10 Au   -0.00606    0.00308    0.00423
 11 Au   -0.00631    0.00193    0.02920
 12 Au   -0.00333   -0.00913   -0.13995
 13 Au   -0.03759    0.00181    0.17031
 14 Au    0.02461   -0.02700    0.00481
 15 Au    0.04264   -0.08577   -0.00810
 16 Au   -0.00487   -0.00832   -0.14317
 17 Au   -0.01505    0.01866    0.10789
 18 Au    0.00957    0.03095    0.01285
 19 Au    0.00032    0.01851   -0.01400
 20 Au    0.00257    0.00179   -0.09363
 21 Au   -0.00159   -0.05658    0.12354
 22 Au    0.00696    0.00414   -0.01701
 23 Au   -0.05447    0.07647   -0.01574
 24 Au    0.01791   -0.00577   -0.09686
 25 Au    0.03751    0.02907    0.18100
 26 Au   -0.00243   -0.00860   -0.01587
 27 Au   -0.00166    0.00011    0.02247
 28 Au    0.01128   -0.00018   -0.09540
 29 Au    0.01802    0.01797    0.14959
 30 Au   -0.00135   -0.00078    0.00688
 31 Au    0.08819    0.01367   -0.00956
 32 Au    0.00892    0.01205   -0.13669
 33 Au    0.00313   -0.01488    0.15795
 34 Au   -0.01043    0.00373   -0.02034
 35 Au    0.06431    0.09900   -0.03718
 36 O    -0.00376    0.00279    0.05983
 37 H     0.00479    0.00809    0.04656

BFGS:    3 12:14:40   -12050.308337        0.1238
System changes: positions 

Initializing position-dependent things.

Density initialized from wave functions
                                               
                                               
                                               
                                               
                                               
                                               
                                               
                    H                          
                    O                          
           Au     Au      Au                   
             Au     Au      Au                 
            Au     Au      Au                  
              AAu    AAu     AAu               
                                               
               AAu    AAu     AAu              
                                               
                 Au     Au      Au             
                                               
           Au     AAu    AAu      Au           
                                               
             Au     Au      Au                 
               Au     Au      Au               
                                               
                                               
                                               
                                               

Positions:
   0 Au     0.000000    0.000000    9.999999    ( 0.0000,  0.0000,  0.0000)
   1 Au     1.496891    0.864230   12.444412    ( 0.0000,  0.0000,  0.0000)
   2 Au     0.004462    1.741880   14.879702    ( 0.0000,  0.0000,  0.0000)
   3 Au    -0.006784   -0.013240   17.348991    ( 0.0000,  0.0000,  0.0000)
   4 Au    -1.496891    2.592691    9.999999    ( 0.0000,  0.0000,  0.0000)
   5 Au    -0.000000    3.456922   12.444412    ( 0.0000,  0.0000,  0.0000)
   6 Au    -1.500846    4.318353   14.892425    ( 0.0000,  0.0000,  0.0000)
   7 Au    -1.511378    2.591315   17.372685    ( 0.0000,  0.0000,  0.0000)
   8 Au    -2.993782    5.185383    9.999999    ( 0.0000,  0.0000,  0.0000)
   9 Au    -1.496891    6.049613   12.444412    ( 0.0000,  0.0000,  0.0000)
  10 Au    -2.984049    6.909219   14.872948    ( 0.0000,  0.0000,  0.0000)
  11 Au    -2.995812    5.189676   17.379511    ( 0.0000,  0.0000,  0.0000)
  12 Au     2.993782    0.000000    9.999999    ( 0.0000,  0.0000,  0.0000)
  13 Au     4.490673    0.864230   12.444412    ( 0.0000,  0.0000,  0.0000)
  14 Au     2.987156    1.730245   14.903241    ( 0.0000,  0.0000,  0.0000)
  15 Au     2.996696   -0.016282   17.372875    ( 0.0000,  0.0000,  0.0000)
  16 Au     1.496891    2.592691    9.999999    ( 0.0000,  0.0000,  0.0000)
  17 Au     2.993782    3.456922   12.444412    ( 0.0000,  0.0000,  0.0000)
  18 Au     1.501699    4.313056   14.900795    ( 0.0000,  0.0000,  0.0000)
  19 Au     1.494172    2.590546   17.270242    ( 0.0000,  0.0000,  0.0000)
  20 Au    -0.000000    5.185383    9.999999    ( 0.0000,  0.0000,  0.0000)
  21 Au     1.496891    6.049613   12.444412    ( 0.0000,  0.0000,  0.0000)
  22 Au     0.000733    6.919333   14.890522    ( 0.0000,  0.0000,  0.0000)
  23 Au    -0.009161    5.199443   17.382327    ( 0.0000,  0.0000,  0.0000)
  24 Au     5.987564    0.000000    9.999999    ( 0.0000,  0.0000,  0.0000)
  25 Au     7.484455    0.864230   12.444412    ( 0.0000,  0.0000,  0.0000)
  26 Au     5.988813    1.726857   14.893545    ( 0.0000,  0.0000,  0.0000)
  27 Au     5.991616   -0.001200   17.378390    ( 0.0000,  0.0000,  0.0000)
  28 Au     4.490673    2.592691    9.999999    ( 0.0000,  0.0000,  0.0000)
  29 Au     5.987564    3.456922   12.444412    ( 0.0000,  0.0000,  0.0000)
  30 Au     4.489601    4.322230   14.895923    ( 0.0000,  0.0000,  0.0000)
  31 Au     4.506891    2.594736   17.384903    ( 0.0000,  0.0000,  0.0000)
  32 Au     2.993782    5.185383    9.999999    ( 0.0000,  0.0000,  0.0000)
  33 Au     4.490673    6.049613   12.444412    ( 0.0000,  0.0000,  0.0000)
  34 Au     2.982610    6.908417   14.870655    ( 0.0000,  0.0000,  0.0000)
  35 Au     3.004725    5.204565   17.370884    ( 0.0000,  0.0000,  0.0000)
  36 O      1.494103    2.590272   19.426969    ( 0.0000,  0.0000,  0.0000)
  37 H      1.494171    2.590137   20.388972    ( 0.0000,  0.0000,  0.0000)

Unit cell:
           periodic     x           y           z      points  spacing
  1. axis:    yes    8.981346    0.000000    0.000000    44     0.1768
  2. axis:    yes   -4.490673    7.778074    0.000000    44     0.1768
  3. axis:    no     0.000000    0.000000   27.333237   152     0.1798

  Lengths:   8.981346   8.981346  27.333237
  Angles:   90.000000  90.000000 120.000000

Effective grid spacing dv^(1/3) = 0.1865

     iter     time        total  log10-change:
                         energy  eigst   dens
iter:   1 12:15:45 -12050.313768  -3.58
iter:   2 12:16:17 -12050.311059  -4.59  -3.49
iter:   3 12:16:50 -12050.309991c -4.94  -3.68
iter:   4 12:17:22 -12050.309767c -5.49  -3.91
iter:   5 12:17:54 -12050.309822c -5.51  -4.06c
iter:   6 12:18:27 -12050.309632c -5.76  -4.24c
iter:   7 12:18:59 -12050.309740c -6.48  -4.32c
iter:   8 12:19:31 -12050.309758c -6.82  -4.46c
iter:   9 12:20:04 -12050.309729c -6.64  -4.54c
iter:  10 12:20:36 -12050.309724c -7.27  -4.86c
iter:  11 12:21:08 -12050.309734c -7.25  -4.94c
iter:  12 12:21:41 -12050.309723c -7.95c -5.18c

Converged after 12 iterations.

Dipole moment: (-3.416551, -5.849440, -0.147245) |e|*Ang

Energy contributions relative to reference atoms: (reference = -18599591.102397)

Kinetic:       +691.576023
Potential:     -696.191027
External:        +0.000000
XC:            -12050.248409
Entropy (-ST):   -0.415985
Local:           +4.761682
--------------------------
Free energy:   -12050.517716
Extrapolated:  -12050.309723

Showing only first 2 kpts
 Kpt  Band  Eigenvalues  Occupancy
  0   199     -5.84917    1.94539
  0   200     -5.70400    1.78592
  0   201     -5.57127    1.37738
  0   202     -5.44099    0.75095

  1   199     -6.26664    1.99914
  1   200     -6.11501    1.99607
  1   201     -5.96869    1.98315
  1   202     -5.84454    1.94288


Fermi level: -5.49187

No gap

Forces in eV/Ang:
  0 Au   -0.00115   -0.00603   -0.17712
  1 Au    0.00477    0.00261    0.11975
  2 Au   -0.03764   -0.03792   -0.01924
  3 Au   -0.00998   -0.02066   -0.01292
  4 Au    0.00378   -0.01014   -0.14266
  5 Au    0.00333    0.00595    0.06626
  6 Au   -0.00178    0.00086    0.00269
  7 Au   -0.08495    0.02731   -0.00674
  8 Au   -0.00175    0.00577   -0.12554
  9 Au   -0.00013   -0.00849    0.10329
 10 Au   -0.00590    0.00264    0.00259
 11 Au   -0.00547    0.00200    0.02699
 12 Au   -0.00287   -0.00965   -0.14053
 13 Au   -0.03957    0.00298    0.17063
 14 Au    0.03008   -0.02997   -0.00584
 15 Au    0.03603   -0.06849   -0.00386
 16 Au   -0.00487   -0.00830   -0.14309
 17 Au   -0.01696    0.01763    0.11139
 18 Au    0.00959    0.03623    0.00121
 19 Au    0.00099    0.02071    0.07193
 20 Au    0.00209    0.00231   -0.09434
 21 Au   -0.00164   -0.05908    0.12389
 22 Au    0.00633    0.00352   -0.01827
 23 Au   -0.04619    0.06127   -0.01430
 24 Au    0.01773   -0.00569   -0.09820
 25 Au    0.03917    0.03010    0.18079
 26 Au   -0.00283   -0.00798   -0.01704
 27 Au   -0.00218    0.00073    0.02034
 28 Au    0.01196   -0.00030   -0.09605
 29 Au    0.01797    0.01802    0.14977
 30 Au   -0.00100   -0.00110    0.00426
 31 Au    0.07000    0.01163   -0.00752
 32 Au    0.00916    0.01249   -0.13724
 33 Au    0.00314   -0.01505    0.15803
 34 Au   -0.01064    0.00291   -0.02124
 35 Au    0.05393    0.08287   -0.03467
 36 O    -0.00231    0.00500    0.04500
 37 H     0.00488    0.00858   -0.01198

BFGS:    4 12:21:57   -12050.309723        0.1048
System changes: positions 

Initializing position-dependent things.

Density initialized from wave functions
                                               
                                               
                                               
                                               
                                               
                                               
                                               
                    H                          
                    O                          
           Au     Au      Au                   
             Au     Au      Au                 
            Au     Au      Au                  
              AAu    AAu     AAu               
                                               
               AAu    AAu     AAu              
                                               
                 Au     Au      Au             
                                               
           Au     AAu    AAu      Au           
                                               
             Au     Au      Au                 
               Au     Au      Au               
                                               
                                               
                                               
                                               

Positions:
   0 Au     0.000000    0.000000    9.999999    ( 0.0000,  0.0000,  0.0000)
   1 Au     1.496891    0.864230   12.444412    ( 0.0000,  0.0000,  0.0000)
   2 Au     0.003403    1.740632   14.879546    ( 0.0000,  0.0000,  0.0000)
   3 Au    -0.007583   -0.014842   17.348237    ( 0.0000,  0.0000,  0.0000)
   4 Au    -1.496891    2.592691    9.999999    ( 0.0000,  0.0000,  0.0000)
   5 Au    -0.000000    3.456922   12.444412    ( 0.0000,  0.0000,  0.0000)
   6 Au    -1.500886    4.318381   14.892618    ( 0.0000,  0.0000,  0.0000)
   7 Au    -1.515475    2.592326   17.372208    ( 0.0000,  0.0000,  0.0000)
   8 Au    -2.993782    5.185383    9.999999    ( 0.0000,  0.0000,  0.0000)
   9 Au    -1.496891    6.049613   12.444412    ( 0.0000,  0.0000,  0.0000)
  10 Au    -2.984287    6.909385   14.873153    ( 0.0000,  0.0000,  0.0000)
  11 Au    -2.996065    5.189764   17.380643    ( 0.0000,  0.0000,  0.0000)
  12 Au     2.993782    0.000000    9.999999    ( 0.0000,  0.0000,  0.0000)
  13 Au     4.490673    0.864230   12.444412    ( 0.0000,  0.0000,  0.0000)
  14 Au     2.987898    1.729347   14.903635    ( 0.0000,  0.0000,  0.0000)
  15 Au     2.998395   -0.019674   17.372504    ( 0.0000,  0.0000,  0.0000)
  16 Au     1.496891    2.592691    9.999999    ( 0.0000,  0.0000,  0.0000)
  17 Au     2.993782    3.456922   12.444412    ( 0.0000,  0.0000,  0.0000)
  18 Au     1.502053    4.314006   14.901469    ( 0.0000,  0.0000,  0.0000)
  19 Au     1.494212    2.591300   17.266734    ( 0.0000,  0.0000,  0.0000)
  20 Au    -0.000000    5.185383    9.999999    ( 0.0000,  0.0000,  0.0000)
  21 Au     1.496891    6.049613   12.444412    ( 0.0000,  0.0000,  0.0000)
  22 Au     0.001002    6.919477   14.889867    ( 0.0000,  0.0000,  0.0000)
  23 Au    -0.011356    5.202494   17.381594    ( 0.0000,  0.0000,  0.0000)
  24 Au     5.987564    0.000000    9.999999    ( 0.0000,  0.0000,  0.0000)
  25 Au     7.484455    0.864230   12.444412    ( 0.0000,  0.0000,  0.0000)
  26 Au     5.988709    1.726527   14.892942    ( 0.0000,  0.0000,  0.0000)
  27 Au     5.991549   -0.001188   17.379228    ( 0.0000,  0.0000,  0.0000)
  28 Au     4.490673    2.592691    9.999999    ( 0.0000,  0.0000,  0.0000)
  29 Au     5.987564    3.456922   12.444412    ( 0.0000,  0.0000,  0.0000)
  30 Au     4.489507    4.322166   14.896214    ( 0.0000,  0.0000,  0.0000)
  31 Au     4.510395    2.595275   17.384427    ( 0.0000,  0.0000,  0.0000)
  32 Au     2.993782    5.185383    9.999999    ( 0.0000,  0.0000,  0.0000)
  33 Au     4.490673    6.049613   12.444412    ( 0.0000,  0.0000,  0.0000)
  34 Au     2.982187    6.908554   14.869887    ( 0.0000,  0.0000,  0.0000)
  35 Au     3.007256    5.208458   17.369332    ( 0.0000,  0.0000,  0.0000)
  36 O      1.494013    2.590457   19.430208    ( 0.0000,  0.0000,  0.0000)
  37 H      1.494349    2.590450   20.392651    ( 0.0000,  0.0000,  0.0000)

Unit cell:
           periodic     x           y           z      points  spacing
  1. axis:    yes    8.981346    0.000000    0.000000    44     0.1768
  2. axis:    yes   -4.490673    7.778074    0.000000    44     0.1768
  3. axis:    no     0.000000    0.000000   27.333237   152     0.1798

  Lengths:   8.981346   8.981346  27.333237
  Angles:   90.000000  90.000000 120.000000

Effective grid spacing dv^(1/3) = 0.1865

     iter     time        total  log10-change:
                         energy  eigst   dens
iter:   1 12:23:02 -12050.315144  -3.55
iter:   2 12:23:34 -12050.312686  -4.60  -3.44
iter:   3 12:24:07 -12050.311527c -4.96  -3.59
iter:   4 12:24:39 -12050.311085c -5.13  -3.81
iter:   5 12:25:11 -12050.311170c -5.36  -4.02c
iter:   6 12:25:44 -12050.311017c -5.79  -4.21c
iter:   7 12:26:16 -12050.311122c -6.43  -4.30c
iter:   8 12:26:49 -12050.311144c -6.71  -4.40c
iter:   9 12:27:21 -12050.311099c -6.77  -4.51c
iter:  10 12:27:53 -12050.311119c -7.14  -4.76c
iter:  11 12:28:26 -12050.311102c -7.56c -4.93c

Converged after 11 iterations.

Dipole moment: (-3.335235, -5.631539, -0.151353) |e|*Ang

Energy contributions relative to reference atoms: (reference = -18599591.102397)

Kinetic:       +691.590902
Potential:     -696.214647
External:        +0.000000
XC:            -12050.239920
Entropy (-ST):   -0.416204
Local:           +4.760665
--------------------------
Free energy:   -12050.519203
Extrapolated:  -12050.311102

Showing only first 2 kpts
 Kpt  Band  Eigenvalues  Occupancy
  0   199     -5.85263    1.94545
  0   200     -5.70859    1.78828
  0   201     -5.57404    1.37494
  0   202     -5.44449    0.75168

  1   199     -6.27023    1.99914
  1   200     -6.11548    1.99596
  1   201     -5.96972    1.98276
  1   202     -5.84667    1.94220


Fermi level: -5.49521

No gap

Forces in eV/Ang:
  0 Au   -0.00123   -0.00580   -0.17764
  1 Au    0.00519    0.00298    0.11950
  2 Au   -0.03502   -0.03218   -0.01491
  3 Au    0.00002    0.00216   -0.00734
  4 Au    0.00402   -0.01045   -0.14340
  5 Au    0.00429    0.00596    0.06836
  6 Au   -0.00303    0.00139   -0.00097
  7 Au   -0.06116    0.03108   -0.00104
  8 Au   -0.00184    0.00588   -0.12643
  9 Au   -0.00121   -0.00897    0.10468
 10 Au   -0.00533   -0.00128    0.00004
 11 Au   -0.00498    0.00309    0.02727
 12 Au   -0.00299   -0.00939   -0.14101
 13 Au   -0.03999    0.00330    0.16930
 14 Au    0.02835   -0.02662   -0.00696
 15 Au    0.02817   -0.04570    0.00289
 16 Au   -0.00496   -0.00846   -0.14344
 17 Au   -0.01749    0.01741    0.11282
 18 Au    0.00782    0.03231   -0.00306
 19 Au    0.00043    0.02078    0.12523
 20 Au    0.00235    0.00224   -0.09512
 21 Au   -0.00166   -0.05999    0.12255
 22 Au    0.00627    0.00250   -0.02090
 23 Au   -0.03402    0.04145   -0.01177
 24 Au    0.01793   -0.00569   -0.09825
 25 Au    0.03906    0.03005    0.17829
 26 Au   -0.00306   -0.00804   -0.01933
 27 Au   -0.00209    0.00164    0.02096
 28 Au    0.01181   -0.00047   -0.09659
 29 Au    0.01771    0.01912    0.15111
 30 Au    0.00214   -0.00029   -0.00052
 31 Au    0.04504    0.00766   -0.00428
 32 Au    0.00901    0.01262   -0.13779
 33 Au    0.00394   -0.01578    0.15881
 34 Au   -0.01196    0.00254   -0.02220
 35 Au    0.03735    0.05960   -0.02780
 36 O    -0.00012    0.00773    0.01076
 37 H     0.00504    0.00901   -0.02929

BFGS:    5 12:28:42   -12050.311102        0.1269
System changes: positions 

Initializing position-dependent things.

Density initialized from wave functions
                                               
                                               
                                               
                                               
                                               
                                               
                                               
                    H                          
                    O                          
           Au     Au      Au                   
             Au     Au      Au                 
            Au     Au      Au                  
              AAu    AAu     AAu               
                                               
               AAu    AAu     AAu              
                                               
                 Au     Au      Au             
                                               
           Au     AAu    AAu      Au           
                                               
             Au     Au      Au                 
               Au     Au      Au               
                                               
                                               
                                               
                                               

Positions:
   0 Au     0.000000    0.000000    9.999999    ( 0.0000,  0.0000,  0.0000)
   1 Au     1.496891    0.864230   12.444412    ( 0.0000,  0.0000,  0.0000)
   2 Au     0.001188    1.738300   14.878893    ( 0.0000,  0.0000,  0.0000)
   3 Au    -0.008460   -0.016540   17.347226    ( 0.0000,  0.0000,  0.0000)
   4 Au    -1.496891    2.592691    9.999999    ( 0.0000,  0.0000,  0.0000)
   5 Au    -0.000000    3.456922   12.444412    ( 0.0000,  0.0000,  0.0000)
   6 Au    -1.501033    4.318462   14.892795    ( 0.0000,  0.0000,  0.0000)
   7 Au    -1.521726    2.594302   17.371668    ( 0.0000,  0.0000,  0.0000)
   8 Au    -2.993782    5.185383    9.999999    ( 0.0000,  0.0000,  0.0000)
   9 Au    -1.496891    6.049613   12.444412    ( 0.0000,  0.0000,  0.0000)
  10 Au    -2.984701    6.909516   14.873370    ( 0.0000,  0.0000,  0.0000)
  11 Au    -2.996485    5.189947   17.382674    ( 0.0000,  0.0000,  0.0000)
  12 Au     2.993782    0.000000    9.999999    ( 0.0000,  0.0000,  0.0000)
  13 Au     4.490673    0.864230   12.444412    ( 0.0000,  0.0000,  0.0000)
  14 Au     2.989572    1.727564   14.903833    ( 0.0000,  0.0000,  0.0000)
  15 Au     3.001066   -0.024713   17.372190    ( 0.0000,  0.0000,  0.0000)
  16 Au     1.496891    2.592691    9.999999    ( 0.0000,  0.0000,  0.0000)
  17 Au     2.993782    3.456922   12.444412    ( 0.0000,  0.0000,  0.0000)
  18 Au     1.502670    4.316031   14.902095    ( 0.0000,  0.0000,  0.0000)
  19 Au     1.494260    2.592712   17.267238    ( 0.0000,  0.0000,  0.0000)
  20 Au    -0.000000    5.185383    9.999999    ( 0.0000,  0.0000,  0.0000)
  21 Au     1.496891    6.049613   12.444412    ( 0.0000,  0.0000,  0.0000)
  22 Au     0.001479    6.919711   14.888548    ( 0.0000,  0.0000,  0.0000)
  23 Au    -0.014729    5.207030   17.380482    ( 0.0000,  0.0000,  0.0000)
  24 Au     5.987564    0.000000    9.999999    ( 0.0000,  0.0000,  0.0000)
  25 Au     7.484455    0.864230   12.444412    ( 0.0000,  0.0000,  0.0000)
  26 Au     5.988510    1.725930   14.891722    ( 0.0000,  0.0000,  0.0000)
  27 Au     5.991417   -0.001131   17.380763    ( 0.0000,  0.0000,  0.0000)
  28 Au     4.490673    2.592691    9.999999    ( 0.0000,  0.0000,  0.0000)
  29 Au     5.987564    3.456922   12.444412    ( 0.0000,  0.0000,  0.0000)
  30 Au     4.489477    4.322098   14.896515    ( 0.0000,  0.0000,  0.0000)
  31 Au     4.515532    2.596087   17.383807    ( 0.0000,  0.0000,  0.0000)
  32 Au     2.993782    5.185383    9.999999    ( 0.0000,  0.0000,  0.0000)
  33 Au     4.490673    6.049613   12.444412    ( 0.0000,  0.0000,  0.0000)
  34 Au     2.981384    6.908781   14.868402    ( 0.0000,  0.0000,  0.0000)
  35 Au     3.011109    5.214449   17.366857    ( 0.0000,  0.0000,  0.0000)
  36 O      1.493895    2.590861   19.433438    ( 0.0000,  0.0000,  0.0000)
  37 H      1.494691    2.591051   20.395750    ( 0.0000,  0.0000,  0.0000)

Unit cell:
           periodic     x           y           z      points  spacing
  1. axis:    yes    8.981346    0.000000    0.000000    44     0.1768
  2. axis:    yes   -4.490673    7.778074    0.000000    44     0.1768
  3. axis:    no     0.000000    0.000000   27.333237   152     0.1798

  Lengths:   8.981346   8.981346  27.333237
  Angles:   90.000000  90.000000 120.000000

Effective grid spacing dv^(1/3) = 0.1865

     iter     time        total  log10-change:
                         energy  eigst   dens
iter:   1 12:29:47 -12050.318367  -3.28
iter:   2 12:30:19 -12050.315343  -4.39  -3.32
iter:   3 12:30:51 -12050.313707c -4.79  -3.44
iter:   4 12:31:23 -12050.312642c -4.66  -3.63
iter:   5 12:31:55 -12050.312843c -5.10  -3.88
iter:   6 12:32:28 -12050.312681c -5.43  -4.05c
iter:   7 12:33:00 -12050.312787c -6.03  -4.15c
iter:   8 12:33:32 -12050.312826c -6.37  -4.27c
iter:   9 12:34:04 -12050.312758c -6.62  -4.40c
iter:  10 12:34:37 -12050.312775c -7.13  -4.59c
iter:  11 12:35:09 -12050.312751c -7.02  -4.69c
iter:  12 12:35:41 -12050.312766c -7.24  -4.94c
iter:  13 12:36:13 -12050.312762c -8.04c -5.14c

Converged after 13 iterations.

Dipole moment: (-3.244008, -5.340552, -0.154039) |e|*Ang

Energy contributions relative to reference atoms: (reference = -18599591.102397)

Kinetic:       +691.640013
Potential:     -696.267680
External:        +0.000000
XC:            -12050.239712
Entropy (-ST):   -0.416362
Local:           +4.762798
--------------------------
Free energy:   -12050.520943
Extrapolated:  -12050.312762

Showing only first 2 kpts
 Kpt  Band  Eigenvalues  Occupancy
  0   199     -5.85518    1.94569
  0   200     -5.71182    1.79041
  0   201     -5.57532    1.37137
  0   202     -5.44634    0.75051

  1   199     -6.27312    1.99915
  1   200     -6.11585    1.99589
  1   201     -5.97108    1.98263
  1   202     -5.84755    1.94151


Fermi level: -5.49731

No gap

Forces in eV/Ang:
  0 Au   -0.00089   -0.00580   -0.17769
  1 Au    0.00580    0.00478    0.12064
  2 Au   -0.01502   -0.01443    0.00418
  3 Au    0.01222    0.02977   -0.00439
  4 Au    0.00394   -0.00998   -0.14352
  5 Au    0.00631    0.00548    0.07212
  6 Au   -0.00004   -0.00069   -0.00378
  7 Au   -0.03041    0.03644    0.00161
  8 Au   -0.00167    0.00571   -0.12678
  9 Au   -0.00263   -0.00990    0.10395
 10 Au   -0.00411   -0.00107   -0.00093
 11 Au   -0.00397    0.00451    0.02740
 12 Au   -0.00316   -0.00959   -0.14105
 13 Au   -0.04151    0.00421    0.16466
 14 Au    0.00942   -0.01085    0.00214
 15 Au    0.01749   -0.01692    0.00763
 16 Au   -0.00499   -0.00837   -0.14289
 17 Au   -0.01923    0.01644    0.11578
 18 Au    0.00453    0.00894    0.00091
 19 Au   -0.00080    0.01947    0.13034
 20 Au    0.00207    0.00209   -0.09520
 21 Au   -0.00213   -0.06266    0.11774
 22 Au    0.00350   -0.00095   -0.02141
 23 Au   -0.01842    0.01403   -0.01393
 24 Au    0.01783   -0.00569   -0.09913
 25 Au    0.03964    0.03076    0.17215
 26 Au   -0.00356   -0.00492   -0.01960
 27 Au   -0.00224    0.00343    0.02130
 28 Au    0.01188   -0.00014   -0.09666
 29 Au    0.01760    0.02079    0.15034
 30 Au    0.00169   -0.00217   -0.00448
 31 Au    0.01076    0.00326   -0.00532
 32 Au    0.00911    0.01230   -0.13784
 33 Au    0.00545   -0.01708    0.15761
 34 Au   -0.01109    0.00014   -0.01941
 35 Au    0.00939    0.01869   -0.01938
 36 O     0.00121    0.00884   -0.02651
 37 H     0.00544    0.00939   -0.02106

BFGS:    6 12:36:30   -12050.312762        0.1318
System changes: positions 

Initializing position-dependent things.

Density initialized from wave functions
                                               
                                               
                                               
                                               
                                               
                                               
                                               
                    H                          
                    O                          
           Au     Au      Au                   
             Au     Au      Au                 
            Au     Au      Au                  
              AAu    AAu     AAu               
                                               
               AAu    AAu     AAu              
                                               
                 Au     Au      Au             
                                               
           Au     AAu    AAu      Au           
                                               
             Au     Au      Au                 
               Au     Au      Au               
                                               
                                               
                                               
                                               

Positions:
   0 Au     0.000000    0.000000    9.999999    ( 0.0000,  0.0000,  0.0000)
   1 Au     1.496891    0.864230   12.444412    ( 0.0000,  0.0000,  0.0000)
   2 Au    -0.000742    1.736332   14.878360    ( 0.0000,  0.0000,  0.0000)
   3 Au    -0.008722   -0.016930   17.346506    ( 0.0000,  0.0000,  0.0000)
   4 Au    -1.496891    2.592691    9.999999    ( 0.0000,  0.0000,  0.0000)
   5 Au    -0.000000    3.456922   12.444412    ( 0.0000,  0.0000,  0.0000)
   6 Au    -1.501139    4.318502   14.892825    ( 0.0000,  0.0000,  0.0000)
   7 Au    -1.526478    2.596395   17.371374    ( 0.0000,  0.0000,  0.0000)
   8 Au    -2.993782    5.185383    9.999999    ( 0.0000,  0.0000,  0.0000)
   9 Au    -1.496891    6.049613   12.444412    ( 0.0000,  0.0000,  0.0000)
  10 Au    -2.985066    6.909582   14.873477    ( 0.0000,  0.0000,  0.0000)
  11 Au    -2.996843    5.190158   17.384615    ( 0.0000,  0.0000,  0.0000)
  12 Au     2.993782    0.000000    9.999999    ( 0.0000,  0.0000,  0.0000)
  13 Au     4.490673    0.864230   12.444412    ( 0.0000,  0.0000,  0.0000)
  14 Au     2.991017    1.726048   14.903852    ( 0.0000,  0.0000,  0.0000)
  15 Au     3.003191   -0.028377   17.372174    ( 0.0000,  0.0000,  0.0000)
  16 Au     1.496891    2.592691    9.999999    ( 0.0000,  0.0000,  0.0000)
  17 Au     2.993782    3.456922   12.444412    ( 0.0000,  0.0000,  0.0000)
  18 Au     1.503196    4.317723   14.902392    ( 0.0000,  0.0000,  0.0000)
  19 Au     1.494269    2.594083   17.272273    ( 0.0000,  0.0000,  0.0000)
  20 Au    -0.000000    5.185383    9.999999    ( 0.0000,  0.0000,  0.0000)
  21 Au     1.496891    6.049613   12.444412    ( 0.0000,  0.0000,  0.0000)
  22 Au     0.001865    6.919850   14.887199    ( 0.0000,  0.0000,  0.0000)
  23 Au    -0.017332    5.210282   17.379480    ( 0.0000,  0.0000,  0.0000)
  24 Au     5.987564    0.000000    9.999999    ( 0.0000,  0.0000,  0.0000)
  25 Au     7.484455    0.864230   12.444412    ( 0.0000,  0.0000,  0.0000)
  26 Au     5.988301    1.725434   14.890475    ( 0.0000,  0.0000,  0.0000)
  27 Au     5.991276   -0.001018   17.382253    ( 0.0000,  0.0000,  0.0000)
  28 Au     4.490673    2.592691    9.999999    ( 0.0000,  0.0000,  0.0000)
  29 Au     5.987564    3.456922   12.444412    ( 0.0000,  0.0000,  0.0000)
  30 Au     4.489494    4.322008   14.896609    ( 0.0000,  0.0000,  0.0000)
  31 Au     4.519113    2.596699   17.383318    ( 0.0000,  0.0000,  0.0000)
  32 Au     2.993782    5.185383    9.999999    ( 0.0000,  0.0000,  0.0000)
  33 Au     4.490673    6.049613   12.444412    ( 0.0000,  0.0000,  0.0000)
  34 Au     2.980621    6.908930   14.866977    ( 0.0000,  0.0000,  0.0000)
  35 Au     3.013844    5.218781   17.364820    ( 0.0000,  0.0000,  0.0000)
  36 O      1.493816    2.591292   19.434404    ( 0.0000,  0.0000,  0.0000)
  37 H      1.495043    2.591661   20.396255    ( 0.0000,  0.0000,  0.0000)

Unit cell:
           periodic     x           y           z      points  spacing
  1. axis:    yes    8.981346    0.000000    0.000000    44     0.1768
  2. axis:    yes   -4.490673    7.778074    0.000000    44     0.1768
  3. axis:    no     0.000000    0.000000   27.333237   152     0.1798

  Lengths:   8.981346   8.981346  27.333237
  Angles:   90.000000  90.000000 120.000000

Effective grid spacing dv^(1/3) = 0.1865

     iter     time        total  log10-change:
                         energy  eigst   dens
iter:   1 12:37:35 -12050.316899  -3.43
iter:   2 12:38:07 -12050.315490  -4.58  -3.44
iter:   3 12:38:40 -12050.314058c -4.58  -3.53
iter:   4 12:39:12 -12050.313791c -4.72  -3.89
iter:   5 12:39:45 -12050.313848c -5.92  -4.04c
iter:   6 12:40:17 -12050.313893c -5.51  -4.13c
iter:   7 12:40:50 -12050.313835c -6.24  -4.23c
iter:   8 12:41:22 -12050.313809c -6.38  -4.44c
iter:   9 12:41:55 -12050.313842c -6.91  -4.52c
iter:  10 12:42:27 -12050.313837c -7.09  -4.65c
iter:  11 12:43:00 -12050.313829c -7.32  -4.84c
iter:  12 12:43:32 -12050.313823c -7.87c -5.10c

Converged after 12 iterations.

Dipole moment: (-3.206581, -5.170852, -0.153618) |e|*Ang

Energy contributions relative to reference atoms: (reference = -18599591.102397)

Kinetic:       +691.658151
Potential:     -696.282909
External:        +0.000000
XC:            -12050.245447
Entropy (-ST):   -0.416326
Local:           +4.764544
--------------------------
Free energy:   -12050.521986
Extrapolated:  -12050.313823

Showing only first 2 kpts
 Kpt  Band  Eigenvalues  Occupancy
  0   199     -5.85491    1.94590
  0   200     -5.71152    1.79112
  0   201     -5.57399    1.36858
  0   202     -5.44523    0.74850

  1   199     -6.27308    1.99915
  1   200     -6.11581    1.99592
  1   201     -5.97182    1.98288
  1   202     -5.84659    1.94135


Fermi level: -5.49664

No gap

Forces in eV/Ang:
  0 Au   -0.00102   -0.00574   -0.17716
  1 Au    0.00617    0.00498    0.12056
  2 Au    0.00525    0.00206    0.02612
  3 Au    0.01775    0.04443   -0.00256
  4 Au    0.00384   -0.01026   -0.14304
  5 Au    0.00703    0.00545    0.07452
  6 Au    0.00125   -0.00153   -0.00620
  7 Au   -0.00655    0.03793    0.00122
  8 Au   -0.00172    0.00573   -0.12606
  9 Au   -0.00409   -0.01073    0.10389
 10 Au   -0.00280   -0.00217   -0.00077
 11 Au   -0.00428    0.00664    0.02693
 12 Au   -0.00319   -0.00962   -0.14042
 13 Au   -0.04173    0.00433    0.16035
 14 Au   -0.00997    0.00447    0.01570
 15 Au    0.00898    0.00440    0.00978
 16 Au   -0.00505   -0.00844   -0.14240
 17 Au   -0.01964    0.01622    0.11703
 18 Au    0.00084   -0.01463    0.01039
 19 Au   -0.00230    0.01728    0.08471
 20 Au    0.00224    0.00226   -0.09470
 21 Au   -0.00250   -0.06367    0.11315
 22 Au    0.00159   -0.00336   -0.02033
 23 Au   -0.00727   -0.00443   -0.01675
 24 Au    0.01801   -0.00571   -0.09804
 25 Au    0.03918    0.03076    0.16675
 26 Au   -0.00363   -0.00322   -0.01829
 27 Au   -0.00148    0.00482    0.02030
 28 Au    0.01201   -0.00016   -0.09605
 29 Au    0.01748    0.02236    0.15011
 30 Au    0.00245   -0.00279   -0.00708
 31 Au   -0.01377   -0.00047   -0.00694
 32 Au    0.00904    0.01250   -0.13730
 33 Au    0.00679   -0.01816    0.15694
 34 Au   -0.01033   -0.00120   -0.01454
 35 Au   -0.01137   -0.01116   -0.01081
 36 O     0.00065    0.00794   -0.02697
 37 H     0.00641    0.01065   -0.00227

BFGS:    7 12:43:49   -12050.313823        0.0865
System changes: positions 

Initializing position-dependent things.

Density initialized from wave functions
                                               
                                               
                                               
                                               
                                               
                                               
                                               
                    H                          
                    O                          
           Au     Au      Au                   
             Au     Au      Au                 
            Au     Au      Au                  
              AAu    AAu     AAu               
                                               
               AAu    AAu     AAu              
                                               
                 Au     Au      Au             
                                               
           Au     AAu    AAu      Au           
                                               
             Au     Au      Au                 
               Au     Au      Au               
                                               
                                               
                                               
                                               

Positions:
   0 Au     0.000000    0.000000    9.999999    ( 0.0000,  0.0000,  0.0000)
   1 Au     1.496891    0.864230   12.444412    ( 0.0000,  0.0000,  0.0000)
   2 Au    -0.001571    1.735471   14.878470    ( 0.0000,  0.0000,  0.0000)
   3 Au    -0.008381   -0.016021   17.346234    ( 0.0000,  0.0000,  0.0000)
   4 Au    -1.496891    2.592691    9.999999    ( 0.0000,  0.0000,  0.0000)
   5 Au    -0.000000    3.456922   12.444412    ( 0.0000,  0.0000,  0.0000)
   6 Au    -1.501174    4.318494   14.892690    ( 0.0000,  0.0000,  0.0000)
   7 Au    -1.528384    2.598008   17.371331    ( 0.0000,  0.0000,  0.0000)
   8 Au    -2.993782    5.185383    9.999999    ( 0.0000,  0.0000,  0.0000)
   9 Au    -1.496891    6.049613   12.444412    ( 0.0000,  0.0000,  0.0000)
  10 Au    -2.985271    6.909546   14.873477    ( 0.0000,  0.0000,  0.0000)
  11 Au    -2.997068    5.190374   17.385935    ( 0.0000,  0.0000,  0.0000)
  12 Au     2.993782    0.000000    9.999999    ( 0.0000,  0.0000,  0.0000)
  13 Au     4.490673    0.864230   12.444412    ( 0.0000,  0.0000,  0.0000)
  14 Au     2.991555    1.725418   14.903992    ( 0.0000,  0.0000,  0.0000)
  15 Au     3.004174   -0.029636   17.372418    ( 0.0000,  0.0000,  0.0000)
  16 Au     1.496891    2.592691    9.999999    ( 0.0000,  0.0000,  0.0000)
  17 Au     2.993782    3.456922   12.444412    ( 0.0000,  0.0000,  0.0000)
  18 Au     1.503438    4.318286   14.902547    ( 0.0000,  0.0000,  0.0000)
  19 Au     1.494222    2.595003   17.278096    ( 0.0000,  0.0000,  0.0000)
  20 Au    -0.000000    5.185383    9.999999    ( 0.0000,  0.0000,  0.0000)
  21 Au     1.496891    6.049613   12.444412    ( 0.0000,  0.0000,  0.0000)
  22 Au     0.002050    6.919843   14.886224    ( 0.0000,  0.0000,  0.0000)
  23 Au    -0.018455    5.211380   17.378792    ( 0.0000,  0.0000,  0.0000)
  24 Au     5.987564    0.000000    9.999999    ( 0.0000,  0.0000,  0.0000)
  25 Au     7.484455    0.864230   12.444412    ( 0.0000,  0.0000,  0.0000)
  26 Au     5.988142    1.725169   14.889581    ( 0.0000,  0.0000,  0.0000)
  27 Au     5.991185   -0.000873   17.383267    ( 0.0000,  0.0000,  0.0000)
  28 Au     4.490673    2.592691    9.999999    ( 0.0000,  0.0000,  0.0000)
  29 Au     5.987564    3.456922   12.444412    ( 0.0000,  0.0000,  0.0000)
  30 Au     4.489569    4.321927   14.896477    ( 0.0000,  0.0000,  0.0000)
  31 Au     4.520137    2.596923   17.383036    ( 0.0000,  0.0000,  0.0000)
  32 Au     2.993782    5.185383    9.999999    ( 0.0000,  0.0000,  0.0000)
  33 Au     4.490673    6.049613   12.444412    ( 0.0000,  0.0000,  0.0000)
  34 Au     2.980106    6.908964   14.866084    ( 0.0000,  0.0000,  0.0000)
  35 Au     3.014651    5.220198   17.363826    ( 0.0000,  0.0000,  0.0000)
  36 O      1.493780    2.591610   19.433705    ( 0.0000,  0.0000,  0.0000)
  37 H      1.495322    2.592133   20.395114    ( 0.0000,  0.0000,  0.0000)

Unit cell:
           periodic     x           y           z      points  spacing
  1. axis:    yes    8.981346    0.000000    0.000000    44     0.1768
  2. axis:    yes   -4.490673    7.778074    0.000000    44     0.1768
  3. axis:    no     0.000000    0.000000   27.333237   152     0.1798

  Lengths:   8.981346   8.981346  27.333237
  Angles:   90.000000  90.000000 120.000000

Effective grid spacing dv^(1/3) = 0.1865

     iter     time        total  log10-change:
                         energy  eigst   dens
iter:   1 12:44:53 -12050.314670  -3.85
iter:   2 12:45:25 -12050.314604  -4.93  -3.66
iter:   3 12:45:58 -12050.314572c -5.30  -3.83
iter:   4 12:46:30 -12050.314426c -5.32  -4.00
iter:   5 12:47:02 -12050.314401c -5.70  -4.31c
iter:   6 12:47:34 -12050.314466c -6.35  -4.36c
iter:   7 12:48:07 -12050.314423c -6.51  -4.55c
iter:   8 12:48:39 -12050.314411c -7.31  -4.68c
iter:   9 12:49:11 -12050.314409c -7.01  -4.73c
iter:  10 12:49:44 -12050.314423c -7.39  -4.95c
iter:  11 12:50:16 -12050.314420c -8.29c -5.08c

Converged after 11 iterations.

Dipole moment: (-3.223772, -5.164509, -0.151266) |e|*Ang

Energy contributions relative to reference atoms: (reference = -18599591.102397)

Kinetic:       +691.644041
Potential:     -696.266807
External:        +0.000000
XC:            -12050.250250
Entropy (-ST):   -0.416192
Local:           +4.766691
--------------------------
Free energy:   -12050.522516
Extrapolated:  -12050.314420

Showing only first 2 kpts
 Kpt  Band  Eigenvalues  Occupancy
  0   199     -5.85312    1.94601
  0   200     -5.70919    1.79048
  0   201     -5.57175    1.36752
  0   202     -5.44286    0.74673

  1   199     -6.27139    1.99915
  1   200     -6.11571    1.99599
  1   201     -5.97206    1.98325
  1   202     -5.84505    1.94161


Fermi level: -5.49464

No gap

Forces in eV/Ang:
  0 Au   -0.00087   -0.00546   -0.17706
  1 Au    0.00612    0.00536    0.12078
  2 Au    0.01735    0.01031    0.03773
  3 Au    0.01622    0.04275   -0.00256
  4 Au    0.00412   -0.01044   -0.14297
  5 Au    0.00752    0.00491    0.07544
  6 Au    0.00209   -0.00198   -0.00650
  7 Au    0.00107    0.03801   -0.00065
  8 Au   -0.00184    0.00582   -0.12572
  9 Au   -0.00505   -0.01109    0.10310
 10 Au   -0.00197   -0.00170    0.00062
 11 Au   -0.00533    0.00815    0.02607
 12 Au   -0.00346   -0.00935   -0.14029
 13 Au   -0.04232    0.00460    0.15765
 14 Au   -0.02232    0.01268    0.02523
 15 Au    0.00607    0.01154    0.00904
 16 Au   -0.00504   -0.00854   -0.14226
 17 Au   -0.01996    0.01594    0.11716
 18 Au   -0.00076   -0.02879    0.01842
 19 Au   -0.00441    0.01519    0.02600
 20 Au    0.00249    0.00208   -0.09462
 21 Au   -0.00259   -0.06470    0.11012
 22 Au    0.00003   -0.00450   -0.01738
 23 Au   -0.00369   -0.00883   -0.01823
 24 Au    0.01814   -0.00570   -0.09783
 25 Au    0.03969    0.03107    0.16398
 26 Au   -0.00337   -0.00201   -0.01519
 27 Au   -0.00063    0.00548    0.01848
 28 Au    0.01172   -0.00013   -0.09590
 29 Au    0.01742    0.02322    0.14914
 30 Au    0.00197   -0.00311   -0.00669
 31 Au   -0.02062   -0.00176   -0.00804
 32 Au    0.00892    0.01230   -0.13717
 33 Au    0.00745   -0.01860    0.15597
 34 Au   -0.00874   -0.00211   -0.00915
 35 Au   -0.01588   -0.01701   -0.00829
 36 O     0.00002    0.00768   -0.00426
 37 H     0.00758    0.01221    0.01354

BFGS:    8 12:50:33   -12050.314420        0.0458
Timing:                                      incl.     excl.
-------------------------------------------------------------------
Density initialized from wave functions:     4.966     4.966   0.1% |
 Symmetrize density:                         0.000     0.000   0.0% |
Forces:                                    150.768   150.768   3.2% ||
Hamiltonian:                                39.909     0.001   0.0% |
 Atomic:                                     0.003     0.003   0.0% |
  XC Correction:                             0.000     0.000   0.0% |
 Calculate atomic Hamiltonians:              0.004     0.004   0.0% |
 Communicate:                                2.091     2.091   0.0% |
 Hartree integrate/restrict:                 0.109     0.109   0.0% |
 Initialize Hamiltonian:                     0.000     0.000   0.0% |
 Poisson:                                    1.818     0.081   0.0% |
  Communicate from 1D:                       0.167     0.167   0.0% |
  Communicate from 2D:                       0.308     0.308   0.0% |
  Communicate to 1D:                         0.084     0.084   0.0% |
  Communicate to 2D:                         0.363     0.363   0.0% |
  FFT 1D:                                    0.424     0.424   0.0% |
  FFT 2D:                                    0.392     0.392   0.0% |
 XC 3D grid:                                35.672     8.533   0.2% |
  VdW-DF integral:                          27.140     1.392   0.0% |
   Convolution:                              2.254     2.254   0.0% |
   FFT:                                      1.484     1.484   0.0% |
   gather:                                   7.444     7.444   0.2% |
   hmm1:                                     0.477     0.477   0.0% |
   hmm2:                                     1.004     1.004   0.0% |
   iFFT:                                     1.381     1.381   0.0% |
   potential:                                7.473     0.165   0.0% |
    collect:                                 0.503     0.503   0.0% |
    p1:                                      4.494     4.494   0.1% |
    p2:                                      1.522     1.522   0.0% |
    sum:                                     0.789     0.789   0.0% |
   splines:                                  4.230     4.230   0.1% |
 vbar:                                       0.210     0.210   0.0% |
LCAO initialization:                         9.590     0.922   0.0% |
 LCAO eigensolver:                           2.414     0.002   0.0% |
  Calculate projections:                     0.000     0.000   0.0% |
  DenseAtomicCorrection:                     0.000     0.000   0.0% |
  Distribute overlap matrix:                 2.251     2.251   0.0% |
  Orbital Layouts:                           0.152     0.152   0.0% |
  Potential matrix:                          0.001     0.001   0.0% |
  Sum over cells:                            0.009     0.009   0.0% |
 LCAO to grid:                               5.494     5.494   0.1% |
 Set positions (LCAO WFS):                   0.760     0.630   0.0% |
  Basic WFS set positions:                   0.001     0.001   0.0% |
  Basis functions set positions:             0.000     0.000   0.0% |
  P tci:                                     0.000     0.000   0.0% |
  ST tci:                                    0.085     0.085   0.0% |
  mktci:                                     0.042     0.042   0.0% |
Redistribute:                                0.004     0.004   0.0% |
SCF-cycle:                                4323.449    42.811   0.9% |
 Davidson:                                3740.253  1320.232  27.8% |----------|
  Apply hamiltonian:                        92.685    92.685   2.0% ||
  Subspace diag:                           336.031     0.018   0.0% |
   calc_h_matrix:                          179.090    85.921   1.8% ||
    Apply hamiltonian:                      93.169    93.169   2.0% ||
   diagonalize:                              7.229     7.229   0.2% |
   rotate_psi:                             149.694   149.694   3.2% ||
  calc. matrices:                         1674.211   571.910  12.0% |----|
   Apply hamiltonian:                     1102.301  1102.301  23.2% |--------|
  diagonalize:                              27.474    27.474   0.6% |
  rotate_psi:                              289.619   289.619   6.1% |-|
 Density:                                    8.472     0.003   0.0% |
  Atomic density matrices:                   0.625     0.625   0.0% |
  Mix:                                       2.478     2.478   0.1% |
  Multipole moments:                         0.056     0.056   0.0% |
  Pseudo density:                            5.311     5.306   0.1% |
   Symmetrize density:                       0.004     0.004   0.0% |
 Hamiltonian:                              492.942     0.018   0.0% |
  Atomic:                                    0.034     0.034   0.0% |
   XC Correction:                            0.000     0.000   0.0% |
  Calculate atomic Hamiltonians:             0.047     0.047   0.0% |
  Communicate:                              28.777    28.777   0.6% |
  Hartree integrate/restrict:                1.569     1.569   0.0% |
  Poisson:                                  25.111     1.032   0.0% |
   Communicate from 1D:                      2.247     2.247   0.0% |
   Communicate from 2D:                      4.309     4.309   0.1% |
   Communicate to 1D:                        1.164     1.164   0.0% |
   Communicate to 2D:                        5.094     5.094   0.1% |
   FFT 1D:                                   5.870     5.870   0.1% |
   FFT 2D:                                   5.395     5.395   0.1% |
  XC 3D grid:                              437.059   117.332   2.5% ||
   VdW-DF integral:                        319.728    19.292   0.4% |
    Convolution:                            31.429    31.429   0.7% |
    FFT:                                    20.507    20.507   0.4% |
    gather:                                105.306   105.306   2.2% ||
    hmm1:                                    6.496     6.496   0.1% |
    hmm2:                                   13.800    13.800   0.3% |
    iFFT:                                   19.178    19.178   0.4% |
    potential:                             103.719     2.312   0.0% |
     collect:                                6.980     6.980   0.1% |
     p1:                                    62.434    62.434   1.3% ||
     p2:                                    21.148    21.148   0.4% |
     sum:                                   10.847    10.847   0.2% |
    splines:                                 0.001     0.001   0.0% |
  vbar:                                      0.325     0.325   0.0% |
 Orthonormalize:                            38.972     0.002   0.0% |
  calc_s_matrix:                             2.633     2.633   0.1% |
  inverse-cholesky:                         31.174    31.174   0.7% |
  projections:                               0.006     0.006   0.0% |
  rotate_psi_s:                              5.157     5.157   0.1% |
Set symmetry:                                0.001     0.001   0.0% |
Other:                                     221.963   221.963   4.7% |-|
-------------------------------------------------------------------
Total:                                              4750.650 100.0%

Memory usage: 1.65 GiB
Date: Tue Sep 26 12:50:33 2023
