
  ___ ___ ___ _ _ _  
 |   |   |_  | | | | 
 | | | | | . | | | | 
 |__ |  _|___|_____|  22.8.0
 |___|_|             

User:   s204775@c075.nifl.fysik.dtu.dk
Date:   Tue Sep 26 11:31:28 2023
Arch:   x86_64
Pid:    53356
CWD:    /home/cat/s204775/projects/Bachelor_project/OH_missing_features
Python: 3.10.4
gpaw:   /home/modules/software/GPAW/22.8.0-intel-2022a/lib/python3.10/site-packages/gpaw
_gpaw:  /home/modules/software/GPAW/22.8.0-intel-2022a/lib/python3.10/site-packages/
        _gpaw.cpython-310-x86_64-linux-gnu.so
ase:    /home/modules/software/ASE/3.22.1-intel-2022a/lib/python3.10/site-packages/ase (version 3.22.1)
numpy:  /home/modules/software/SciPy-bundle/2022.05-intel-2022a/lib/python3.10/site-packages/numpy (version 1.22.3)
scipy:  /home/modules/software/SciPy-bundle/2022.05-intel-2022a/lib/python3.10/site-packages/scipy (version 1.8.1)
libxc:  5.2.3
units:  Angstrom and eV
cores: 40
OpenMP: False
OMP_NUM_THREADS: 1

Input parameters:
  basis: dzp
  h: 0.18
  kpts: {size: (4, 4, 1)}
  xc: BEEF-vdW

System changes: positions, numbers, cell, pbc, initial_charges, initial_magmoms 

Initialize ...

species:
  Cd:
    name: Cadmium
    id: b24f2afa1c5614a277213cf5a4209897
    Z: 48.0
    valence: 12
    core: 36
    charge: 0.0
    file: /home/modules/software/GPAW-setups/0.9.20000/Cd.PBE.gz
    compensation charges: {type: gauss,
                           rc: 0.38,
                           lmax: 2}
    cutoffs: {filter: 2.12,
              core: 2.62}
    valence states:
      #              energy  rcut
      - 5s(2.00)    -5.655   1.191
      - 5p(0.00)    -1.186   1.228
      - 4d(10.00)   -11.739   1.164
      -  s          21.556   1.191
      -  p          26.026   1.228
      -  d          15.473   1.164
  
    # LCAO basis set for Cd:
    #   Name: dzp
    #   File: /home/modules/software/GPAW-setups/0.9.20000/Cd.dzp.basis.gz
    #   Number of radial functions: 7
    #   Number of spherical harmonics: 21
    #     l=0, rc=8.5781 Bohr: 5s-sz confined orbital
    #     l=1, rc=12.6406 Bohr: 5p-sz confined orbital
    #     l=2, rc=4.9062 Bohr: 4d-sz confined orbital
    #     l=0, rc=5.0625 Bohr: 5s-dz split-valence wave
    #     l=1, rc=7.7188 Bohr: 5p-dz split-valence wave
    #     l=2, rc=2.9844 Bohr: 4d-dz split-valence wave
    #     l=1, rc=8.5781 Bohr: p-type Gaussian polarization
    #   Number of RI-basis functions 0

  O:
    name: Oxygen
    id: 32ecd46bf208036f09c70b0ec9a88b78
    Z: 8.0
    valence: 6
    core: 2
    charge: 0.0
    file: /home/modules/software/GPAW-setups/0.9.20000/O.PBE.gz
    compensation charges: {type: gauss,
                           rc: 0.21,
                           lmax: 2}
    cutoffs: {filter: 1.17,
              core: 0.83}
    valence states:
      #              energy  rcut
      - 2s(2.00)   -23.961   0.688
      - 2p(4.00)    -9.029   0.598
      -  s           3.251   0.688
      -  p          18.182   0.598
      -  d           0.000   0.619
  
    # LCAO basis set for O:
    #   Name: dzp
    #   File: /home/modules/software/GPAW-setups/0.9.20000/O.dzp.basis.gz
    #   Number of radial functions: 5
    #   Number of spherical harmonics: 13
    #     l=0, rc=4.3438 Bohr: 2s-sz confined orbital
    #     l=1, rc=5.3906 Bohr: 2p-sz confined orbital
    #     l=0, rc=2.2969 Bohr: 2s-dz split-valence wave
    #     l=1, rc=2.8906 Bohr: 2p-dz split-valence wave
    #     l=2, rc=5.3906 Bohr: d-type Gaussian polarization
    #   Number of RI-basis functions 0

  H:
    name: Hydrogen
    id: d65de229564ff8ea4db303e23b6d1ecf
    Z: 1.0
    valence: 1
    core: 0
    charge: 0.0
    file: /home/modules/software/GPAW-setups/0.9.20000/H.PBE.gz
    compensation charges: {type: gauss,
                           rc: 0.15,
                           lmax: 2}
    cutoffs: {filter: 0.85,
              core: 0.53}
    valence states:
      #              energy  rcut
      - 1s(1.00)    -6.494   0.476
      -  s          20.717   0.476
      -  p           0.000   0.476
  
    # LCAO basis set for H:
    #   Name: dzp
    #   File: /home/modules/software/GPAW-setups/0.9.20000/H.dzp.basis.gz
    #   Number of radial functions: 3
    #   Number of spherical harmonics: 5
    #     l=0, rc=6.4219 Bohr: 1s-sz confined orbital
    #     l=0, rc=3.6094 Bohr: 1s-dz split-valence wave
    #     l=1, rc=6.4219 Bohr: p-type Gaussian polarization
    #   Number of RI-basis functions 0

Reference energy: -5480285.602575  # eV

Spin-paired calculation

Convergence criteria:
 Maximum [total energy] change in last 3 cyles: 0.0005 eV / electron
 Maximum integral of absolute [dens]ity change: 0.0001 electrons / valence electron
 Maximum integral of absolute [eigenst]ate change: 4e-08 eV^2 / valence electron
 Maximum number of scf [iter]ations: 333
 (Square brackets indicate name in SCF output, whereas a 'c' in
 the SCF output indicates the quantity has converged.)

Symmetries present (total): 1

  ( 1  0  0)
  ( 0  1  0)
  ( 0  0  1)

16 k-points: 4 x 4 x 1 Monkhorst-Pack grid
8 k-points in the irreducible part of the Brillouin zone
       k-points in crystal coordinates                weights
   0:     0.12500000   -0.37500000    0.00000000          2/16
   1:     0.12500000   -0.12500000    0.00000000          2/16
   2:     0.12500000    0.12500000    0.00000000          2/16
   3:     0.12500000    0.37500000    0.00000000          2/16
   4:     0.37500000   -0.37500000    0.00000000          2/16
   5:     0.37500000   -0.12500000    0.00000000          2/16
   6:     0.37500000    0.12500000    0.00000000          2/16
   7:     0.37500000    0.37500000    0.00000000          2/16

Wave functions: Uniform real-space grid
  Kinetic energy operator: 8*3+1=25 point O(h^6) finite-difference Laplacian
  ScaLapack parameters: grid=1x1, blocksize=None
  Wavefunction extrapolation:
    Improved wavefunction reuse through dual PAW basis 

Occupation numbers: Fermi-Dirac:
  width: 0.1000  # eV
 

Eigensolver
   Davidson(niter=2) 

Densities:
  Coarse grid: 48*48*156 grid
  Fine grid: 96*96*312 grid
  Total Charge: 0.000000 

Density mixing:
  Method: separate
  Backend: pulay
  Linear mixing parameter: 0.05
  old densities: 5
  Damping of long wavelength oscillations: 50 

Hamiltonian:
  XC and Coulomb potentials evaluated on a 96*96*312 grid
  Using the BEEF-vdW Exchange-Correlation functional
  Interpolation: tri-quintic (5. degree polynomial)
  Poisson solver: FastPoissonSolver using
    Stencil: 8*3+1=25 point O(h^6) finite-difference Laplacian
    FFT axes: [0, 1]
    FST axes: [2]
 

XC parameters: BEEF-vdW with 2 nearest neighbor stencil

Memory estimate:
  Process memory now: 233.99 MiB
  Calculator: 679.84 MiB
    Density: 60.17 MiB
      Arrays: 14.17 MiB
      Localized functions: 40.55 MiB
      Mixer: 5.45 MiB
    Hamiltonian: 12.13 MiB
      Arrays: 9.26 MiB
      XC: 0.00 MiB
      Poisson: 0.00 MiB
      vbar: 2.86 MiB
    Wavefunctions: 607.54 MiB
      Arrays psit_nG: 292.08 MiB
      Eigensolver: 308.49 MiB
      Projections: 0.54 MiB
      Projectors: 6.43 MiB

Total number of cores used: 40
Parallelization over k-points: 8
Domain decomposition: 1 x 1 x 5

Number of atoms: 38
Number of atomic orbitals: 774
Number of bands in calculation: 268
Number of valence electrons: 439
Bands to converge: occupied

... initialized

Initializing position-dependent things.

Density initialized from atomic densities
Creating initial wave functions:
  268 bands from LCAO basis set

                                                 
                                                 
                                                 
                                                 
                                                 
                          H                      
                                                 
                Cd      CdO     Cd               
                                                 
                   Cd     Cd      Cd             
                                                 
            Cd      CCd     Cd      Cd           
                                                 
              Cd      Cd      Cd                 
                                                 
               CCd     CCd     CCd               
                                                 
                 Cd      Cd      Cd              
                                                 
           Cd      Cd     CCd      Cd            
                                                 
             Cd      Cd     Cd                   
               Cd      Cd      Cd                
                                                 
                                                 
                                                 
                                                 

Positions:
   0 Cd     0.000000    0.000000   10.000000    ( 0.0000,  0.0000,  0.0000)
   1 Cd     1.600874    0.924265   12.614217    ( 0.0000,  0.0000,  0.0000)
   2 Cd    -0.000000    1.848530   15.313009    ( 0.0000,  0.0000,  0.0000)
   3 Cd     1.600875    2.772795   18.060029    ( 0.0000,  0.0000,  0.0000)
   4 Cd    -1.600874    2.772795   10.000000    ( 0.0000,  0.0000,  0.0000)
   5 Cd    -0.000000    3.697060   12.614217    ( 0.0000,  0.0000,  0.0000)
   6 Cd    -1.600874    4.621326   15.313008    ( 0.0000,  0.0000,  0.0000)
   7 Cd    -0.000000    5.545591   18.060030    ( 0.0000,  0.0000,  0.0000)
   8 Cd    -3.201748    5.545591   10.000000    ( 0.0000,  0.0000,  0.0000)
   9 Cd    -1.600874    6.469856   12.614217    ( 0.0000,  0.0000,  0.0000)
  10 Cd    -3.201749    7.394121   15.313009    ( 0.0000,  0.0000,  0.0000)
  11 Cd    -1.600874    8.318387   18.060029    ( 0.0000,  0.0000,  0.0000)
  12 Cd     3.201748    0.000000   10.000000    ( 0.0000,  0.0000,  0.0000)
  13 Cd     4.802622    0.924265   12.614217    ( 0.0000,  0.0000,  0.0000)
  14 Cd     3.201748    1.848530   15.313009    ( 0.0000,  0.0000,  0.0000)
  15 Cd     4.802622    2.772795   18.060029    ( 0.0000,  0.0000,  0.0000)
  16 Cd     1.600874    2.772795   10.000000    ( 0.0000,  0.0000,  0.0000)
  17 Cd     3.201748    3.697060   12.614217    ( 0.0000,  0.0000,  0.0000)
  18 Cd     1.600874    4.621326   15.313008    ( 0.0000,  0.0000,  0.0000)
  19 Cd     3.201749    5.545591   18.060029    ( 0.0000,  0.0000,  0.0000)
  20 Cd     0.000000    5.545591   10.000000    ( 0.0000,  0.0000,  0.0000)
  21 Cd     1.600874    6.469856   12.614217    ( 0.0000,  0.0000,  0.0000)
  22 Cd    -0.000000    7.394121   15.313008    ( 0.0000,  0.0000,  0.0000)
  23 Cd     1.600874    8.318387   18.060029    ( 0.0000,  0.0000,  0.0000)
  24 Cd     6.403497    0.000000   10.000000    ( 0.0000,  0.0000,  0.0000)
  25 Cd     8.004371    0.924265   12.614217    ( 0.0000,  0.0000,  0.0000)
  26 Cd     6.403497    1.848530   15.313009    ( 0.0000,  0.0000,  0.0000)
  27 Cd     8.004370    2.772795   18.060029    ( 0.0000,  0.0000,  0.0000)
  28 Cd     4.802622    2.772795   10.000000    ( 0.0000,  0.0000,  0.0000)
  29 Cd     6.403497    3.697060   12.614217    ( 0.0000,  0.0000,  0.0000)
  30 Cd     4.802622    4.621326   15.313009    ( 0.0000,  0.0000,  0.0000)
  31 Cd     6.403496    5.545591   18.060029    ( 0.0000,  0.0000,  0.0000)
  32 Cd     3.201748    5.545591   10.000000    ( 0.0000,  0.0000,  0.0000)
  33 Cd     4.802622    6.469856   12.614217    ( 0.0000,  0.0000,  0.0000)
  34 Cd     3.201749    7.394121   15.313009    ( 0.0000,  0.0000,  0.0000)
  35 Cd     4.802622    8.318386   18.060030    ( 0.0000,  0.0000,  0.0000)
  36 O      3.201749    5.545591   20.060029    ( 0.0000,  0.0000,  0.0000)
  37 H      3.201749    5.545591   21.020029    ( 0.0000,  0.0000,  0.0000)

Unit cell:
           periodic     x           y           z      points  spacing
  1. axis:    yes    9.605245    0.000000    0.000000    48     0.1733
  2. axis:    yes   -4.802622    8.318386    0.000000    48     0.1733
  3. axis:    no     0.000000    0.000000   27.842650   156     0.1785

  Lengths:   9.605245   9.605245  27.842650
  Angles:   90.000000  90.000000 120.000000

Effective grid spacing dv^(1/3) = 0.1836

     iter     time        total  log10-change:
                         energy  eigst   dens
iter:   1 11:32:38 -5463.288984
iter:   2 11:33:11 -5463.102029  -0.84  -1.34
iter:   3 11:33:43 -5462.073560  -1.39  -1.36
iter:   4 11:34:15 -5461.887924  -1.32  -1.43
iter:   5 11:34:48 -5462.617438  -1.26  -1.57
iter:   6 11:35:21 -5462.216770  -1.21  -1.49
iter:   7 11:35:53 -5462.051884  -2.00  -2.11
iter:   8 11:36:26 -5462.026589c -2.57  -2.30
iter:   9 11:36:58 -5461.985066c -2.85  -2.50
iter:  10 11:37:30 -5461.974066c -3.27  -2.59
iter:  11 11:38:03 -5461.948876c -3.04  -2.67
iter:  12 11:38:35 -5461.948607c -3.58  -2.92
iter:  13 11:39:08 -5461.945597c -3.86  -2.98
iter:  14 11:39:41 -5461.946919c -4.16  -3.11
iter:  15 11:40:13 -5461.947374c -4.60  -3.24
iter:  16 11:40:45 -5461.947542c -4.96  -3.36
iter:  17 11:41:18 -5461.947766c -4.84  -3.43
iter:  18 11:41:50 -5461.947794c -5.20  -3.77
iter:  19 11:42:23 -5461.947753c -5.99  -3.80
iter:  20 11:42:55 -5461.947588c -5.55  -3.82
iter:  21 11:43:28 -5461.947616c -5.74  -4.03c
iter:  22 11:44:00 -5461.947617c -6.56  -4.21c
iter:  23 11:44:33 -5461.947608c -6.73  -4.22c
iter:  24 11:45:05 -5461.947597c -6.89  -4.25c
iter:  25 11:45:38 -5461.947595c -6.89  -4.29c
iter:  26 11:46:10 -5461.947595c -6.43  -4.32c
iter:  27 11:46:43 -5461.947595c -6.98  -4.49c
iter:  28 11:47:16 -5461.947596c -7.23  -4.78c
iter:  29 11:47:48 -5461.947597c -7.81c -4.94c

Converged after 29 iterations.

Dipole moment: (-5.856175, -10.068277, -0.195096) |e|*Ang

Energy contributions relative to reference atoms: (reference = -5480285.602575)

Kinetic:       +1049.581371
Potential:     -946.913107
External:        +0.000000
XC:            -5567.945845
Entropy (-ST):   -0.509332
Local:           +3.584651
--------------------------
Free energy:   -5462.202263
Extrapolated:  -5461.947597

Showing only first 2 kpts
 Kpt  Band  Eigenvalues  Occupancy
  0   217     -4.76433    1.96473
  0   218     -4.34121    0.89478
  0   219     -4.24270    0.46425
  0   220     -4.10153    0.13724

  1   217     -4.45350    1.42668
  1   218     -4.41754    1.26923
  1   219     -3.79730    0.00701
  1   220     -3.78355    0.00611


Fermi level: -4.36233

No gap

Forces in eV/Ang:
  0 Cd   -0.00470   -0.00701   -0.21997
  1 Cd    0.01362   -0.00786    0.22628
  2 Cd   -0.00461    0.00266   -0.05270
  3 Cd   -0.04920   -0.03642   -0.02969
  4 Cd   -0.01001    0.00578   -0.23454
  5 Cd   -0.01583    0.00435    0.22663
  6 Cd    0.00427   -0.00237   -0.04369
  7 Cd   -0.06174   -0.02351   -0.01247
  8 Cd    0.00226   -0.01151   -0.22927
  9 Cd   -0.00260    0.00789    0.21896
 10 Cd    0.01900    0.00013   -0.05029
 11 Cd   -0.00252    0.00145    0.01558
 12 Cd    0.01070   -0.00618   -0.21540
 13 Cd   -0.00813   -0.00169    0.21896
 14 Cd    0.00938   -0.01652   -0.05029
 15 Cd    0.04179   -0.04430   -0.01313
 16 Cd    0.00372    0.00758   -0.21997
 17 Cd    0.00361   -0.00010    0.23766
 18 Cd    0.01345    0.00745    0.03928
 19 Cd   -0.00199    0.00115   -1.29819
 20 Cd   -0.00326    0.00575   -0.22716
 21 Cd   -0.00742    0.00428    0.23058
 22 Cd   -0.00837    0.00483   -0.04520
 23 Cd   -0.01051    0.06522   -0.01247
 24 Cd   -0.00661   -0.00006   -0.22716
 25 Cd   -0.01168    0.01154    0.22663
 26 Cd    0.00419   -0.00252   -0.04369
 27 Cd    0.00467   -0.00270    0.00266
 28 Cd    0.01110    0.00380   -0.22927
 29 Cd    0.00623   -0.00360    0.22107
 30 Cd   -0.00839    0.00485    0.04062
 31 Cd    0.05926   -0.01404   -0.01313
 32 Cd    0.00207   -0.00119   -0.22422
 33 Cd    0.00189   -0.00307    0.23766
 34 Cd    0.00027   -0.01537    0.03928
 35 Cd    0.00694    0.06082   -0.02969
 36 O    -0.00097    0.00056    1.50952
 37 H     0.00018   -0.00011   -0.07662

      Step     Time          Energy         fmax
BFGS:    0 11:48:01    -5461.947597        1.5095
System changes: positions 

Initializing position-dependent things.

Density initialized from wave functions
                                                 
                                                 
                                                 
                                                 
                                                 
                          H                      
                                                 
                Cd      CdO     Cd               
                                                 
                   Cd     Cd      Cd             
                                                 
            Cd      CCd     Cd      Cd           
                                                 
              Cd      Cd      Cd                 
                                                 
               CCd     CCd     CCd               
                                                 
                 Cd      Cd      Cd              
                                                 
           Cd      Cd     CCd      Cd            
                                                 
             Cd      Cd     Cd                   
               Cd      Cd      Cd                
                                                 
                                                 
                                                 
                                                 

Positions:
   0 Cd     0.000000    0.000000   10.000000    ( 0.0000,  0.0000,  0.0000)
   1 Cd     1.600874    0.924265   12.614217    ( 0.0000,  0.0000,  0.0000)
   2 Cd    -0.000066    1.848568   15.312256    ( 0.0000,  0.0000,  0.0000)
   3 Cd     1.600172    2.772275   18.059605    ( 0.0000,  0.0000,  0.0000)
   4 Cd    -1.600874    2.772795   10.000000    ( 0.0000,  0.0000,  0.0000)
   5 Cd    -0.000000    3.697060   12.614217    ( 0.0000,  0.0000,  0.0000)
   6 Cd    -1.600813    4.621292   15.312384    ( 0.0000,  0.0000,  0.0000)
   7 Cd    -0.000882    5.545255   18.059852    ( 0.0000,  0.0000,  0.0000)
   8 Cd    -3.201748    5.545591   10.000000    ( 0.0000,  0.0000,  0.0000)
   9 Cd    -1.600874    6.469856   12.614217    ( 0.0000,  0.0000,  0.0000)
  10 Cd    -3.201477    7.394123   15.312291    ( 0.0000,  0.0000,  0.0000)
  11 Cd    -1.600910    8.318407   18.060252    ( 0.0000,  0.0000,  0.0000)
  12 Cd     3.201748    0.000000   10.000000    ( 0.0000,  0.0000,  0.0000)
  13 Cd     4.802622    0.924265   12.614217    ( 0.0000,  0.0000,  0.0000)
  14 Cd     3.201882    1.848294   15.312291    ( 0.0000,  0.0000,  0.0000)
  15 Cd     4.803219    2.772163   18.059841    ( 0.0000,  0.0000,  0.0000)
  16 Cd     1.600874    2.772795   10.000000    ( 0.0000,  0.0000,  0.0000)
  17 Cd     3.201748    3.697060   12.614217    ( 0.0000,  0.0000,  0.0000)
  18 Cd     1.601066    4.621432   15.313570    ( 0.0000,  0.0000,  0.0000)
  19 Cd     3.201720    5.545607   18.041483    ( 0.0000,  0.0000,  0.0000)
  20 Cd     0.000000    5.545591   10.000000    ( 0.0000,  0.0000,  0.0000)
  21 Cd     1.600874    6.469856   12.614217    ( 0.0000,  0.0000,  0.0000)
  22 Cd    -0.000120    7.394190   15.312363    ( 0.0000,  0.0000,  0.0000)
  23 Cd     1.600724    8.319318   18.059851    ( 0.0000,  0.0000,  0.0000)
  24 Cd     6.403497    0.000000   10.000000    ( 0.0000,  0.0000,  0.0000)
  25 Cd     8.004371    0.924265   12.614217    ( 0.0000,  0.0000,  0.0000)
  26 Cd     6.403556    1.848494   15.312385    ( 0.0000,  0.0000,  0.0000)
  27 Cd     8.004437    2.772757   18.060067    ( 0.0000,  0.0000,  0.0000)
  28 Cd     4.802622    2.772795   10.000000    ( 0.0000,  0.0000,  0.0000)
  29 Cd     6.403497    3.697060   12.614217    ( 0.0000,  0.0000,  0.0000)
  30 Cd     4.802503    4.621395   15.313590    ( 0.0000,  0.0000,  0.0000)
  31 Cd     6.404343    5.545390   18.059841    ( 0.0000,  0.0000,  0.0000)
  32 Cd     3.201748    5.545591   10.000000    ( 0.0000,  0.0000,  0.0000)
  33 Cd     4.802622    6.469856   12.614217    ( 0.0000,  0.0000,  0.0000)
  34 Cd     3.201752    7.393902   15.313570    ( 0.0000,  0.0000,  0.0000)
  35 Cd     4.802722    8.319255   18.059606    ( 0.0000,  0.0000,  0.0000)
  36 O      3.201735    5.545599   20.081593    ( 0.0000,  0.0000,  0.0000)
  37 H      3.201751    5.545589   21.018934    ( 0.0000,  0.0000,  0.0000)

Unit cell:
           periodic     x           y           z      points  spacing
  1. axis:    yes    9.605245    0.000000    0.000000    48     0.1733
  2. axis:    yes   -4.802622    8.318386    0.000000    48     0.1733
  3. axis:    no     0.000000    0.000000   27.842650   156     0.1785

  Lengths:   9.605245   9.605245  27.842650
  Angles:   90.000000  90.000000 120.000000

Effective grid spacing dv^(1/3) = 0.1836

     iter     time        total  log10-change:
                         energy  eigst   dens
iter:   1 11:49:06 -5461.988473  -2.58
iter:   2 11:49:39 -5461.983888  -3.61  -3.06
iter:   3 11:50:11 -5461.981755c -4.28  -3.31
iter:   4 11:50:44 -5461.978516c -4.13  -3.42
iter:   5 11:51:17 -5461.977656c -4.43  -3.55
iter:   6 11:51:49 -5461.977305c -4.34  -3.69
iter:   7 11:52:22 -5461.977175c -4.70  -3.74
iter:   8 11:52:55 -5461.977121c -5.12  -4.06c
iter:   9 11:53:28 -5461.977085c -5.84  -4.21c
iter:  10 11:54:00 -5461.977065c -5.87  -4.43c
iter:  11 11:54:33 -5461.977076c -6.41  -4.39c
iter:  12 11:55:06 -5461.977081c -7.03  -4.48c
iter:  13 11:55:39 -5461.977086c -6.87  -4.60c
iter:  14 11:56:11 -5461.977081c -7.63c -4.78c

Converged after 14 iterations.

Dipole moment: (-5.877452, -10.177990, -0.229840) |e|*Ang

Energy contributions relative to reference atoms: (reference = -5480285.602575)

Kinetic:       +1049.035180
Potential:     -946.302816
External:        +0.000000
XC:            -5568.050314
Entropy (-ST):   -0.509537
Local:           +3.595636
--------------------------
Free energy:   -5462.231850
Extrapolated:  -5461.977081

Showing only first 2 kpts
 Kpt  Band  Eigenvalues  Occupancy
  0   217     -4.78852    1.96523
  0   218     -4.36550    0.90254
  0   219     -4.26617    0.46691
  0   220     -4.12340    0.13616

  1   217     -4.47650    1.42781
  1   218     -4.44328    1.28314
  1   219     -3.82073    0.00706
  1   220     -3.80803    0.00622


Fermi level: -4.38506

No gap

Forces in eV/Ang:
  0 Cd   -0.00491   -0.00711   -0.22097
  1 Cd    0.01358   -0.00784    0.22467
  2 Cd   -0.00421    0.00243   -0.05062
  3 Cd   -0.04457   -0.03266   -0.02200
  4 Cd   -0.00992    0.00573   -0.23491
  5 Cd   -0.01680    0.00361    0.22525
  6 Cd    0.00395   -0.00220   -0.04204
  7 Cd   -0.05592   -0.02132   -0.00438
  8 Cd    0.00204   -0.01152   -0.23048
  9 Cd   -0.00249    0.00805    0.21746
 10 Cd    0.01619   -0.00120   -0.04676
 11 Cd   -0.00214    0.00123    0.02080
 12 Cd    0.01073   -0.00620   -0.21594
 13 Cd   -0.00821   -0.00187    0.21746
 14 Cd    0.00913   -0.01342   -0.04676
 15 Cd    0.03773   -0.03991   -0.00512
 16 Cd    0.00370    0.00781   -0.22097
 17 Cd    0.00364   -0.00130    0.23749
 18 Cd    0.01047    0.00591    0.03472
 19 Cd   -0.00175    0.00101   -0.73804
 20 Cd   -0.00285    0.00580   -0.22838
 21 Cd   -0.00845    0.00488    0.23039
 22 Cd   -0.00593    0.00342   -0.04159
 23 Cd   -0.00950    0.05908   -0.00438
 24 Cd   -0.00645   -0.00043   -0.22838
 25 Cd   -0.01153    0.01274    0.22525
 26 Cd    0.00388   -0.00232   -0.04204
 27 Cd    0.00397   -0.00229    0.00787
 28 Cd    0.01100    0.00399   -0.23048
 29 Cd    0.00724   -0.00418    0.22008
 30 Cd   -0.00517    0.00299    0.03606
 31 Cd    0.05343   -0.01272   -0.00512
 32 Cd    0.00197   -0.00114   -0.22691
 33 Cd    0.00295   -0.00250    0.23749
 34 Cd    0.00012   -0.01202    0.03472
 35 Cd    0.00600    0.05493   -0.02200
 36 O    -0.00082    0.00047   -0.46328
 37 H     0.00016   -0.00009    1.20090

BFGS:    1 11:56:24    -5461.977081        1.2009
System changes: positions 

Initializing position-dependent things.

Density initialized from wave functions
                                                 
                                                 
                                                 
                                                 
                                                 
                          H                      
                                                 
                Cd      CdO     Cd               
                                                 
                   Cd     Cd      Cd             
                                                 
            Cd      CCd     Cd      Cd           
                                                 
              Cd      Cd      Cd                 
                                                 
               CCd     CCd     CCd               
                                                 
                 Cd      Cd      Cd              
                                                 
           Cd      Cd     CCd      Cd            
                                                 
             Cd      Cd     Cd                   
               Cd      Cd      Cd                
                                                 
                                                 
                                                 
                                                 

Positions:
   0 Cd     0.000000    0.000000   10.000000    ( 0.0000,  0.0000,  0.0000)
   1 Cd     1.600874    0.924265   12.614217    ( 0.0000,  0.0000,  0.0000)
   2 Cd    -0.000170    1.848628   15.311028    ( 0.0000,  0.0000,  0.0000)
   3 Cd     1.599066    2.771462   18.059012    ( 0.0000,  0.0000,  0.0000)
   4 Cd    -1.600874    2.772795   10.000000    ( 0.0000,  0.0000,  0.0000)
   5 Cd    -0.000000    3.697060   12.614217    ( 0.0000,  0.0000,  0.0000)
   6 Cd    -1.600716    4.621238   15.311366    ( 0.0000,  0.0000,  0.0000)
   7 Cd    -0.002269    5.544726   18.059676    ( 0.0000,  0.0000,  0.0000)
   8 Cd    -3.201748    5.545591   10.000000    ( 0.0000,  0.0000,  0.0000)
   9 Cd    -1.600874    6.469856   12.614217    ( 0.0000,  0.0000,  0.0000)
  10 Cd    -3.201066    7.394106   15.311143    ( 0.0000,  0.0000,  0.0000)
  11 Cd    -1.600965    8.318439   18.060702    ( 0.0000,  0.0000,  0.0000)
  12 Cd     3.201748    0.000000   10.000000    ( 0.0000,  0.0000,  0.0000)
  13 Cd     4.802622    0.924265   12.614217    ( 0.0000,  0.0000,  0.0000)
  14 Cd     3.202103    1.847946   15.311143    ( 0.0000,  0.0000,  0.0000)
  15 Cd     4.804156    2.771171   18.059648    ( 0.0000,  0.0000,  0.0000)
  16 Cd     1.600874    2.772795   10.000000    ( 0.0000,  0.0000,  0.0000)
  17 Cd     3.201748    3.697060   12.614217    ( 0.0000,  0.0000,  0.0000)
  18 Cd     1.601342    4.621587   15.314439    ( 0.0000,  0.0000,  0.0000)
  19 Cd     3.201676    5.545632   18.018916    ( 0.0000,  0.0000,  0.0000)
  20 Cd     0.000000    5.545591   10.000000    ( 0.0000,  0.0000,  0.0000)
  21 Cd     1.600874    6.469856   12.614217    ( 0.0000,  0.0000,  0.0000)
  22 Cd    -0.000283    7.394284   15.311337    ( 0.0000,  0.0000,  0.0000)
  23 Cd     1.600488    8.320784   18.059675    ( 0.0000,  0.0000,  0.0000)
  24 Cd     6.403497    0.000000   10.000000    ( 0.0000,  0.0000,  0.0000)
  25 Cd     8.004371    0.924265   12.614217    ( 0.0000,  0.0000,  0.0000)
  26 Cd     6.403652    1.848437   15.311366    ( 0.0000,  0.0000,  0.0000)
  27 Cd     8.004538    2.772698   18.060209    ( 0.0000,  0.0000,  0.0000)
  28 Cd     4.802622    2.772795   10.000000    ( 0.0000,  0.0000,  0.0000)
  29 Cd     6.403497    3.697060   12.614217    ( 0.0000,  0.0000,  0.0000)
  30 Cd     4.802351    4.621483   15.314491    ( 0.0000,  0.0000,  0.0000)
  31 Cd     6.405670    5.545074   18.059648    ( 0.0000,  0.0000,  0.0000)
  32 Cd     3.201748    5.545591   10.000000    ( 0.0000,  0.0000,  0.0000)
  33 Cd     4.802622    6.469856   12.614217    ( 0.0000,  0.0000,  0.0000)
  34 Cd     3.201756    7.393585   15.314440    ( 0.0000,  0.0000,  0.0000)
  35 Cd     4.802873    8.320619   18.059012    ( 0.0000,  0.0000,  0.0000)
  36 O      3.201714    5.545611   20.087924    ( 0.0000,  0.0000,  0.0000)
  37 H      3.201755    5.545587   21.036353    ( 0.0000,  0.0000,  0.0000)

Unit cell:
           periodic     x           y           z      points  spacing
  1. axis:    yes    9.605245    0.000000    0.000000    48     0.1733
  2. axis:    yes   -4.802622    8.318386    0.000000    48     0.1733
  3. axis:    no     0.000000    0.000000   27.842650   156     0.1785

  Lengths:   9.605245   9.605245  27.842650
  Angles:   90.000000  90.000000 120.000000

Effective grid spacing dv^(1/3) = 0.1836

     iter     time        total  log10-change:
                         energy  eigst   dens
iter:   1 11:57:29 -5462.024429  -2.74
iter:   2 11:58:02 -5462.009161  -3.74  -2.92
iter:   3 11:58:34 -5462.005219c -4.08  -3.16
iter:   4 11:59:07 -5462.003376c -4.16  -3.49
iter:   5 11:59:40 -5462.003161c -5.13  -3.51
iter:   6 12:00:12 -5462.003247c -4.77  -3.85
iter:   7 12:00:45 -5462.002968c -5.19  -3.83
iter:   8 12:01:18 -5462.002974c -5.30  -4.15c
iter:   9 12:01:51 -5462.002978c -6.43  -4.22c
iter:  10 12:02:23 -5462.002978c -6.26  -4.35c
iter:  11 12:02:56 -5462.002973c -6.58  -4.44c
iter:  12 12:03:29 -5462.002968c -7.16  -4.55c
iter:  13 12:04:02 -5462.002964c -7.10  -4.60c
iter:  14 12:04:34 -5462.002962c -7.62c -4.69c

Converged after 14 iterations.

Dipole moment: (-5.901843, -10.333727, -0.244444) |e|*Ang

Energy contributions relative to reference atoms: (reference = -5480285.602575)

Kinetic:       +1047.877414
Potential:     -945.399170
External:        +0.000000
XC:            -5567.804404
Entropy (-ST):   -0.509488
Local:           +3.577942
--------------------------
Free energy:   -5462.257706
Extrapolated:  -5462.002962

Showing only first 2 kpts
 Kpt  Band  Eigenvalues  Occupancy
  0   217     -4.79907    1.96555
  0   218     -4.37665    0.91016
  0   219     -4.27694    0.47108
  0   220     -4.13342    0.13668

  1   217     -4.48670    1.43023
  1   218     -4.45593    1.29709
  1   219     -3.83133    0.00713
  1   220     -3.81980    0.00635


Fermi level: -4.39467

No gap

Forces in eV/Ang:
  0 Cd   -0.00491   -0.00709   -0.22105
  1 Cd    0.01378   -0.00795    0.22226
  2 Cd   -0.00470    0.00272   -0.04658
  3 Cd   -0.04010   -0.02875   -0.02088
  4 Cd   -0.01006    0.00581   -0.23525
  5 Cd   -0.01578    0.00437    0.22395
  6 Cd    0.00366   -0.00306   -0.03844
  7 Cd   -0.05018   -0.01905   -0.00311
  8 Cd    0.00215   -0.01167   -0.23084
  9 Cd   -0.00238    0.00818    0.21490
 10 Cd    0.01606   -0.00100   -0.04258
 11 Cd   -0.00203    0.00117    0.01951
 12 Cd    0.01090   -0.00630   -0.21552
 13 Cd   -0.00827   -0.00203    0.21490
 14 Cd    0.00889   -0.01341   -0.04258
 15 Cd    0.03400   -0.03558   -0.00403
 16 Cd    0.00368    0.00779   -0.22105
 17 Cd    0.00387   -0.00100    0.23811
 18 Cd    0.00339    0.00206    0.02404
 19 Cd   -0.00162    0.00094   -0.34416
 20 Cd   -0.00298    0.00593   -0.22873
 21 Cd   -0.00824    0.00476    0.23103
 22 Cd   -0.00591    0.00341   -0.03720
 23 Cd   -0.00859    0.05298   -0.00311
 24 Cd   -0.00663   -0.00039   -0.22873
 25 Cd   -0.01167    0.01148    0.22396
 26 Cd    0.00448   -0.00164   -0.03845
 27 Cd    0.00351   -0.00202    0.00733
 28 Cd    0.01118    0.00397   -0.23084
 29 Cd    0.00609   -0.00352    0.21904
 30 Cd    0.00198   -0.00115    0.02543
 31 Cd    0.04782   -0.01165   -0.00403
 32 Cd    0.00192   -0.00111   -0.22790
 33 Cd    0.00280   -0.00285    0.23811
 34 Cd   -0.00009   -0.00396    0.02404
 35 Cd    0.00485    0.04910   -0.02088
 36 O    -0.00070    0.00040   -0.21673
 37 H     0.00010   -0.00006    0.56065

BFGS:    2 12:04:47    -5462.002962        0.5607
System changes: positions 

Initializing position-dependent things.

Density initialized from wave functions
                                                 
                                                 
                                                 
                                                 
                                                 
                          H                      
                                                 
                Cd      CdO     Cd               
                                                 
                   Cd     Cd      Cd             
                                                 
            Cd      CCd     Cd      Cd           
                                                 
              Cd      Cd      Cd                 
                                                 
               CCd     CCd     CCd               
                                                 
                 Cd      Cd      Cd              
                                                 
           Cd      Cd     CCd      Cd            
                                                 
             Cd      Cd     Cd                   
               Cd      Cd      Cd                
                                                 
                                                 
                                                 
                                                 

Positions:
   0 Cd     0.000000    0.000000   10.000000    ( 0.0000,  0.0000,  0.0000)
   1 Cd     1.600874    0.924265   12.614217    ( 0.0000,  0.0000,  0.0000)
   2 Cd    -0.000340    1.848726   15.309278    ( 0.0000,  0.0000,  0.0000)
   3 Cd     1.597527    2.770348   18.058178    ( 0.0000,  0.0000,  0.0000)
   4 Cd    -1.600874    2.772795   10.000000    ( 0.0000,  0.0000,  0.0000)
   5 Cd    -0.000000    3.697060   12.614217    ( 0.0000,  0.0000,  0.0000)
   6 Cd    -1.600577    4.621133   15.309919    ( 0.0000,  0.0000,  0.0000)
   7 Cd    -0.004196    5.543994   18.059486    ( 0.0000,  0.0000,  0.0000)
   8 Cd    -3.201748    5.545591   10.000000    ( 0.0000,  0.0000,  0.0000)
   9 Cd    -1.600874    6.469856   12.614217    ( 0.0000,  0.0000,  0.0000)
  10 Cd    -3.200457    7.394079   15.309525    ( 0.0000,  0.0000,  0.0000)
  11 Cd    -1.601043    8.318484   18.061382    ( 0.0000,  0.0000,  0.0000)
  12 Cd     3.201748    0.000000   10.000000    ( 0.0000,  0.0000,  0.0000)
  13 Cd     4.802622    0.924265   12.614217    ( 0.0000,  0.0000,  0.0000)
  14 Cd     3.202431    1.847433   15.309525    ( 0.0000,  0.0000,  0.0000)
  15 Cd     4.805462    2.769799   18.059426    ( 0.0000,  0.0000,  0.0000)
  16 Cd     1.600874    2.772795   10.000000    ( 0.0000,  0.0000,  0.0000)
  17 Cd     3.201748    3.697060   12.614217    ( 0.0000,  0.0000,  0.0000)
  18 Cd     1.601554    4.621709   15.315449    ( 0.0000,  0.0000,  0.0000)
  19 Cd     3.201614    5.545668   17.998242    ( 0.0000,  0.0000,  0.0000)
  20 Cd     0.000000    5.545591   10.000000    ( 0.0000,  0.0000,  0.0000)
  21 Cd     1.600874    6.469856   12.614217    ( 0.0000,  0.0000,  0.0000)
  22 Cd    -0.000518    7.394420   15.309913    ( 0.0000,  0.0000,  0.0000)
  23 Cd     1.600159    8.322819   18.059484    ( 0.0000,  0.0000,  0.0000)
  24 Cd     6.403497    0.000000   10.000000    ( 0.0000,  0.0000,  0.0000)
  25 Cd     8.004371    0.924265   12.614217    ( 0.0000,  0.0000,  0.0000)
  26 Cd     6.403812    1.848370   15.309920    ( 0.0000,  0.0000,  0.0000)
  27 Cd     8.004676    2.772619   18.060439    ( 0.0000,  0.0000,  0.0000)
  28 Cd     4.802622    2.772795   10.000000    ( 0.0000,  0.0000,  0.0000)
  29 Cd     6.403497    3.697060   12.614217    ( 0.0000,  0.0000,  0.0000)
  30 Cd     4.802332    4.621494   15.315551    ( 0.0000,  0.0000,  0.0000)
  31 Cd     6.407510    5.544630   18.059427    ( 0.0000,  0.0000,  0.0000)
  32 Cd     3.201748    5.545591   10.000000    ( 0.0000,  0.0000,  0.0000)
  33 Cd     4.802622    6.469856   12.614217    ( 0.0000,  0.0000,  0.0000)
  34 Cd     3.201756    7.393340   15.315449    ( 0.0000,  0.0000,  0.0000)
  35 Cd     4.803068    8.322508   18.058179    ( 0.0000,  0.0000,  0.0000)
  36 O      3.201686    5.545627   20.093835    ( 0.0000,  0.0000,  0.0000)
  37 H      3.201760    5.545584   21.052205    ( 0.0000,  0.0000,  0.0000)

Unit cell:
           periodic     x           y           z      points  spacing
  1. axis:    yes    9.605245    0.000000    0.000000    48     0.1733
  2. axis:    yes   -4.802622    8.318386    0.000000    48     0.1733
  3. axis:    no     0.000000    0.000000   27.842650   156     0.1785

  Lengths:   9.605245   9.605245  27.842650
  Angles:   90.000000  90.000000 120.000000

Effective grid spacing dv^(1/3) = 0.1836

     iter     time        total  log10-change:
                         energy  eigst   dens
iter:   1 12:05:52 -5462.031259  -2.81
iter:   2 12:06:25 -5462.016775  -3.79  -2.92
iter:   3 12:06:58 -5462.013440c -4.15  -3.18
iter:   4 12:07:31 -5462.011976c -4.25  -3.54
iter:   5 12:08:04 -5462.011819c -5.22  -3.55
iter:   6 12:08:37 -5462.011935c -4.84  -3.88
iter:   7 12:09:10 -5462.011683c -5.28  -3.86
iter:   8 12:09:43 -5462.011689c -5.40  -4.20c
iter:   9 12:10:16 -5462.011693c -6.52  -4.28c
iter:  10 12:10:49 -5462.011689c -6.30  -4.39c
iter:  11 12:11:22 -5462.011685c -6.67  -4.51c
iter:  12 12:11:55 -5462.011681c -7.28  -4.62c
iter:  13 12:12:28 -5462.011677c -7.15  -4.67c
iter:  14 12:13:01 -5462.011676c -7.62c -4.78c

Converged after 14 iterations.

Dipole moment: (-5.933446, -10.543456, -0.258714) |e|*Ang

Energy contributions relative to reference atoms: (reference = -5480285.602575)

Kinetic:       +1046.691953
Potential:     -944.461539
External:        +0.000000
XC:            -5567.570969
Entropy (-ST):   -0.509389
Local:           +3.583574
--------------------------
Free energy:   -5462.266370
Extrapolated:  -5462.011676

Showing only first 2 kpts
 Kpt  Band  Eigenvalues  Occupancy
  0   217     -4.80978    1.96591
  0   218     -4.38771    0.91730
  0   219     -4.28774    0.47531
  0   220     -4.14363    0.13743

  1   217     -4.49696    1.43278
  1   218     -4.46842    1.31010
  1   219     -3.84189    0.00719
  1   220     -3.83148    0.00649


Fermi level: -4.40429

No gap

Forces in eV/Ang:
  0 Cd   -0.00530   -0.00761   -0.22168
  1 Cd    0.01339   -0.00773    0.22121
  2 Cd   -0.00484    0.00279   -0.04298
  3 Cd   -0.03227   -0.02285   -0.01612
  4 Cd   -0.01023    0.00590   -0.23621
  5 Cd   -0.01473    0.00515    0.22398
  6 Cd    0.00326   -0.00387   -0.03540
  7 Cd   -0.04083   -0.01529    0.00202
  8 Cd    0.00180   -0.01190   -0.23184
  9 Cd   -0.00218    0.00770    0.21362
 10 Cd    0.01548   -0.00073   -0.03723
 11 Cd   -0.00187    0.00108    0.01888
 12 Cd    0.01128   -0.00651   -0.21620
 13 Cd   -0.00776   -0.00196    0.21362
 14 Cd    0.00837   -0.01304   -0.03723
 15 Cd    0.02703   -0.02872    0.00093
 16 Cd    0.00394    0.00840   -0.22168
 17 Cd    0.00400   -0.00037    0.23888
 18 Cd   -0.00503   -0.00279    0.01259
 19 Cd   -0.00131    0.00076   -0.05272
 20 Cd   -0.00242    0.00619   -0.22972
 21 Cd   -0.00786    0.00454    0.23165
 22 Cd   -0.00574    0.00332   -0.03199
 23 Cd   -0.00717    0.04300    0.00202
 24 Cd   -0.00657   -0.00100   -0.22972
 25 Cd   -0.01183    0.01019    0.22398
 26 Cd    0.00498   -0.00089   -0.03541
 27 Cd    0.00273   -0.00157    0.00689
 28 Cd    0.01120    0.00439   -0.23184
 29 Cd    0.00495   -0.00286    0.21942
 30 Cd    0.01051   -0.00607    0.01420
 31 Cd    0.03839   -0.00905    0.00093
 32 Cd    0.00178   -0.00103   -0.22925
 33 Cd    0.00232   -0.00328    0.23888
 34 Cd   -0.00010    0.00575    0.01259
 35 Cd    0.00366    0.03937   -0.01612
 36 O    -0.00051    0.00029   -0.01327
 37 H     0.00004   -0.00002    0.03379

BFGS:    3 12:13:14    -5462.011676        0.0527
System changes: positions 

Initializing position-dependent things.

Density initialized from wave functions
                                                 
                                                 
                                                 
                                                 
                                                 
                          H                      
                                                 
                Cd      CdO     Cd               
                                                 
                   Cd     Cd      Cd             
                                                 
            Cd      CCd     Cd      Cd           
                                                 
              Cd      Cd      Cd                 
                                                 
               CCd     CCd     CCd               
                                                 
                 Cd      Cd      Cd              
                                                 
           Cd      Cd     CCd      Cd            
                                                 
             Cd      Cd     Cd                   
               Cd      Cd      Cd                
                                                 
                                                 
                                                 
                                                 

Positions:
   0 Cd     0.000000    0.000000   10.000000    ( 0.0000,  0.0000,  0.0000)
   1 Cd     1.600874    0.924265   12.614217    ( 0.0000,  0.0000,  0.0000)
   2 Cd    -0.000444    1.848787   15.308314    ( 0.0000,  0.0000,  0.0000)
   3 Cd     1.596771    2.769809   18.057790    ( 0.0000,  0.0000,  0.0000)
   4 Cd    -1.600874    2.772795   10.000000    ( 0.0000,  0.0000,  0.0000)
   5 Cd    -0.000000    3.697060   12.614217    ( 0.0000,  0.0000,  0.0000)
   6 Cd    -1.600503    4.621054   15.309124    ( 0.0000,  0.0000,  0.0000)
   7 Cd    -0.005151    5.543635   18.059489    ( 0.0000,  0.0000,  0.0000)
   8 Cd    -3.201748    5.545591   10.000000    ( 0.0000,  0.0000,  0.0000)
   9 Cd    -1.600874    6.469856   12.614217    ( 0.0000,  0.0000,  0.0000)
  10 Cd    -3.200113    7.394063   15.308675    ( 0.0000,  0.0000,  0.0000)
  11 Cd    -1.601085    8.318508   18.061790    ( 0.0000,  0.0000,  0.0000)
  12 Cd     3.201748    0.000000   10.000000    ( 0.0000,  0.0000,  0.0000)
  13 Cd     4.802622    0.924265   12.614217    ( 0.0000,  0.0000,  0.0000)
  14 Cd     3.202616    1.847142   15.308675    ( 0.0000,  0.0000,  0.0000)
  15 Cd     4.806098    2.769126   18.059408    ( 0.0000,  0.0000,  0.0000)
  16 Cd     1.600874    2.772795   10.000000    ( 0.0000,  0.0000,  0.0000)
  17 Cd     3.201748    3.697060   12.614217    ( 0.0000,  0.0000,  0.0000)
  18 Cd     1.601505    4.621683   15.315808    ( 0.0000,  0.0000,  0.0000)
  19 Cd     3.201583    5.545686   17.993969    ( 0.0000,  0.0000,  0.0000)
  20 Cd     0.000000    5.545591   10.000000    ( 0.0000,  0.0000,  0.0000)
  21 Cd     1.600874    6.469856   12.614217    ( 0.0000,  0.0000,  0.0000)
  22 Cd    -0.000647    7.394495   15.309177    ( 0.0000,  0.0000,  0.0000)
  23 Cd     1.599992    8.323825   18.059488    ( 0.0000,  0.0000,  0.0000)
  24 Cd     6.403497    0.000000   10.000000    ( 0.0000,  0.0000,  0.0000)
  25 Cd     8.004371    0.924265   12.614217    ( 0.0000,  0.0000,  0.0000)
  26 Cd     6.403917    1.848345   15.309125    ( 0.0000,  0.0000,  0.0000)
  27 Cd     8.004741    2.772581   18.060584    ( 0.0000,  0.0000,  0.0000)
  28 Cd     4.802622    2.772795   10.000000    ( 0.0000,  0.0000,  0.0000)
  29 Cd     6.403497    3.697060   12.614217    ( 0.0000,  0.0000,  0.0000)
  30 Cd     4.802499    4.621397   15.315944    ( 0.0000,  0.0000,  0.0000)
  31 Cd     6.408412    5.544416   18.059408    ( 0.0000,  0.0000,  0.0000)
  32 Cd     3.201748    5.545591   10.000000    ( 0.0000,  0.0000,  0.0000)
  33 Cd     4.802622    6.469856   12.614217    ( 0.0000,  0.0000,  0.0000)
  34 Cd     3.201755    7.393396   15.315809    ( 0.0000,  0.0000,  0.0000)
  35 Cd     4.803157    8.323433   18.057791    ( 0.0000,  0.0000,  0.0000)
  36 O      3.201674    5.545634   20.095122    ( 0.0000,  0.0000,  0.0000)
  37 H      3.201761    5.545584   21.054855    ( 0.0000,  0.0000,  0.0000)

Unit cell:
           periodic     x           y           z      points  spacing
  1. axis:    yes    9.605245    0.000000    0.000000    48     0.1733
  2. axis:    yes   -4.802622    8.318386    0.000000    48     0.1733
  3. axis:    no     0.000000    0.000000   27.842650   156     0.1785

  Lengths:   9.605245   9.605245  27.842650
  Angles:   90.000000  90.000000 120.000000

Effective grid spacing dv^(1/3) = 0.1836

     iter     time        total  log10-change:
                         energy  eigst   dens
iter:   1 12:14:18 -5462.013520  -4.08
iter:   2 12:14:51 -5462.012396  -5.02  -3.47
iter:   3 12:15:25 -5462.012264c -5.58  -3.78
iter:   4 12:15:57 -5462.012190c -5.65  -4.16c
iter:   5 12:16:30 -5462.012200c -6.45  -4.27c
iter:   6 12:17:03 -5462.012210c -6.35  -4.50c
iter:   7 12:17:36 -5462.012205c -6.88  -4.62c
iter:   8 12:18:09 -5462.012205c -7.06  -4.86c
iter:   9 12:18:42 -5462.012203c -7.58c -4.95c

Converged after 9 iterations.

Dipole moment: (-5.948236, -10.642885, -0.262181) |e|*Ang

Energy contributions relative to reference atoms: (reference = -5480285.602575)

Kinetic:       +1046.451677
Potential:     -944.268781
External:        +0.000000
XC:            -5567.529623
Entropy (-ST):   -0.509313
Local:           +3.589181
--------------------------
Free energy:   -5462.266860
Extrapolated:  -5462.012203

Showing only first 2 kpts
 Kpt  Band  Eigenvalues  Occupancy
  0   217     -4.81256    1.96607
  0   218     -4.39025    0.91834
  0   219     -4.29043    0.47665
  0   220     -4.14627    0.13782

  1   217     -4.49949    1.43360
  1   218     -4.47136    1.31285
  1   219     -3.84441    0.00721
  1   220     -3.83424    0.00651


Fermi level: -4.40662

No gap

Forces in eV/Ang:
  0 Cd   -0.00529   -0.00795   -0.22092
  1 Cd    0.01253   -0.00723    0.21980
  2 Cd   -0.00464    0.00268   -0.04063
  3 Cd   -0.02393   -0.01544   -0.01316
  4 Cd   -0.01031    0.00595   -0.23625
  5 Cd   -0.01223    0.00656    0.22389
  6 Cd    0.00295   -0.00430   -0.03316
  7 Cd   -0.03004   -0.01178    0.00502
  8 Cd    0.00163   -0.01176   -0.23128
  9 Cd   -0.00208    0.00673    0.21183
 10 Cd    0.01537   -0.00013   -0.03372
 11 Cd   -0.00196    0.00113    0.01270
 12 Cd    0.01147   -0.00662   -0.21592
 13 Cd   -0.00687   -0.00156    0.21183
 14 Cd    0.00780   -0.01325   -0.03372
 15 Cd    0.01924   -0.02060    0.00380
 16 Cd    0.00424    0.00855   -0.22092
 17 Cd    0.00390    0.00197    0.23947
 18 Cd   -0.00974   -0.00570    0.00661
 19 Cd   -0.00113    0.00065    0.00652
 20 Cd   -0.00211    0.00648   -0.22914
 21 Cd   -0.00593    0.00342    0.23213
 22 Cd   -0.00587    0.00339   -0.02862
 23 Cd   -0.00482    0.03190    0.00502
 24 Cd   -0.00667   -0.00141   -0.22914
 25 Cd   -0.01180    0.00731    0.22389
 26 Cd    0.00519   -0.00041   -0.03316
 27 Cd    0.00225   -0.00130    0.00011
 28 Cd    0.01100    0.00447   -0.23128
 29 Cd    0.00250   -0.00144    0.21950
 30 Cd    0.01535   -0.00886    0.00852
 31 Cd    0.02746   -0.00636    0.00380
 32 Cd    0.00168   -0.00097   -0.22782
 33 Cd    0.00024   -0.00437    0.23947
 34 Cd    0.00007    0.01129    0.00661
 35 Cd    0.00140    0.02844   -0.01316
 36 O    -0.00047    0.00027   -0.00880
 37 H     0.00003   -0.00002   -0.03502

BFGS:    4 12:18:55    -5462.012203        0.0410
Timing:                                      incl.     excl.
-------------------------------------------------------------------
Density initialized from wave functions:     1.495     1.495   0.1% |
 Symmetrize density:                         0.000     0.000   0.0% |
Forces:                                     64.849    64.849   2.3% ||
Hamiltonian:                                28.458     0.001   0.0% |
 Atomic:                                     0.001     0.001   0.0% |
  XC Correction:                             0.000     0.000   0.0% |
 Calculate atomic Hamiltonians:              0.002     0.002   0.0% |
 Communicate:                                1.014     1.014   0.0% |
 Hartree integrate/restrict:                 0.075     0.075   0.0% |
 Initialize Hamiltonian:                     0.000     0.000   0.0% |
 Poisson:                                    1.283     0.051   0.0% |
  Communicate from 1D:                       0.108     0.108   0.0% |
  Communicate from 2D:                       0.212     0.212   0.0% |
  Communicate to 1D:                         0.057     0.057   0.0% |
  Communicate to 2D:                         0.255     0.255   0.0% |
  FFT 1D:                                    0.265     0.265   0.0% |
  FFT 2D:                                    0.335     0.335   0.0% |
 XC 3D grid:                                25.879     5.549   0.2% |
  VdW-DF integral:                          20.330     0.201   0.0% |
   Convolution:                              2.149     2.149   0.1% |
   FFT:                                      1.174     1.174   0.0% |
   gather:                                   4.958     4.958   0.2% |
   hmm1:                                     0.322     0.322   0.0% |
   hmm2:                                     0.685     0.685   0.0% |
   iFFT:                                     1.190     1.190   0.0% |
   potential:                                5.319     0.112   0.0% |
    collect:                                 0.465     0.465   0.0% |
    p1:                                      3.125     3.125   0.1% |
    p2:                                      1.045     1.045   0.0% |
    sum:                                     0.572     0.572   0.0% |
   splines:                                  4.331     4.331   0.2% |
 vbar:                                       0.204     0.204   0.0% |
LCAO initialization:                        25.143     1.148   0.0% |
 LCAO eigensolver:                          12.860     0.003   0.0% |
  Calculate projections:                     0.000     0.000   0.0% |
  DenseAtomicCorrection:                     0.000     0.000   0.0% |
  Distribute overlap matrix:                12.379    12.379   0.4% |
  Orbital Layouts:                           0.377     0.377   0.0% |
  Potential matrix:                          0.029     0.029   0.0% |
  Sum over cells:                            0.071     0.071   0.0% |
 LCAO to grid:                               9.908     9.908   0.3% |
 Set positions (LCAO WFS):                   1.228     0.930   0.0% |
  Basic WFS set positions:                   0.001     0.001   0.0% |
  Basis functions set positions:             0.000     0.000   0.0% |
  P tci:                                     0.000     0.000   0.0% |
  ST tci:                                    0.223     0.223   0.0% |
  mktci:                                     0.072     0.072   0.0% |
Redistribute:                                0.002     0.002   0.0% |
SCF-cycle:                                2610.703    55.371   1.9% ||
 Davidson:                                2175.956   609.156  21.4% |--------|
  Apply hamiltonian:                        78.379    78.379   2.8% ||
  Subspace diag:                           289.375     0.011   0.0% |
   calc_h_matrix:                          152.430    72.727   2.6% ||
    Apply hamiltonian:                      79.703    79.703   2.8% ||
   diagonalize:                              2.965     2.965   0.1% |
   rotate_psi:                             133.969   133.969   4.7% |-|
  calc. matrices:                          916.004   474.105  16.7% |------|
   Apply hamiltonian:                      441.899   441.899  15.5% |-----|
  diagonalize:                              20.507    20.507   0.7% |
  rotate_psi:                              262.535   262.535   9.2% |---|
 Density:                                    6.500     0.002   0.0% |
  Atomic density matrices:                   0.339     0.339   0.0% |
  Mix:                                       1.788     1.788   0.1% |
  Multipole moments:                         0.031     0.031   0.0% |
  Pseudo density:                            4.340     4.337   0.2% |
   Symmetrize density:                       0.002     0.002   0.0% |
 Hamiltonian:                              355.281     0.011   0.0% |
  Atomic:                                    0.019     0.019   0.0% |
   XC Correction:                            0.000     0.000   0.0% |
  Calculate atomic Hamiltonians:             0.028     0.028   0.0% |
  Communicate:                              14.713    14.713   0.5% |
  Hartree integrate/restrict:                1.143     1.143   0.0% |
  Poisson:                                  19.107     0.687   0.0% |
   Communicate from 1D:                      1.553     1.553   0.1% |
   Communicate from 2D:                      3.174     3.174   0.1% |
   Communicate to 1D:                        0.856     0.856   0.0% |
   Communicate to 2D:                        3.866     3.866   0.1% |
   FFT 1D:                                   3.981     3.981   0.1% |
   FFT 2D:                                   4.991     4.991   0.2% |
  XC 3D grid:                              320.034    82.459   2.9% ||
   VdW-DF integral:                        237.575     2.966   0.1% |
    Convolution:                            32.117    32.117   1.1% |
    FFT:                                    17.442    17.442   0.6% |
    gather:                                 72.357    72.357   2.5% ||
    hmm1:                                    4.903     4.903   0.2% |
    hmm2:                                   10.061    10.061   0.4% |
    iFFT:                                   17.899    17.899   0.6% |
    potential:                              79.829     1.664   0.1% |
     collect:                                6.951     6.951   0.2% |
     p1:                                    47.461    47.461   1.7% ||
     p2:                                    15.627    15.627   0.5% |
     sum:                                    8.127     8.127   0.3% |
    splines:                                 0.000     0.000   0.0% |
  vbar:                                      0.225     0.225   0.0% |
 Orthonormalize:                            17.596     0.001   0.0% |
  calc_s_matrix:                             2.168     2.168   0.1% |
  inverse-cholesky:                         11.016    11.016   0.4% |
  projections:                               0.000     0.000   0.0% |
  rotate_psi_s:                              4.411     4.411   0.2% |
Set symmetry:                                0.001     0.001   0.0% |
Other:                                     116.600   116.600   4.1% |-|
-------------------------------------------------------------------
Total:                                              2847.252 100.0%

Memory usage: 2.05 GiB
Date: Tue Sep 26 12:18:55 2023
