
  ___ ___ ___ _ _ _  
 |   |   |_  | | | | 
 | | | | | . | | | | 
 |__ |  _|___|_____|  22.8.0
 |___|_|             

User:   s204775@c036.nifl.fysik.dtu.dk
Date:   Tue Sep 26 11:32:00 2023
Arch:   x86_64
Pid:    128679
CWD:    /home/cat/s204775/projects/Bachelor_project/OH_missing_features
Python: 3.10.4
gpaw:   /home/modules/software/GPAW/22.8.0-intel-2022a/lib/python3.10/site-packages/gpaw
_gpaw:  /home/modules/software/GPAW/22.8.0-intel-2022a/lib/python3.10/site-packages/
        _gpaw.cpython-310-x86_64-linux-gnu.so
ase:    /home/modules/software/ASE/3.22.1-intel-2022a/lib/python3.10/site-packages/ase (version 3.22.1)
numpy:  /home/modules/software/SciPy-bundle/2022.05-intel-2022a/lib/python3.10/site-packages/numpy (version 1.22.3)
scipy:  /home/modules/software/SciPy-bundle/2022.05-intel-2022a/lib/python3.10/site-packages/scipy (version 1.8.1)
libxc:  5.2.3
units:  Angstrom and eV
cores: 40
OpenMP: False
OMP_NUM_THREADS: 1

Input parameters:
  basis: dzp
  h: 0.18
  kpts: {size: (4, 4, 1)}
  xc: BEEF-vdW

System changes: positions, numbers, cell, pbc, initial_charges, initial_magmoms 

Initialize ...

species:
  Cu:
    name: Copper
    id: f1c4d45d90492f1bbfdcb091e8418fdf
    Z: 29.0
    valence: 11
    core: 18
    charge: 0.0
    file: /home/modules/software/GPAW-setups/0.9.20000/Cu.PBE.gz
    compensation charges: {type: gauss,
                           rc: 0.33,
                           lmax: 2}
    cutoffs: {filter: 2.06,
              core: 2.43}
    valence states:
      #              energy  rcut
      - 4s(1.00)    -4.609   1.164
      - 4p(0.00)    -0.698   1.164
      - 3d(10.00)    -5.039   1.058
      -  s          22.603   1.164
      -  p          26.513   1.164
      -  d          22.172   1.058
  
    # LCAO basis set for Cu:
    #   Name: dzp
    #   File: /home/modules/software/GPAW-setups/0.9.20000/Cu.dzp.basis.gz
    #   Number of radial functions: 5
    #   Number of spherical harmonics: 15
    #     l=0, rc=8.9688 Bohr: 4s-sz confined orbital
    #     l=2, rc=5.1719 Bohr: 3d-sz confined orbital
    #     l=0, rc=5.3281 Bohr: 4s-dz split-valence wave
    #     l=2, rc=3.1406 Bohr: 3d-dz split-valence wave
    #     l=1, rc=8.9688 Bohr: p-type Gaussian polarization
    #   Number of RI-basis functions 0

  O:
    name: Oxygen
    id: 32ecd46bf208036f09c70b0ec9a88b78
    Z: 8.0
    valence: 6
    core: 2
    charge: 0.0
    file: /home/modules/software/GPAW-setups/0.9.20000/O.PBE.gz
    compensation charges: {type: gauss,
                           rc: 0.21,
                           lmax: 2}
    cutoffs: {filter: 1.17,
              core: 0.83}
    valence states:
      #              energy  rcut
      - 2s(2.00)   -23.961   0.688
      - 2p(4.00)    -9.029   0.598
      -  s           3.251   0.688
      -  p          18.182   0.598
      -  d           0.000   0.619
  
    # LCAO basis set for O:
    #   Name: dzp
    #   File: /home/modules/software/GPAW-setups/0.9.20000/O.dzp.basis.gz
    #   Number of radial functions: 5
    #   Number of spherical harmonics: 13
    #     l=0, rc=4.3438 Bohr: 2s-sz confined orbital
    #     l=1, rc=5.3906 Bohr: 2p-sz confined orbital
    #     l=0, rc=2.2969 Bohr: 2s-dz split-valence wave
    #     l=1, rc=2.8906 Bohr: 2p-dz split-valence wave
    #     l=2, rc=5.3906 Bohr: d-type Gaussian polarization
    #   Number of RI-basis functions 0

  H:
    name: Hydrogen
    id: d65de229564ff8ea4db303e23b6d1ecf
    Z: 1.0
    valence: 1
    core: 0
    charge: 0.0
    file: /home/modules/software/GPAW-setups/0.9.20000/H.PBE.gz
    compensation charges: {type: gauss,
                           rc: 0.15,
                           lmax: 2}
    cutoffs: {filter: 0.85,
              core: 0.53}
    valence states:
      #              energy  rcut
      - 1s(1.00)    -6.494   0.476
      -  s          20.717   0.476
      -  p           0.000   0.476
  
    # LCAO basis set for H:
    #   Name: dzp
    #   File: /home/modules/software/GPAW-setups/0.9.20000/H.dzp.basis.gz
    #   Number of radial functions: 3
    #   Number of spherical harmonics: 5
    #     l=0, rc=6.4219 Bohr: 1s-sz confined orbital
    #     l=0, rc=3.6094 Bohr: 1s-dz split-valence wave
    #     l=1, rc=6.4219 Bohr: p-type Gaussian polarization
    #   Number of RI-basis functions 0

Reference energy: -1622825.608744  # eV

Spin-paired calculation

Convergence criteria:
 Maximum [total energy] change in last 3 cyles: 0.0005 eV / electron
 Maximum integral of absolute [dens]ity change: 0.0001 electrons / valence electron
 Maximum integral of absolute [eigenst]ate change: 4e-08 eV^2 / valence electron
 Maximum number of scf [iter]ations: 333
 (Square brackets indicate name in SCF output, whereas a 'c' in
 the SCF output indicates the quantity has converged.)

Symmetries present (total): 1

  ( 1  0  0)
  ( 0  1  0)
  ( 0  0  1)

16 k-points: 4 x 4 x 1 Monkhorst-Pack grid
8 k-points in the irreducible part of the Brillouin zone
       k-points in crystal coordinates                weights
   0:     0.12500000   -0.37500000    0.00000000          2/16
   1:     0.12500000   -0.12500000    0.00000000          2/16
   2:     0.12500000    0.12500000    0.00000000          2/16
   3:     0.12500000    0.37500000    0.00000000          2/16
   4:     0.37500000   -0.37500000    0.00000000          2/16
   5:     0.37500000   -0.12500000    0.00000000          2/16
   6:     0.37500000    0.12500000    0.00000000          2/16
   7:     0.37500000    0.37500000    0.00000000          2/16

Wave functions: Uniform real-space grid
  Kinetic energy operator: 8*3+1=25 point O(h^6) finite-difference Laplacian
  ScaLapack parameters: grid=1x1, blocksize=None
  Wavefunction extrapolation:
    Improved wavefunction reuse through dual PAW basis 

Occupation numbers: Fermi-Dirac:
  width: 0.1000  # eV
 

Eigensolver
   Davidson(niter=2) 

Densities:
  Coarse grid: 36*36*148 grid
  Fine grid: 72*72*296 grid
  Total Charge: 0.000000 

Density mixing:
  Method: separate
  Backend: pulay
  Linear mixing parameter: 0.05
  old densities: 5
  Damping of long wavelength oscillations: 50 

Hamiltonian:
  XC and Coulomb potentials evaluated on a 72*72*296 grid
  Using the BEEF-vdW Exchange-Correlation functional
  Interpolation: tri-quintic (5. degree polynomial)
  Poisson solver: FastPoissonSolver using
    Stencil: 8*3+1=25 point O(h^6) finite-difference Laplacian
    FFT axes: [0, 1]
    FST axes: [2]
 

XC parameters: BEEF-vdW with 2 nearest neighbor stencil

Memory estimate:
  Process memory now: 210.00 MiB
  Calculator: 346.74 MiB
    Density: 39.84 MiB
      Arrays: 7.57 MiB
      Localized functions: 29.40 MiB
      Mixer: 2.87 MiB
    Hamiltonian: 7.17 MiB
      Arrays: 4.95 MiB
      XC: 0.00 MiB
      Poisson: 0.00 MiB
      vbar: 2.21 MiB
    Wavefunctions: 299.73 MiB
      Arrays psit_nG: 141.08 MiB
      Eigensolver: 153.19 MiB
      Projections: 0.50 MiB
      Projectors: 4.97 MiB

Total number of cores used: 40
Parallelization over k-points: 8
Domain decomposition: 1 x 1 x 5

Number of atoms: 38
Number of atomic orbitals: 558
Number of bands in calculation: 246
Number of valence electrons: 403
Bands to converge: occupied

... initialized

Initializing position-dependent things.

Density initialized from atomic densities
Creating initial wave functions:
  246 bands from LCAO basis set

                                          
                                          
                                          
                                          
                                          
                                          
                  H                       
                  O                       
          Cu    Cu    Cu                  
            Cu    Cu    Cu                
           Cu    Cu    Cu                 
             Cu    CCu   CCu              
              Cu     Cu    Cu             
             Cu     Cu    Cu              
               Cu     Cu    Cu            
                 Cu    Cu     Cu          
          Cu    Cu    Cu                  
            Cu    Cu    Cu                
             Cu     Cu    Cu              
                                          
                                          
                                          
                                          

Positions:
   0 Cu     0.000000    0.000000    9.999999    ( 0.0000,  0.0000,  0.0000)
   1 Cu     1.303035    0.752307   12.127846    ( 0.0000,  0.0000,  0.0000)
   2 Cu    -0.000000    1.504615   14.261004    ( 0.0000,  0.0000,  0.0000)
   3 Cu     0.000000    0.000000   16.395505    ( 0.0000,  0.0000,  0.0000)
   4 Cu    -1.303035    2.256922    9.999999    ( 0.0000,  0.0000,  0.0000)
   5 Cu     0.000000    3.009230   12.127846    ( 0.0000,  0.0000,  0.0000)
   6 Cu    -1.303035    3.761537   14.261004    ( 0.0000,  0.0000,  0.0000)
   7 Cu    -1.303035    2.256922   16.395505    ( 0.0000,  0.0000,  0.0000)
   8 Cu    -2.606069    4.513845    9.999999    ( 0.0000,  0.0000,  0.0000)
   9 Cu    -1.303035    5.266152   12.127846    ( 0.0000,  0.0000,  0.0000)
  10 Cu    -2.606069    6.018460   14.261004    ( 0.0000,  0.0000,  0.0000)
  11 Cu    -2.606069    4.513845   16.395505    ( 0.0000,  0.0000,  0.0000)
  12 Cu     2.606069    0.000000    9.999999    ( 0.0000,  0.0000,  0.0000)
  13 Cu     3.909104    0.752307   12.127846    ( 0.0000,  0.0000,  0.0000)
  14 Cu     2.606069    1.504615   14.261004    ( 0.0000,  0.0000,  0.0000)
  15 Cu     2.606069   -0.000000   16.395505    ( 0.0000,  0.0000,  0.0000)
  16 Cu     1.303035    2.256922    9.999999    ( 0.0000,  0.0000,  0.0000)
  17 Cu     2.606069    3.009230   12.127846    ( 0.0000,  0.0000,  0.0000)
  18 Cu     1.303035    3.761537   14.261004    ( 0.0000,  0.0000,  0.0000)
  19 Cu     1.303035    2.256922   16.395505    ( 0.0000,  0.0000,  0.0000)
  20 Cu     0.000000    4.513845    9.999999    ( 0.0000,  0.0000,  0.0000)
  21 Cu     1.303035    5.266152   12.127846    ( 0.0000,  0.0000,  0.0000)
  22 Cu    -0.000000    6.018460   14.261004    ( 0.0000,  0.0000,  0.0000)
  23 Cu     0.000000    4.513845   16.395505    ( 0.0000,  0.0000,  0.0000)
  24 Cu     5.212139    0.000000    9.999999    ( 0.0000,  0.0000,  0.0000)
  25 Cu     6.515174    0.752307   12.127846    ( 0.0000,  0.0000,  0.0000)
  26 Cu     5.212139    1.504615   14.261004    ( 0.0000,  0.0000,  0.0000)
  27 Cu     5.212139   -0.000000   16.395505    ( 0.0000,  0.0000,  0.0000)
  28 Cu     3.909104    2.256922    9.999999    ( 0.0000,  0.0000,  0.0000)
  29 Cu     5.212139    3.009230   12.127846    ( 0.0000,  0.0000,  0.0000)
  30 Cu     3.909104    3.761537   14.261004    ( 0.0000,  0.0000,  0.0000)
  31 Cu     3.909104    2.256922   16.395505    ( 0.0000,  0.0000,  0.0000)
  32 Cu     2.606069    4.513845    9.999999    ( 0.0000,  0.0000,  0.0000)
  33 Cu     3.909104    5.266152   12.127846    ( 0.0000,  0.0000,  0.0000)
  34 Cu     2.606069    6.018460   14.261004    ( 0.0000,  0.0000,  0.0000)
  35 Cu     2.606069    4.513845   16.395505    ( 0.0000,  0.0000,  0.0000)
  36 O      1.303035    2.256922   18.395505    ( 0.0000,  0.0000,  0.0000)
  37 H      1.303035    2.256922   19.355505    ( 0.0000,  0.0000,  0.0000)

Unit cell:
           periodic     x           y           z      points  spacing
  1. axis:    yes    7.818208    0.000000    0.000000    36     0.1881
  2. axis:    yes   -3.909104    6.770767    0.000000    36     0.1881
  3. axis:    no     0.000000    0.000000   26.383539   148     0.1783

  Lengths:   7.818208   7.818208  26.383539
  Angles:   90.000000  90.000000 120.000000

Effective grid spacing dv^(1/3) = 0.1938

     iter     time        total  log10-change:
                         energy  eigst   dens
iter:   1 11:32:38 -2772.284550
iter:   2 11:32:59 -2772.984722  -0.45  -1.19
iter:   3 11:33:20 -2760.186143  -0.88  -1.22
iter:   4 11:33:40 -2755.413855  -0.61  -1.32
iter:   5 11:34:01 -2755.070767  -1.42  -1.44
iter:   6 11:34:21 -2751.859484  -1.30  -1.48
iter:   7 11:34:42 -2753.583891  -1.28  -1.67
iter:   8 11:35:02 -2751.034109  -2.12  -1.68
iter:   9 11:35:23 -2750.278417  -1.31  -1.78
iter:  10 11:35:43 -2750.438177  -1.73  -2.14
iter:  11 11:36:04 -2750.418643c -2.52  -2.24
iter:  12 11:36:24 -2750.402299c -3.17  -2.22
iter:  13 11:36:45 -2751.113445  -2.23  -2.21
iter:  14 11:37:05 -2750.497025  -2.73  -2.13
iter:  15 11:37:26 -2750.523612  -3.67  -2.19
iter:  16 11:37:46 -2750.090286  -2.33  -2.16
iter:  17 11:38:07 -2749.867756  -1.92  -2.36
iter:  18 11:38:27 -2749.851614  -2.61  -2.61
iter:  19 11:38:48 -2749.852863c -3.24  -2.88
iter:  20 11:39:08 -2749.846962c -3.98  -2.90
iter:  21 11:39:29 -2749.849678c -3.48  -2.95
iter:  22 11:39:49 -2749.842813c -4.26  -3.05
iter:  23 11:40:10 -2749.841219c -4.17  -3.11
iter:  24 11:40:30 -2749.839275c -4.37  -3.20
iter:  25 11:40:51 -2749.839393c -4.86  -3.65
iter:  26 11:41:11 -2749.839148c -4.81  -3.71
iter:  27 11:41:32 -2749.838963c -5.53  -3.74
iter:  28 11:41:52 -2749.838891c -5.78  -3.87
iter:  29 11:42:13 -2749.838956c -5.97  -3.94
iter:  30 11:42:33 -2749.839075c -5.71  -4.01c
iter:  31 11:42:54 -2749.839052c -6.20  -4.13c
iter:  32 11:43:14 -2749.838992c -6.63  -4.18c
iter:  33 11:43:35 -2749.838976c -6.93  -4.27c
iter:  34 11:43:55 -2749.838992c -6.85  -4.34c
iter:  35 11:44:16 -2749.839009c -6.64  -4.52c
iter:  36 11:44:36 -2749.838999c -7.20  -4.76c
iter:  37 11:44:57 -2749.839006c -7.87c -4.80c

Converged after 37 iterations.

Dipole moment: (-3.455827, -5.984422, -0.073835) |e|*Ang

Energy contributions relative to reference atoms: (reference = -1622825.608744)

Kinetic:       +235.704593
Potential:     -275.033734
External:        +0.000000
XC:            -2712.301440
Entropy (-ST):   -0.424499
Local:           +2.003825
--------------------------
Free energy:   -2750.051255
Extrapolated:  -2749.839006

Showing only first 2 kpts
 Kpt  Band  Eigenvalues  Occupancy
  0   199     -5.40122    1.95449
  0   200     -5.19560    1.69203
  0   201     -5.06966    1.21856
  0   202     -4.99751    0.86228

  1   199     -5.82398    1.99932
  1   200     -5.68724    1.99734
  1   201     -5.43041    1.96581
  1   202     -5.35459    1.92842


Fermi level: -5.02523

No gap

Forces in eV/Ang:
  0 Cu   -0.00665   -0.00930   -0.06235
  1 Cu   -0.00658    0.00175   -0.05016
  2 Cu    0.07060    0.03760    0.07070
  3 Cu   -0.06050   -0.11481   -0.00006
  4 Cu   -0.01419    0.00053   -0.06708
  5 Cu   -0.00289    0.00167   -0.05062
  6 Cu    0.02851   -0.01646    0.02182
  7 Cu   -0.12591    0.00165    0.01328
  8 Cu   -0.00251    0.00145   -0.06949
  9 Cu   -0.00357   -0.00078   -0.00150
 10 Cu    0.00306    0.03068    0.02997
 11 Cu    0.00035   -0.00021    0.00878
 12 Cu    0.00806   -0.00502   -0.07313
 13 Cu   -0.01487    0.00858    0.00426
 14 Cu   -0.06351    0.03667    0.06770
 15 Cu    0.06055   -0.11462    0.01330
 16 Cu    0.00109   -0.00063   -0.07170
 17 Cu   -0.00481    0.00482   -0.05016
 18 Cu    0.00274   -0.07995    0.07070
 19 Cu    0.00123   -0.00071    0.83407
 20 Cu   -0.00755    0.01203   -0.06708
 21 Cu    0.00005   -0.01509    0.00193
 22 Cu   -0.00518   -0.00475    0.03522
 23 Cu   -0.06436    0.10821    0.01327
 24 Cu   -0.00210    0.00122   -0.05470
 25 Cu    0.01310    0.00750    0.00193
 26 Cu    0.00152    0.00687    0.03522
 27 Cu    0.00247   -0.00143   -0.00672
 28 Cu    0.00838   -0.00447   -0.07313
 29 Cu   -0.00111    0.00349   -0.00150
 30 Cu   -0.02504   -0.01799    0.02997
 31 Cu    0.12955    0.00486    0.01331
 32 Cu    0.00473    0.01041   -0.06236
 33 Cu   -0.00483    0.00279   -0.00551
 34 Cu    0.01156   -0.00667    0.04389
 35 Cu    0.06915    0.10982   -0.00006
 36 O    -0.00086    0.00050   -0.97320
 37 H     0.00047   -0.00027    0.01820

      Step     Time          Energy         fmax
BFGS:    0 11:45:08    -2749.839006        0.9732
System changes: positions 

Initializing position-dependent things.

Density initialized from wave functions
                                          
                                          
                                          
                                          
                                          
                                          
                  H                       
                  O                       
          Cu    Cu    Cu                  
            Cu    Cu    Cu                
           Cu    Cu    Cu                 
             Cu    CCu   CCu              
              Cu     Cu    Cu             
             Cu     Cu    Cu              
               Cu     Cu    Cu            
                 Cu    Cu     Cu          
          Cu    Cu    Cu                  
            Cu    Cu    Cu                
             Cu     Cu    Cu              
                                          
                                          
                                          
                                          

Positions:
   0 Cu     0.000000    0.000000    9.999999    ( 0.0000,  0.0000,  0.0000)
   1 Cu     1.303035    0.752307   12.127846    ( 0.0000,  0.0000,  0.0000)
   2 Cu     0.001009    1.505152   14.262014    ( 0.0000,  0.0000,  0.0000)
   3 Cu    -0.000864   -0.001640   16.395504    ( 0.0000,  0.0000,  0.0000)
   4 Cu    -1.303035    2.256922    9.999999    ( 0.0000,  0.0000,  0.0000)
   5 Cu     0.000000    3.009230   12.127846    ( 0.0000,  0.0000,  0.0000)
   6 Cu    -1.302627    3.761302   14.261316    ( 0.0000,  0.0000,  0.0000)
   7 Cu    -1.304833    2.256946   16.395694    ( 0.0000,  0.0000,  0.0000)
   8 Cu    -2.606069    4.513845    9.999999    ( 0.0000,  0.0000,  0.0000)
   9 Cu    -1.303035    5.266152   12.127846    ( 0.0000,  0.0000,  0.0000)
  10 Cu    -2.606026    6.018898   14.261432    ( 0.0000,  0.0000,  0.0000)
  11 Cu    -2.606064    4.513842   16.395630    ( 0.0000,  0.0000,  0.0000)
  12 Cu     2.606069    0.000000    9.999999    ( 0.0000,  0.0000,  0.0000)
  13 Cu     3.909104    0.752307   12.127846    ( 0.0000,  0.0000,  0.0000)
  14 Cu     2.605162    1.505139   14.261971    ( 0.0000,  0.0000,  0.0000)
  15 Cu     2.606934   -0.001637   16.395695    ( 0.0000,  0.0000,  0.0000)
  16 Cu     1.303035    2.256922    9.999999    ( 0.0000,  0.0000,  0.0000)
  17 Cu     2.606069    3.009230   12.127846    ( 0.0000,  0.0000,  0.0000)
  18 Cu     1.303074    3.760395   14.262014    ( 0.0000,  0.0000,  0.0000)
  19 Cu     1.303052    2.256912   16.407420    ( 0.0000,  0.0000,  0.0000)
  20 Cu     0.000000    4.513845    9.999999    ( 0.0000,  0.0000,  0.0000)
  21 Cu     1.303035    5.266152   12.127846    ( 0.0000,  0.0000,  0.0000)
  22 Cu    -0.000074    6.018392   14.261507    ( 0.0000,  0.0000,  0.0000)
  23 Cu    -0.000919    4.515391   16.395694    ( 0.0000,  0.0000,  0.0000)
  24 Cu     5.212139    0.000000    9.999999    ( 0.0000,  0.0000,  0.0000)
  25 Cu     6.515174    0.752307   12.127846    ( 0.0000,  0.0000,  0.0000)
  26 Cu     5.212161    1.504713   14.261507    ( 0.0000,  0.0000,  0.0000)
  27 Cu     5.212174   -0.000020   16.395409    ( 0.0000,  0.0000,  0.0000)
  28 Cu     3.909104    2.256922    9.999999    ( 0.0000,  0.0000,  0.0000)
  29 Cu     5.212139    3.009230   12.127846    ( 0.0000,  0.0000,  0.0000)
  30 Cu     3.908746    3.761280   14.261432    ( 0.0000,  0.0000,  0.0000)
  31 Cu     3.910955    2.256992   16.395695    ( 0.0000,  0.0000,  0.0000)
  32 Cu     2.606069    4.513845    9.999999    ( 0.0000,  0.0000,  0.0000)
  33 Cu     3.909104    5.266152   12.127846    ( 0.0000,  0.0000,  0.0000)
  34 Cu     2.606235    6.018364   14.261631    ( 0.0000,  0.0000,  0.0000)
  35 Cu     2.607057    4.515414   16.395504    ( 0.0000,  0.0000,  0.0000)
  36 O      1.303022    2.256929   18.381602    ( 0.0000,  0.0000,  0.0000)
  37 H      1.303041    2.256918   19.355765    ( 0.0000,  0.0000,  0.0000)

Unit cell:
           periodic     x           y           z      points  spacing
  1. axis:    yes    7.818208    0.000000    0.000000    36     0.1881
  2. axis:    yes   -3.909104    6.770767    0.000000    36     0.1881
  3. axis:    no     0.000000    0.000000   26.383539   148     0.1783

  Lengths:   7.818208   7.818208  26.383539
  Angles:   90.000000  90.000000 120.000000

Effective grid spacing dv^(1/3) = 0.1938

     iter     time        total  log10-change:
                         energy  eigst   dens
iter:   1 11:45:59 -2749.860164  -2.94
iter:   2 11:46:20 -2749.859273  -3.97  -3.50
iter:   3 11:46:41 -2749.857834c -4.24  -3.53
iter:   4 11:47:02 -2749.857646c -5.09  -3.65
iter:   5 11:47:23 -2749.857159c -4.77  -3.70
iter:   6 11:47:44 -2749.856815c -4.61  -3.86
iter:   7 11:48:05 -2749.856718c -5.43  -4.15c
iter:   8 11:48:26 -2749.856707c -6.27  -4.24c
iter:   9 11:48:47 -2749.856667c -5.82  -4.28c
iter:  10 11:49:08 -2749.856653c -6.21  -4.56c
iter:  11 11:49:29 -2749.856654c -6.67  -4.72c
iter:  12 11:49:50 -2749.856653c -7.67c -4.73c

Converged after 12 iterations.

Dipole moment: (-3.395313, -5.886773, -0.054665) |e|*Ang

Energy contributions relative to reference atoms: (reference = -1622825.608744)

Kinetic:       +234.708627
Potential:     -274.226439
External:        +0.000000
XC:            -2712.126240
Entropy (-ST):   -0.424712
Local:           +1.999755
--------------------------
Free energy:   -2750.069009
Extrapolated:  -2749.856653

Showing only first 2 kpts
 Kpt  Band  Eigenvalues  Occupancy
  0   199     -5.38076    1.95460
  0   200     -5.17523    1.69293
  0   201     -5.04813    1.21465
  0   202     -4.97545    0.85564

  1   199     -5.80551    1.99934
  1   200     -5.66823    1.99738
  1   201     -5.41126    1.96633
  1   202     -5.33241    1.92739


Fermi level: -5.00452

No gap

Forces in eV/Ang:
  0 Cu   -0.00659   -0.00936   -0.06263
  1 Cu   -0.00658    0.00060   -0.05497
  2 Cu    0.05386    0.02888    0.07692
  3 Cu   -0.04307   -0.08198   -0.00673
  4 Cu   -0.01408    0.00061   -0.06761
  5 Cu   -0.00378    0.00218   -0.05534
  6 Cu    0.01872   -0.01081    0.02082
  7 Cu   -0.08959    0.00108    0.00472
  8 Cu   -0.00256    0.00148   -0.06983
  9 Cu   -0.00424   -0.00105   -0.00340
 10 Cu    0.00228    0.01968    0.02744
 11 Cu    0.00012   -0.00007    0.00622
 12 Cu    0.00806   -0.00494   -0.07355
 13 Cu   -0.01503    0.00868    0.00344
 14 Cu   -0.04860    0.02806    0.07450
 15 Cu    0.04301   -0.08175    0.00490
 16 Cu    0.00107   -0.00062   -0.07218
 17 Cu   -0.00381    0.00540   -0.05497
 18 Cu    0.00191   -0.06108    0.07692
 19 Cu    0.00102   -0.00059    0.59858
 20 Cu   -0.00757    0.01189   -0.06761
 21 Cu    0.00015   -0.01540    0.00134
 22 Cu   -0.00260   -0.00310    0.02947
 23 Cu   -0.04571    0.07704    0.00471
 24 Cu   -0.00207    0.00119   -0.05538
 25 Cu    0.01341    0.00757    0.00134
 26 Cu    0.00139    0.00380    0.02947
 27 Cu    0.00214   -0.00123   -0.00607
 28 Cu    0.00831   -0.00451   -0.07355
 29 Cu   -0.00121    0.00420   -0.00340
 30 Cu   -0.01590   -0.01181    0.02744
 31 Cu    0.09231    0.00362    0.00491
 32 Cu    0.00481    0.01039   -0.06263
 33 Cu   -0.00411    0.00237   -0.00721
 34 Cu    0.00748   -0.00432    0.03647
 35 Cu    0.04944    0.07831   -0.00673
 36 O    -0.00083    0.00048   -0.05787
 37 H     0.00049   -0.00028   -0.68801

BFGS:    1 11:50:01    -2749.856653        0.6880
System changes: positions 

Initializing position-dependent things.

Density initialized from wave functions
                                          
                                          
                                          
                                          
                                          
                                          
                  H                       
                  O                       
          Cu    Cu     Cu                 
            Cu    Cu    Cu                
           Cu    Cu    Cu                 
             Cu    CCu   CCu              
              Cu     Cu    Cu             
             Cu     Cu    Cu              
               Cu     Cu    Cu            
                 Cu    Cu     Cu          
          Cu    Cu    Cu                  
            Cu    Cu    Cu                
             Cu     Cu    Cu              
                                          
                                          
                                          
                                          

Positions:
   0 Cu     0.000000    0.000000    9.999999    ( 0.0000,  0.0000,  0.0000)
   1 Cu     1.303035    0.752307   12.127846    ( 0.0000,  0.0000,  0.0000)
   2 Cu     0.003175    1.506311   14.264701    ( 0.0000,  0.0000,  0.0000)
   3 Cu    -0.002652   -0.005038   16.395352    ( 0.0000,  0.0000,  0.0000)
   4 Cu    -1.303035    2.256922    9.999999    ( 0.0000,  0.0000,  0.0000)
   5 Cu     0.000000    3.009230   12.127846    ( 0.0000,  0.0000,  0.0000)
   6 Cu    -1.301821    3.760836   14.262079    ( 0.0000,  0.0000,  0.0000)
   7 Cu    -1.308552    2.256993   16.395980    ( 0.0000,  0.0000,  0.0000)
   8 Cu    -2.606069    4.513845    9.999999    ( 0.0000,  0.0000,  0.0000)
   9 Cu    -1.303035    5.266152   12.127846    ( 0.0000,  0.0000,  0.0000)
  10 Cu    -2.605933    6.019756   14.262454    ( 0.0000,  0.0000,  0.0000)
  11 Cu    -2.606057    4.513837   16.395889    ( 0.0000,  0.0000,  0.0000)
  12 Cu     2.606069    0.000000    9.999999    ( 0.0000,  0.0000,  0.0000)
  13 Cu     3.909104    0.752307   12.127846    ( 0.0000,  0.0000,  0.0000)
  14 Cu     2.603210    1.506266   14.264563    ( 0.0000,  0.0000,  0.0000)
  15 Cu     2.608721   -0.005027   16.395985    ( 0.0000,  0.0000,  0.0000)
  16 Cu     1.303035    2.256922    9.999999    ( 0.0000,  0.0000,  0.0000)
  17 Cu     2.606069    3.009230   12.127846    ( 0.0000,  0.0000,  0.0000)
  18 Cu     1.303154    3.757939   14.264701    ( 0.0000,  0.0000,  0.0000)
  19 Cu     1.303092    2.256889   16.432171    ( 0.0000,  0.0000,  0.0000)
  20 Cu     0.000000    4.513845    9.999999    ( 0.0000,  0.0000,  0.0000)
  21 Cu     1.303035    5.266152   12.127846    ( 0.0000,  0.0000,  0.0000)
  22 Cu    -0.000203    6.018258   14.262646    ( 0.0000,  0.0000,  0.0000)
  23 Cu    -0.002819    4.518588   16.395980    ( 0.0000,  0.0000,  0.0000)
  24 Cu     5.212139    0.000000    9.999999    ( 0.0000,  0.0000,  0.0000)
  25 Cu     6.515174    0.752307   12.127846    ( 0.0000,  0.0000,  0.0000)
  26 Cu     5.212213    1.504891   14.262646    ( 0.0000,  0.0000,  0.0000)
  27 Cu     5.212256   -0.000067   16.395181    ( 0.0000,  0.0000,  0.0000)
  28 Cu     3.909104    2.256922    9.999999    ( 0.0000,  0.0000,  0.0000)
  29 Cu     5.212139    3.009230   12.127846    ( 0.0000,  0.0000,  0.0000)
  30 Cu     3.908050    3.760771   14.262455    ( 0.0000,  0.0000,  0.0000)
  31 Cu     3.914785    2.257139   16.395985    ( 0.0000,  0.0000,  0.0000)
  32 Cu     2.606069    4.513845    9.999999    ( 0.0000,  0.0000,  0.0000)
  33 Cu     3.909104    5.266152   12.127846    ( 0.0000,  0.0000,  0.0000)
  34 Cu     2.606559    6.018177   14.263045    ( 0.0000,  0.0000,  0.0000)
  35 Cu     2.609105    4.518661   16.395352    ( 0.0000,  0.0000,  0.0000)
  36 O      1.302992    2.256947   18.367132    ( 0.0000,  0.0000,  0.0000)
  37 H      1.303059    2.256908   19.340534    ( 0.0000,  0.0000,  0.0000)

Unit cell:
           periodic     x           y           z      points  spacing
  1. axis:    yes    7.818208    0.000000    0.000000    36     0.1881
  2. axis:    yes   -3.909104    6.770767    0.000000    36     0.1881
  3. axis:    no     0.000000    0.000000   26.383539   148     0.1783

  Lengths:   7.818208   7.818208  26.383539
  Angles:   90.000000  90.000000 120.000000

Effective grid spacing dv^(1/3) = 0.1938

     iter     time        total  log10-change:
                         energy  eigst   dens
iter:   1 11:50:52 -2749.945006  -2.56
iter:   2 11:51:13 -2749.895935  -3.29  -2.71
iter:   3 11:51:34 -2749.883446c -4.02  -3.01
iter:   4 11:51:54 -2749.880263c -4.34  -3.25
iter:   5 11:52:15 -2749.879790c -4.44  -3.60
iter:   6 11:52:36 -2749.879826c -4.83  -3.71
iter:   7 11:52:57 -2749.879466c -5.12  -3.80
iter:   8 11:53:18 -2749.879403c -5.76  -4.05c
iter:   9 11:53:39 -2749.879388c -5.72  -4.10c
iter:  10 11:53:59 -2749.879408c -5.90  -4.39c
iter:  11 11:54:20 -2749.879386c -6.69  -4.37c
iter:  12 11:54:41 -2749.879381c -6.31  -4.55c
iter:  13 11:55:02 -2749.879376c -6.98  -4.73c
iter:  14 11:55:23 -2749.879377c -7.08  -4.84c
iter:  15 11:55:43 -2749.879376c -7.05  -4.95c
iter:  16 11:56:04 -2749.879377c -8.14c -5.08c

Converged after 16 iterations.

Dipole moment: (-3.265524, -5.678037, -0.032301) |e|*Ang

Energy contributions relative to reference atoms: (reference = -1622825.608744)

Kinetic:       +234.961040
Potential:     -274.460681
External:        +0.000000
XC:            -2712.179578
Entropy (-ST):   -0.425019
Local:           +2.012351
--------------------------
Free energy:   -2750.091886
Extrapolated:  -2749.879377

Showing only first 2 kpts
 Kpt  Band  Eigenvalues  Occupancy
  0   199     -5.35609    1.95421
  0   200     -5.15219    1.69489
  0   201     -5.02330    1.20974
  0   202     -4.94992    0.84722

  1   199     -5.78429    1.99935
  1   200     -5.64666    1.99744
  1   201     -5.39011    1.96720
  1   202     -5.30676    1.92610


Fermi level: -4.98071

No gap

Forces in eV/Ang:
  0 Cu   -0.00700   -0.01004   -0.06319
  1 Cu   -0.00665    0.00291   -0.04622
  2 Cu    0.02052    0.01148    0.06627
  3 Cu   -0.00728   -0.01458   -0.00537
  4 Cu   -0.01474    0.00060   -0.06842
  5 Cu   -0.00147    0.00085   -0.04647
  6 Cu    0.00228   -0.00132    0.00663
  7 Cu   -0.01536    0.00035    0.00208
  8 Cu   -0.00256    0.00148   -0.07104
  9 Cu   -0.00365   -0.00064    0.00303
 10 Cu    0.00085    0.00124    0.00958
 11 Cu    0.00045   -0.00026    0.00930
 12 Cu    0.00861   -0.00546   -0.07432
 13 Cu   -0.01716    0.00991    0.01378
 14 Cu   -0.01904    0.01100    0.06530
 15 Cu    0.00779   -0.01441    0.00248
 16 Cu    0.00108   -0.00062   -0.07240
 17 Cu   -0.00585    0.00430   -0.04622
 18 Cu    0.00032   -0.02351    0.06627
 19 Cu    0.00067   -0.00039    0.26807
 20 Cu   -0.00789    0.01247   -0.06842
 21 Cu    0.00040   -0.01799    0.01220
 22 Cu    0.00218    0.00023    0.00763
 23 Cu   -0.00798    0.01313    0.00208
 24 Cu   -0.00206    0.00119   -0.05608
 25 Cu    0.01577    0.00865    0.01220
 26 Cu    0.00089   -0.00200    0.00763
 27 Cu    0.00051   -0.00029    0.00211
 28 Cu    0.00903   -0.00473   -0.07432
 29 Cu   -0.00127    0.00348    0.00303
 30 Cu   -0.00065   -0.00135    0.00958
 31 Cu    0.01637    0.00045    0.00249
 32 Cu    0.00520    0.01108   -0.06319
 33 Cu   -0.00464    0.00268   -0.00040
 34 Cu   -0.00083    0.00048    0.01025
 35 Cu    0.00899    0.01359   -0.00537
 36 O    -0.00147    0.00085    0.18694
 37 H     0.00058   -0.00034   -0.69815

BFGS:    2 11:56:15    -2749.879377        0.6982
System changes: positions 

Initializing position-dependent things.

Density initialized from wave functions
                                          
                                          
                                          
                                          
                                          
                                          
                  H                       
                  O                       
          Cu    Cu     Cu                 
            Cu    Cu    Cu                
           Cu    Cu    Cu                 
             Cu    CCu   CCu              
              Cu     Cu    Cu             
             Cu     Cu    Cu              
               Cu     Cu    Cu            
                 Cu    Cu     Cu          
          Cu    Cu    Cu                  
            Cu    Cu    Cu                
             Cu     Cu    Cu              
                                          
                                          
                                          
                                          

Positions:
   0 Cu     0.000000    0.000000    9.999999    ( 0.0000,  0.0000,  0.0000)
   1 Cu     1.303035    0.752307   12.127846    ( 0.0000,  0.0000,  0.0000)
   2 Cu     0.005655    1.507649   14.268731    ( 0.0000,  0.0000,  0.0000)
   3 Cu    -0.004442   -0.008459   16.395142    ( 0.0000,  0.0000,  0.0000)
   4 Cu    -1.303035    2.256922    9.999999    ( 0.0000,  0.0000,  0.0000)
   5 Cu     0.000000    3.009230   12.127846    ( 0.0000,  0.0000,  0.0000)
   6 Cu    -1.301023    3.760376   14.262882    ( 0.0000,  0.0000,  0.0000)
   7 Cu    -1.312283    2.257045   16.396356    ( 0.0000,  0.0000,  0.0000)
   8 Cu    -2.606069    4.513845    9.999999    ( 0.0000,  0.0000,  0.0000)
   9 Cu    -1.303035    5.266152   12.127846    ( 0.0000,  0.0000,  0.0000)
  10 Cu    -2.605827    6.020574   14.263564    ( 0.0000,  0.0000,  0.0000)
  11 Cu    -2.606035    4.513825   16.396400    ( 0.0000,  0.0000,  0.0000)
  12 Cu     2.606069    0.000000    9.999999    ( 0.0000,  0.0000,  0.0000)
  13 Cu     3.909104    0.752307   12.127846    ( 0.0000,  0.0000,  0.0000)
  14 Cu     2.600960    1.507565   14.268484    ( 0.0000,  0.0000,  0.0000)
  15 Cu     2.610527   -0.008438   16.396375    ( 0.0000,  0.0000,  0.0000)
  16 Cu     1.303035    2.256922    9.999999    ( 0.0000,  0.0000,  0.0000)
  17 Cu     2.606069    3.009230   12.127846    ( 0.0000,  0.0000,  0.0000)
  18 Cu     1.303235    3.755123   14.268731    ( 0.0000,  0.0000,  0.0000)
  19 Cu     1.303145    2.256859   16.461991    ( 0.0000,  0.0000,  0.0000)
  20 Cu     0.000000    4.513845    9.999999    ( 0.0000,  0.0000,  0.0000)
  21 Cu     1.303035    5.266152   12.127846    ( 0.0000,  0.0000,  0.0000)
  22 Cu    -0.000263    6.018144   14.263821    ( 0.0000,  0.0000,  0.0000)
  23 Cu    -0.004729    4.521793   16.396355    ( 0.0000,  0.0000,  0.0000)
  24 Cu     5.212139    0.000000    9.999999    ( 0.0000,  0.0000,  0.0000)
  25 Cu     6.515174    0.752307   12.127846    ( 0.0000,  0.0000,  0.0000)
  26 Cu     5.212281    1.505001   14.263821    ( 0.0000,  0.0000,  0.0000)
  27 Cu     5.212338   -0.000115   16.395063    ( 0.0000,  0.0000,  0.0000)
  28 Cu     3.909104    2.256922    9.999999    ( 0.0000,  0.0000,  0.0000)
  29 Cu     5.212139    3.009230   12.127846    ( 0.0000,  0.0000,  0.0000)
  30 Cu     3.907394    3.760270   14.263564    ( 0.0000,  0.0000,  0.0000)
  31 Cu     3.918641    2.257280   16.396375    ( 0.0000,  0.0000,  0.0000)
  32 Cu     2.606069    4.513845    9.999999    ( 0.0000,  0.0000,  0.0000)
  33 Cu     3.909104    5.266152   12.127846    ( 0.0000,  0.0000,  0.0000)
  34 Cu     2.606828    6.018022   14.264530    ( 0.0000,  0.0000,  0.0000)
  35 Cu     2.611172    4.521922   16.395142    ( 0.0000,  0.0000,  0.0000)
  36 O      1.302924    2.256987   18.351862    ( 0.0000,  0.0000,  0.0000)
  37 H      1.303090    2.256890   19.315027    ( 0.0000,  0.0000,  0.0000)

Unit cell:
           periodic     x           y           z      points  spacing
  1. axis:    yes    7.818208    0.000000    0.000000    36     0.1881
  2. axis:    yes   -3.909104    6.770767    0.000000    36     0.1881
  3. axis:    no     0.000000    0.000000   26.383539   148     0.1783

  Lengths:   7.818208   7.818208  26.383539
  Angles:   90.000000  90.000000 120.000000

Effective grid spacing dv^(1/3) = 0.1938

     iter     time        total  log10-change:
                         energy  eigst   dens
iter:   1 11:57:07 -2750.048889  -2.37
iter:   2 11:57:27 -2749.931728  -2.95  -2.53
iter:   3 11:57:48 -2749.902060c -3.66  -2.82
iter:   4 11:58:09 -2749.892982c -4.06  -3.05
iter:   5 11:58:30 -2749.892079c -4.55  -3.50
iter:   6 11:58:50 -2749.892027c -4.51  -3.62
iter:   7 11:59:11 -2749.891622c -4.91  -3.70
iter:   8 11:59:32 -2749.891569c -5.46  -3.90
iter:   9 11:59:53 -2749.891537c -5.26  -3.97
iter:  10 12:00:13 -2749.891558c -5.61  -4.26c
iter:  11 12:00:34 -2749.891539c -6.38  -4.42c
iter:  12 12:00:55 -2749.891507c -6.45  -4.37c
iter:  13 12:01:16 -2749.891499c -6.79  -4.47c
iter:  14 12:01:36 -2749.891513c -6.72  -4.59c
iter:  15 12:01:57 -2749.891493c -6.55  -4.59c
iter:  16 12:02:18 -2749.891505c -6.96  -4.79c
iter:  17 12:02:39 -2749.891493c -7.11  -4.79c
iter:  18 12:02:59 -2749.891498c -7.79c -4.99c

Converged after 18 iterations.

Dipole moment: (-3.133865, -5.468577, -0.009501) |e|*Ang

Energy contributions relative to reference atoms: (reference = -1622825.608744)

Kinetic:       +236.038494
Potential:     -275.337433
External:        +0.000000
XC:            -2712.393673
Entropy (-ST):   -0.425377
Local:           +2.013803
--------------------------
Free energy:   -2750.104186
Extrapolated:  -2749.891498

Showing only first 2 kpts
 Kpt  Band  Eigenvalues  Occupancy
  0   199     -5.33010    1.95348
  0   200     -5.12859    1.69686
  0   201     -4.99775    1.20406
  0   202     -4.92368    0.83803

  1   199     -5.76205    1.99937
  1   200     -5.62429    1.99749
  1   201     -5.36843    1.96805
  1   202     -5.28022    1.92452


Fermi level: -4.95636

No gap

Forces in eV/Ang:
  0 Cu   -0.00724   -0.01058   -0.06256
  1 Cu   -0.00666    0.00405   -0.03922
  2 Cu   -0.01622   -0.00787    0.05550
  3 Cu    0.02641    0.04794   -0.00716
  4 Cu   -0.01509    0.00068   -0.06809
  5 Cu   -0.00021    0.00012   -0.03936
  6 Cu   -0.01464    0.00845   -0.00461
  7 Cu    0.05397    0.00002   -0.00518
  8 Cu   -0.00260    0.00150   -0.07069
  9 Cu   -0.00375   -0.00053    0.00706
 10 Cu   -0.00066   -0.01714   -0.00583
 11 Cu    0.00037   -0.00021    0.00928
 12 Cu    0.00896   -0.00576   -0.07389
 13 Cu   -0.01891    0.01092    0.02277
 14 Cu    0.01431   -0.00826    0.05556
 15 Cu   -0.02579    0.04821   -0.00462
 16 Cu    0.00105   -0.00060   -0.07205
 17 Cu   -0.00684    0.00374   -0.03922
 18 Cu   -0.00129    0.01798    0.05550
 19 Cu    0.00104   -0.00060   -0.19956
 20 Cu   -0.00813    0.01273   -0.06809
 21 Cu    0.00063   -0.02023    0.02167
 22 Cu    0.00538    0.00301   -0.01174
 23 Cu    0.02695   -0.04675   -0.00518
 24 Cu   -0.00204    0.00118   -0.05535
 25 Cu    0.01784    0.00957    0.02167
 26 Cu    0.00009   -0.00616   -0.01174
 27 Cu   -0.00092    0.00053    0.00867
 28 Cu    0.00947   -0.00488   -0.07389
 29 Cu   -0.00141    0.00351    0.00706
 30 Cu    0.01452    0.00914   -0.00583
 31 Cu   -0.05465   -0.00177   -0.00462
 32 Cu    0.00555    0.01156   -0.06256
 33 Cu   -0.00448    0.00259    0.00408
 34 Cu   -0.00785    0.00453   -0.01377
 35 Cu   -0.02830   -0.04685   -0.00716
 36 O    -0.00192    0.00111   -0.06237
 37 H     0.00072   -0.00042   -0.22229

BFGS:    3 12:03:10    -2749.891498        0.2223
System changes: positions 

Initializing position-dependent things.

Density initialized from wave functions
                                          
                                          
                                          
                                          
                                          
                                          
                  H                       
                  O                       
          Cu    Cu     Cu                 
            Cu    Cu    Cu                
           Cu    Cu    Cu                 
             Cu    CCu   CCu              
              Cu     Cu    Cu             
             Cu     Cu    Cu              
               Cu     Cu    Cu            
                 Cu    Cu     Cu          
          Cu    Cu    Cu                  
            Cu    Cu    Cu                
             Cu     Cu    Cu              
                                          
                                          
                                          
                                          

Positions:
   0 Cu     0.000000    0.000000    9.999999    ( 0.0000,  0.0000,  0.0000)
   1 Cu     1.303035    0.752307   12.127846    ( 0.0000,  0.0000,  0.0000)
   2 Cu     0.005487    1.507570   14.269591    ( 0.0000,  0.0000,  0.0000)
   3 Cu    -0.004117   -0.007875   16.395040    ( 0.0000,  0.0000,  0.0000)
   4 Cu    -1.303035    2.256922    9.999999    ( 0.0000,  0.0000,  0.0000)
   5 Cu     0.000000    3.009230   12.127846    ( 0.0000,  0.0000,  0.0000)
   6 Cu    -1.301207    3.760482   14.262835    ( 0.0000,  0.0000,  0.0000)
   7 Cu    -1.311622    2.257047   16.396295    ( 0.0000,  0.0000,  0.0000)
   8 Cu    -2.606069    4.513845    9.999999    ( 0.0000,  0.0000,  0.0000)
   9 Cu    -1.303035    5.266152   12.127846    ( 0.0000,  0.0000,  0.0000)
  10 Cu    -2.605834    6.020356   14.263507    ( 0.0000,  0.0000,  0.0000)
  11 Cu    -2.606029    4.513821   16.396541    ( 0.0000,  0.0000,  0.0000)
  12 Cu     2.606069    0.000000    9.999999    ( 0.0000,  0.0000,  0.0000)
  13 Cu     3.909104    0.752307   12.127846    ( 0.0000,  0.0000,  0.0000)
  14 Cu     2.601108    1.507480   14.269342    ( 0.0000,  0.0000,  0.0000)
  15 Cu     2.610212   -0.007849   16.396321    ( 0.0000,  0.0000,  0.0000)
  16 Cu     1.303035    2.256922    9.999999    ( 0.0000,  0.0000,  0.0000)
  17 Cu     2.606069    3.009230   12.127846    ( 0.0000,  0.0000,  0.0000)
  18 Cu     1.303219    3.755308   14.269591    ( 0.0000,  0.0000,  0.0000)
  19 Cu     1.303161    2.256849   16.459905    ( 0.0000,  0.0000,  0.0000)
  20 Cu     0.000000    4.513845    9.999999    ( 0.0000,  0.0000,  0.0000)
  21 Cu     1.303035    5.266152   12.127846    ( 0.0000,  0.0000,  0.0000)
  22 Cu    -0.000191    6.018183   14.263684    ( 0.0000,  0.0000,  0.0000)
  23 Cu    -0.004400    4.521219   16.396294    ( 0.0000,  0.0000,  0.0000)
  24 Cu     5.212139    0.000000    9.999999    ( 0.0000,  0.0000,  0.0000)
  25 Cu     6.515174    0.752307   12.127846    ( 0.0000,  0.0000,  0.0000)
  26 Cu     5.212284    1.504919   14.263684    ( 0.0000,  0.0000,  0.0000)
  27 Cu     5.212327   -0.000108   16.395182    ( 0.0000,  0.0000,  0.0000)
  28 Cu     3.909104    2.256922    9.999999    ( 0.0000,  0.0000,  0.0000)
  29 Cu     5.212139    3.009230   12.127846    ( 0.0000,  0.0000,  0.0000)
  30 Cu     3.907580    3.760385   14.263507    ( 0.0000,  0.0000,  0.0000)
  31 Cu     3.917974    2.257258   16.396322    ( 0.0000,  0.0000,  0.0000)
  32 Cu     2.606069    4.513845    9.999999    ( 0.0000,  0.0000,  0.0000)
  33 Cu     3.909104    5.266152   12.127846    ( 0.0000,  0.0000,  0.0000)
  34 Cu     2.606726    6.018081   14.264371    ( 0.0000,  0.0000,  0.0000)
  35 Cu     2.610828    4.521349   16.395040    ( 0.0000,  0.0000,  0.0000)
  36 O      1.302895    2.257003   18.350150    ( 0.0000,  0.0000,  0.0000)
  37 H      1.303100    2.256884   19.311793    ( 0.0000,  0.0000,  0.0000)

Unit cell:
           periodic     x           y           z      points  spacing
  1. axis:    yes    7.818208    0.000000    0.000000    36     0.1881
  2. axis:    yes   -3.909104    6.770767    0.000000    36     0.1881
  3. axis:    no     0.000000    0.000000   26.383539   148     0.1783

  Lengths:   7.818208   7.818208  26.383539
  Angles:   90.000000  90.000000 120.000000

Effective grid spacing dv^(1/3) = 0.1938

     iter     time        total  log10-change:
                         energy  eigst   dens
iter:   1 12:04:02 -2749.893254  -4.42
iter:   2 12:04:23 -2749.893088  -5.43  -4.03c
iter:   3 12:04:43 -2749.893029c -5.94  -4.08c
iter:   4 12:05:04 -2749.893017c -6.01  -4.25c
iter:   5 12:05:25 -2749.893049c -6.14  -4.44c
iter:   6 12:05:46 -2749.893034c -6.31  -4.71c
iter:   7 12:06:06 -2749.893015c -6.69  -4.67c
iter:   8 12:06:27 -2749.893015c -7.27  -4.88c
iter:   9 12:06:48 -2749.893021c -7.29  -5.03c
iter:  10 12:07:09 -2749.893024c -7.58c -5.22c

Converged after 10 iterations.

Dipole moment: (-3.157297, -5.507239, -0.008916) |e|*Ang

Energy contributions relative to reference atoms: (reference = -1622825.608744)

Kinetic:       +236.124859
Potential:     -275.401233
External:        +0.000000
XC:            -2712.420366
Entropy (-ST):   -0.425345
Local:           +2.016388
--------------------------
Free energy:   -2750.105696
Extrapolated:  -2749.893024

Showing only first 2 kpts
 Kpt  Band  Eigenvalues  Occupancy
  0   199     -5.32987    1.95348
  0   200     -5.12826    1.69663
  0   201     -4.99750    1.20401
  0   202     -4.92374    0.83951

  1   199     -5.76199    1.99937
  1   200     -5.62410    1.99749
  1   201     -5.36812    1.96803
  1   202     -5.27982    1.92441


Fermi level: -4.95612

No gap

Forces in eV/Ang:
  0 Cu   -0.00734   -0.01087   -0.06407
  1 Cu   -0.00662    0.00495   -0.03655
  2 Cu   -0.01218   -0.00585    0.04372
  3 Cu    0.01883    0.03364   -0.00661
  4 Cu   -0.01542    0.00070   -0.06956
  5 Cu    0.00047   -0.00027   -0.03677
  6 Cu   -0.00915    0.00529   -0.00378
  7 Cu    0.03784    0.00044   -0.00504
  8 Cu   -0.00260    0.00150   -0.07238
  9 Cu   -0.00350   -0.00041    0.00603
 10 Cu   -0.00044   -0.01069   -0.00505
 11 Cu    0.00034   -0.00019    0.00791
 12 Cu    0.00910   -0.00604   -0.07542
 13 Cu   -0.01937    0.01118    0.02269
 14 Cu    0.01068   -0.00617    0.04379
 15 Cu   -0.01836    0.03380   -0.00456
 16 Cu    0.00107   -0.00062   -0.07382
 17 Cu   -0.00759    0.00325   -0.03655
 18 Cu   -0.00102    0.01347    0.04372
 19 Cu    0.00078   -0.00045   -0.19670
 20 Cu   -0.00832    0.01300   -0.06956
 21 Cu    0.00057   -0.02084    0.02149
 22 Cu    0.00294    0.00180   -0.00869
 23 Cu    0.01853   -0.03299   -0.00504
 24 Cu   -0.00205    0.00118   -0.05684
 25 Cu    0.01833    0.00992    0.02149
 26 Cu   -0.00009   -0.00345   -0.00869
 27 Cu   -0.00081    0.00047    0.00710
 28 Cu    0.00978   -0.00486   -0.07542
 29 Cu   -0.00140    0.00324    0.00603
 30 Cu    0.00904    0.00573   -0.00504
 31 Cu   -0.03846   -0.00100   -0.00456
 32 Cu    0.00574    0.01180   -0.06407
 33 Cu   -0.00474    0.00273    0.00297
 34 Cu   -0.00504    0.00291   -0.01071
 35 Cu   -0.01971   -0.03314   -0.00660
 36 O    -0.00186    0.00107   -0.14179
 37 H     0.00083   -0.00048   -0.14233

BFGS:    4 12:07:20    -2749.893024        0.1967
System changes: positions 

Initializing position-dependent things.

Density initialized from wave functions
                                          
                                          
                                          
                                          
                                          
                                          
                  H                       
                  O                       
          Cu    Cu    Cu                  
            Cu    Cu    Cu                
           Cu    Cu    Cu                 
             Cu    CCu   CCu              
              Cu     Cu    Cu             
             Cu     Cu    Cu              
               Cu     Cu    Cu            
                 Cu    Cu     Cu          
          Cu    Cu    Cu                  
            Cu    Cu    Cu                
             Cu     Cu    Cu              
                                          
                                          
                                          
                                          

Positions:
   0 Cu     0.000000    0.000000    9.999999    ( 0.0000,  0.0000,  0.0000)
   1 Cu     1.303035    0.752307   12.127846    ( 0.0000,  0.0000,  0.0000)
   2 Cu     0.004125    1.506943   14.277020    ( 0.0000,  0.0000,  0.0000)
   3 Cu    -0.001545   -0.003298   16.394048    ( 0.0000,  0.0000,  0.0000)
   4 Cu    -1.303035    2.256922    9.999999    ( 0.0000,  0.0000,  0.0000)
   5 Cu     0.000000    3.009230   12.127846    ( 0.0000,  0.0000,  0.0000)
   6 Cu    -1.302545    3.761255   14.262438    ( 0.0000,  0.0000,  0.0000)
   7 Cu    -1.306448    2.257104   16.395658    ( 0.0000,  0.0000,  0.0000)
   8 Cu    -2.606069    4.513845    9.999999    ( 0.0000,  0.0000,  0.0000)
   9 Cu    -1.303035    5.266152   12.127846    ( 0.0000,  0.0000,  0.0000)
  10 Cu    -2.605883    6.018769   14.262996    ( 0.0000,  0.0000,  0.0000)
  11 Cu    -2.605976    4.513791   16.397810    ( 0.0000,  0.0000,  0.0000)
  12 Cu     2.606069    0.000000    9.999999    ( 0.0000,  0.0000,  0.0000)
  13 Cu     3.909104    0.752307   12.127846    ( 0.0000,  0.0000,  0.0000)
  14 Cu     2.602291    1.506796   14.276758    ( 0.0000,  0.0000,  0.0000)
  15 Cu     2.607715   -0.003243   16.395758    ( 0.0000,  0.0000,  0.0000)
  16 Cu     1.303035    2.256922    9.999999    ( 0.0000,  0.0000,  0.0000)
  17 Cu     2.606069    3.009230   12.127846    ( 0.0000,  0.0000,  0.0000)
  18 Cu     1.303081    3.756801   14.277020    ( 0.0000,  0.0000,  0.0000)
  19 Cu     1.303293    2.256773   16.438210    ( 0.0000,  0.0000,  0.0000)
  20 Cu     0.000000    4.513845    9.999999    ( 0.0000,  0.0000,  0.0000)
  21 Cu     1.303035    5.266152   12.127846    ( 0.0000,  0.0000,  0.0000)
  22 Cu     0.000305    6.018459   14.262586    ( 0.0000,  0.0000,  0.0000)
  23 Cu    -0.001864    4.516710   16.395657    ( 0.0000,  0.0000,  0.0000)
  24 Cu     5.212139    0.000000    9.999999    ( 0.0000,  0.0000,  0.0000)
  25 Cu     6.515174    0.752307   12.127846    ( 0.0000,  0.0000,  0.0000)
  26 Cu     5.212292    1.504352   14.262586    ( 0.0000,  0.0000,  0.0000)
  27 Cu     5.212226   -0.000050   16.396216    ( 0.0000,  0.0000,  0.0000)
  28 Cu     3.909104    2.256922    9.999999    ( 0.0000,  0.0000,  0.0000)
  29 Cu     5.212139    3.009230   12.127846    ( 0.0000,  0.0000,  0.0000)
  30 Cu     3.908930    3.761221   14.262997    ( 0.0000,  0.0000,  0.0000)
  31 Cu     3.912736    2.257118   16.395759    ( 0.0000,  0.0000,  0.0000)
  32 Cu     2.606069    4.513845    9.999999    ( 0.0000,  0.0000,  0.0000)
  33 Cu     3.909104    5.266152   12.127846    ( 0.0000,  0.0000,  0.0000)
  34 Cu     2.605964    6.018521   14.263053    ( 0.0000,  0.0000,  0.0000)
  35 Cu     2.608152    4.516832   16.394048    ( 0.0000,  0.0000,  0.0000)
  36 O      1.302618    2.257163   18.329009    ( 0.0000,  0.0000,  0.0000)
  37 H      1.303219    2.256815   19.284539    ( 0.0000,  0.0000,  0.0000)

Unit cell:
           periodic     x           y           z      points  spacing
  1. axis:    yes    7.818208    0.000000    0.000000    36     0.1881
  2. axis:    yes   -3.909104    6.770767    0.000000    36     0.1881
  3. axis:    no     0.000000    0.000000   26.383539   148     0.1783

  Lengths:   7.818208   7.818208  26.383539
  Angles:   90.000000  90.000000 120.000000

Effective grid spacing dv^(1/3) = 0.1938

     iter     time        total  log10-change:
                         energy  eigst   dens
iter:   1 12:08:11 -2749.928827  -2.47
iter:   2 12:08:32 -2749.909835  -3.40  -2.93
iter:   3 12:08:53 -2749.903358c -4.24  -3.07
iter:   4 12:09:14 -2749.901524c -3.88  -3.32
iter:   5 12:09:35 -2749.901520c -4.37  -3.64
iter:   6 12:09:56 -2749.900925c -4.43  -3.79
iter:   7 12:10:17 -2749.900815c -5.10  -3.87
iter:   8 12:10:37 -2749.900848c -5.46  -4.09c
iter:   9 12:10:58 -2749.900738c -5.31  -4.16c
iter:  10 12:11:19 -2749.900808c -5.47  -4.43c
iter:  11 12:11:40 -2749.900801c -6.32  -4.52c
iter:  12 12:12:01 -2749.900786c -6.59  -4.62c
iter:  13 12:12:22 -2749.900767c -6.28  -4.69c
iter:  14 12:12:42 -2749.900758c -6.69  -4.83c
iter:  15 12:13:03 -2749.900737c -6.84  -4.89c
iter:  16 12:13:24 -2749.900737c -7.72c -5.20c

Converged after 16 iterations.

Dipole moment: (-3.342499, -5.810465, -0.003885) |e|*Ang

Energy contributions relative to reference atoms: (reference = -1622825.608744)

Kinetic:       +236.804895
Potential:     -275.914373
External:        +0.000000
XC:            -2712.590595
Entropy (-ST):   -0.424995
Local:           +2.011834
--------------------------
Free energy:   -2750.113235
Extrapolated:  -2749.900737

Showing only first 2 kpts
 Kpt  Band  Eigenvalues  Occupancy
  0   199     -5.32472    1.95406
  0   200     -5.12166    1.69618
  0   201     -4.99040    1.20076
  0   202     -4.91986    0.85191

  1   199     -5.75777    1.99938
  1   200     -5.61791    1.99750
  1   201     -5.36077    1.96774
  1   202     -5.27065    1.92238


Fermi level: -4.94969

No gap

Forces in eV/Ang:
  0 Cu   -0.00702   -0.00990   -0.06162
  1 Cu   -0.00670    0.00983   -0.02306
  2 Cu    0.00942    0.00381   -0.03702
  3 Cu   -0.03853   -0.07440    0.00931
  4 Cu   -0.01444    0.00058   -0.06686
  5 Cu    0.00452   -0.00261   -0.02388
  6 Cu    0.01996   -0.01152   -0.00099
  7 Cu   -0.08362    0.00282    0.00937
  8 Cu   -0.00248    0.00143   -0.07031
  9 Cu   -0.00382   -0.00067    0.00325
 10 Cu    0.00057    0.02448   -0.00112
 11 Cu   -0.00076    0.00044   -0.00034
 12 Cu    0.00881   -0.00505   -0.07290
 13 Cu   -0.02456    0.01418    0.02576
 14 Cu   -0.00764    0.00441   -0.03674
 15 Cu    0.03763   -0.07517    0.00884
 16 Cu    0.00109   -0.00063   -0.07120
 17 Cu   -0.01186    0.00089   -0.02306
 18 Cu    0.00142   -0.01006   -0.03702
 19 Cu   -0.00251    0.00145   -0.10920
 20 Cu   -0.00772    0.01222   -0.06686
 21 Cu    0.00038   -0.02692    0.02410
 22 Cu   -0.01015   -0.00479    0.00871
 23 Cu   -0.04423    0.07100    0.00937
 24 Cu   -0.00218    0.00126   -0.05466
 25 Cu    0.02350    0.01313    0.02410
 26 Cu   -0.00093    0.01119    0.00871
 27 Cu    0.00095   -0.00055   -0.00339
 28 Cu    0.00878   -0.00510   -0.07290
 29 Cu   -0.00133    0.00364    0.00325
 30 Cu   -0.02091   -0.01273   -0.00112
 31 Cu    0.08392    0.00499    0.00885
 32 Cu    0.00506    0.01103   -0.06162
 33 Cu   -0.00460    0.00265    0.00009
 34 Cu    0.01254   -0.00724    0.00814
 35 Cu    0.04514    0.07058    0.00931
 36 O     0.00035   -0.00020   -0.34759
 37 H     0.00188   -0.00109    0.16971

BFGS:    5 12:13:35    -2749.900737        0.3476
System changes: positions 

Initializing position-dependent things.

Density initialized from wave functions
                                          
                                          
                                          
                                          
                                          
                                          
                  H                       
                  O                       
          Cu    Cu    Cu                  
            Cu    Cu    Cu                
           Cu    Cu    Cu                 
             Cu    CCu   CCu              
              Cu     Cu    Cu             
             Cu     Cu    Cu              
               Cu     Cu    Cu            
                 Cu    Cu     Cu          
          Cu    Cu    Cu                  
            Cu    Cu    Cu                
             Cu     Cu    Cu              
                                          
                                          
                                          
                                          

Positions:
   0 Cu     0.000000    0.000000    9.999999    ( 0.0000,  0.0000,  0.0000)
   1 Cu     1.303035    0.752307   12.127846    ( 0.0000,  0.0000,  0.0000)
   2 Cu     0.004004    1.506885   14.278547    ( 0.0000,  0.0000,  0.0000)
   3 Cu    -0.001508   -0.003318   16.393945    ( 0.0000,  0.0000,  0.0000)
   4 Cu    -1.303035    2.256922    9.999999    ( 0.0000,  0.0000,  0.0000)
   5 Cu     0.000000    3.009230   12.127846    ( 0.0000,  0.0000,  0.0000)
   6 Cu    -1.302606    3.761290   14.262360    ( 0.0000,  0.0000,  0.0000)
   7 Cu    -1.306458    2.257155   16.395673    ( 0.0000,  0.0000,  0.0000)
   8 Cu    -2.606069    4.513845    9.999999    ( 0.0000,  0.0000,  0.0000)
   9 Cu    -1.303035    5.266152   12.127846    ( 0.0000,  0.0000,  0.0000)
  10 Cu    -2.605885    6.018704   14.262907    ( 0.0000,  0.0000,  0.0000)
  11 Cu    -2.605975    4.513790   16.398138    ( 0.0000,  0.0000,  0.0000)
  12 Cu     2.606069    0.000000    9.999999    ( 0.0000,  0.0000,  0.0000)
  13 Cu     3.909104    0.752307   12.127846    ( 0.0000,  0.0000,  0.0000)
  14 Cu     2.602404    1.506731   14.278280    ( 0.0000,  0.0000,  0.0000)
  15 Cu     2.607685   -0.003267   16.395783    ( 0.0000,  0.0000,  0.0000)
  16 Cu     1.303035    2.256922    9.999999    ( 0.0000,  0.0000,  0.0000)
  17 Cu     2.606069    3.009230   12.127846    ( 0.0000,  0.0000,  0.0000)
  18 Cu     1.303071    3.756935   14.278547    ( 0.0000,  0.0000,  0.0000)
  19 Cu     1.303290    2.256775   16.432934    ( 0.0000,  0.0000,  0.0000)
  20 Cu     0.000000    4.513845    9.999999    ( 0.0000,  0.0000,  0.0000)
  21 Cu     1.303035    5.266152   12.127846    ( 0.0000,  0.0000,  0.0000)
  22 Cu     0.000303    6.018465   14.262476    ( 0.0000,  0.0000,  0.0000)
  23 Cu    -0.001913    4.516693   16.395672    ( 0.0000,  0.0000,  0.0000)
  24 Cu     5.212139    0.000000    9.999999    ( 0.0000,  0.0000,  0.0000)
  25 Cu     6.515174    0.752307   12.127846    ( 0.0000,  0.0000,  0.0000)
  26 Cu     5.212286    1.504350   14.262476    ( 0.0000,  0.0000,  0.0000)
  27 Cu     5.212221   -0.000047   16.396417    ( 0.0000,  0.0000,  0.0000)
  28 Cu     3.909104    2.256922    9.999999    ( 0.0000,  0.0000,  0.0000)
  29 Cu     5.212139    3.009230   12.127846    ( 0.0000,  0.0000,  0.0000)
  30 Cu     3.908985    3.761255   14.262908    ( 0.0000,  0.0000,  0.0000)
  31 Cu     3.912741    2.257157   16.395784    ( 0.0000,  0.0000,  0.0000)
  32 Cu     2.606069    4.513845    9.999999    ( 0.0000,  0.0000,  0.0000)
  33 Cu     3.909104    5.266152   12.127846    ( 0.0000,  0.0000,  0.0000)
  34 Cu     2.605946    6.018531   14.262899    ( 0.0000,  0.0000,  0.0000)
  35 Cu     2.608188    4.516810   16.393945    ( 0.0000,  0.0000,  0.0000)
  36 O      1.302558    2.257198   18.320695    ( 0.0000,  0.0000,  0.0000)
  37 H      1.303275    2.256783   19.277347    ( 0.0000,  0.0000,  0.0000)

Unit cell:
           periodic     x           y           z      points  spacing
  1. axis:    yes    7.818208    0.000000    0.000000    36     0.1881
  2. axis:    yes   -3.909104    6.770767    0.000000    36     0.1881
  3. axis:    no     0.000000    0.000000   26.383539   148     0.1783

  Lengths:   7.818208   7.818208  26.383539
  Angles:   90.000000  90.000000 120.000000

Effective grid spacing dv^(1/3) = 0.1938

     iter     time        total  log10-change:
                         energy  eigst   dens
iter:   1 12:14:27 -2749.902859  -3.58
iter:   2 12:14:48 -2749.902536  -4.63  -3.67
iter:   3 12:15:08 -2749.902414c -5.47  -3.81
iter:   4 12:15:29 -2749.902478c -5.24  -3.94
iter:   5 12:15:50 -2749.902459c -6.08  -4.30c
iter:   6 12:16:11 -2749.902438c -5.64  -4.38c
iter:   7 12:16:31 -2749.902485c -6.21  -4.66c
iter:   8 12:16:52 -2749.902484c -6.63  -4.50c
iter:   9 12:17:13 -2749.902464c -6.47  -4.60c
iter:  10 12:17:34 -2749.902464c -6.75  -4.91c
iter:  11 12:17:55 -2749.902450c -6.97  -4.90c
iter:  12 12:18:16 -2749.902446c -7.38  -5.07c
iter:  13 12:18:36 -2749.902443c -6.98  -5.12c
iter:  14 12:18:57 -2749.902448c -7.40c -5.28c

Converged after 14 iterations.

Dipole moment: (-3.347604, -5.812155, 0.000734) |e|*Ang

Energy contributions relative to reference atoms: (reference = -1622825.608744)

Kinetic:       +236.874255
Potential:     -275.972711
External:        +0.000000
XC:            -2712.604265
Entropy (-ST):   -0.424927
Local:           +2.012736
--------------------------
Free energy:   -2750.114912
Extrapolated:  -2749.902448

Showing only first 2 kpts
 Kpt  Band  Eigenvalues  Occupancy
  0   199     -5.32049    1.95432
  0   200     -5.11711    1.69682
  0   201     -4.98507    1.19824
  0   202     -4.91529    0.85306

  1   199     -5.75383    1.99939
  1   200     -5.61347    1.99751
  1   201     -5.35603    1.96776
  1   202     -5.26450    1.92137


Fermi level: -4.94489

No gap

Forces in eV/Ang:
  0 Cu   -0.00729   -0.01042   -0.06327
  1 Cu   -0.00674    0.01165   -0.01947
  2 Cu    0.00914    0.00353   -0.05256
  3 Cu   -0.04015   -0.07627    0.01013
  4 Cu   -0.01513    0.00065   -0.06848
  5 Cu    0.00605   -0.00349   -0.02044
  6 Cu    0.02194   -0.01267    0.00094
  7 Cu   -0.08575    0.00218    0.00935
  8 Cu   -0.00242    0.00140   -0.07253
  9 Cu   -0.00353   -0.00053    0.00284
 10 Cu    0.00068    0.02658    0.00076
 11 Cu   -0.00067    0.00039   -0.00507
 12 Cu    0.00917   -0.00564   -0.07465
 13 Cu   -0.02612    0.01508    0.02700
 14 Cu   -0.00730    0.00422   -0.05196
 15 Cu    0.03901   -0.07694    0.00873
 16 Cu    0.00108   -0.00063   -0.07232
 17 Cu   -0.01346    0.00001   -0.01947
 18 Cu    0.00151   -0.00968   -0.05256
 19 Cu   -0.00219    0.00127   -0.10442
 20 Cu   -0.00813    0.01278   -0.06848
 21 Cu    0.00036   -0.02879    0.02525
 22 Cu   -0.01013   -0.00483    0.01123
 23 Cu   -0.04474    0.07317    0.00935
 24 Cu   -0.00222    0.00128   -0.05678
 25 Cu    0.02511    0.01409    0.02525
 26 Cu   -0.00088    0.01119    0.01123
 27 Cu    0.00099   -0.00057   -0.00706
 28 Cu    0.00947   -0.00512   -0.07465
 29 Cu   -0.00131    0.00333    0.00284
 30 Cu   -0.02268   -0.01388    0.00076
 31 Cu    0.08615    0.00468    0.00873
 32 Cu    0.00537    0.01152   -0.06327
 33 Cu   -0.00490    0.00283   -0.00035
 34 Cu    0.01277   -0.00737    0.01082
 35 Cu    0.04595    0.07291    0.01013
 36 O     0.00116   -0.00067   -0.22209
 37 H     0.00203   -0.00118    0.10948

BFGS:    6 12:19:08    -2749.902448        0.2221
System changes: positions 

Initializing position-dependent things.

Density initialized from wave functions
                                          
                                          
                                          
                                          
                                          
                                          
                  H                       
                  O                       
          Cu    Cu     Cu                 
            Cu    Cu    Cu                
           Cu    Cu    Cu                 
             Cu    CCu   CCu              
              Cu     Cu    Cu             
             Cu     Cu    Cu              
               Cu     Cu    Cu            
                 Cu    Cu     Cu          
          Cu    Cu    Cu                  
            Cu    Cu    Cu                
             Cu     Cu    Cu              
                                          
                                          
                                          
                                          

Positions:
   0 Cu     0.000000    0.000000    9.999999    ( 0.0000,  0.0000,  0.0000)
   1 Cu     1.303035    0.752307   12.127846    ( 0.0000,  0.0000,  0.0000)
   2 Cu     0.003840    1.506774   14.279798    ( 0.0000,  0.0000,  0.0000)
   3 Cu    -0.002280   -0.004931   16.394027    ( 0.0000,  0.0000,  0.0000)
   4 Cu    -1.303035    2.256922    9.999999    ( 0.0000,  0.0000,  0.0000)
   5 Cu     0.000000    3.009230   12.127846    ( 0.0000,  0.0000,  0.0000)
   6 Cu    -1.302261    3.761091   14.262227    ( 0.0000,  0.0000,  0.0000)
   7 Cu    -1.308251    2.257283   16.395921    ( 0.0000,  0.0000,  0.0000)
   8 Cu    -2.606069    4.513845    9.999999    ( 0.0000,  0.0000,  0.0000)
   9 Cu    -1.303035    5.266152   12.127846    ( 0.0000,  0.0000,  0.0000)
  10 Cu    -2.605876    6.019144   14.262737    ( 0.0000,  0.0000,  0.0000)
  11 Cu    -2.605989    4.513798   16.398533    ( 0.0000,  0.0000,  0.0000)
  12 Cu     2.606069    0.000000    9.999999    ( 0.0000,  0.0000,  0.0000)
  13 Cu     3.909104    0.752307   12.127846    ( 0.0000,  0.0000,  0.0000)
  14 Cu     2.602582    1.506629   14.279549    ( 0.0000,  0.0000,  0.0000)
  15 Cu     2.608437   -0.004899   16.396034    ( 0.0000,  0.0000,  0.0000)
  16 Cu     1.303035    2.256922    9.999999    ( 0.0000,  0.0000,  0.0000)
  17 Cu     2.606069    3.009230   12.127846    ( 0.0000,  0.0000,  0.0000)
  18 Cu     1.303085    3.757132   14.279798    ( 0.0000,  0.0000,  0.0000)
  19 Cu     1.303236    2.256806   16.419561    ( 0.0000,  0.0000,  0.0000)
  20 Cu     0.000000    4.513845    9.999999    ( 0.0000,  0.0000,  0.0000)
  21 Cu     1.303035    5.266152   12.127846    ( 0.0000,  0.0000,  0.0000)
  22 Cu     0.000091    6.018378   14.262500    ( 0.0000,  0.0000,  0.0000)
  23 Cu    -0.002920    4.518182   16.395920    ( 0.0000,  0.0000,  0.0000)
  24 Cu     5.212139    0.000000    9.999999    ( 0.0000,  0.0000,  0.0000)
  25 Cu     6.515174    0.752307   12.127846    ( 0.0000,  0.0000,  0.0000)
  26 Cu     5.212255    1.504577   14.262500    ( 0.0000,  0.0000,  0.0000)
  27 Cu     5.212232   -0.000053   16.396578    ( 0.0000,  0.0000,  0.0000)
  28 Cu     3.909104    2.256922    9.999999    ( 0.0000,  0.0000,  0.0000)
  29 Cu     5.212139    3.009230   12.127846    ( 0.0000,  0.0000,  0.0000)
  30 Cu     3.908608    3.761028   14.262738    ( 0.0000,  0.0000,  0.0000)
  31 Cu     3.914530    2.257321   16.396035    ( 0.0000,  0.0000,  0.0000)
  32 Cu     2.606069    4.513845    9.999999    ( 0.0000,  0.0000,  0.0000)
  33 Cu     3.909104    5.266152   12.127846    ( 0.0000,  0.0000,  0.0000)
  34 Cu     2.606180    6.018396   14.262824    ( 0.0000,  0.0000,  0.0000)
  35 Cu     2.609199    4.518285   16.394027    ( 0.0000,  0.0000,  0.0000)
  36 O      1.302492    2.257236   18.304726    ( 0.0000,  0.0000,  0.0000)
  37 H      1.303427    2.256695   19.264945    ( 0.0000,  0.0000,  0.0000)

Unit cell:
           periodic     x           y           z      points  spacing
  1. axis:    yes    7.818208    0.000000    0.000000    36     0.1881
  2. axis:    yes   -3.909104    6.770767    0.000000    36     0.1881
  3. axis:    no     0.000000    0.000000   26.383539   148     0.1783

  Lengths:   7.818208   7.818208  26.383539
  Angles:   90.000000  90.000000 120.000000

Effective grid spacing dv^(1/3) = 0.1938

     iter     time        total  log10-change:
                         energy  eigst   dens
iter:   1 12:20:00 -2749.906455  -2.95
iter:   2 12:20:21 -2749.905592  -4.01  -3.45
iter:   3 12:20:42 -2749.905414c -4.49  -3.69
iter:   4 12:21:02 -2749.905306c -5.31  -3.85
iter:   5 12:21:23 -2749.905280c -5.30  -3.92
iter:   6 12:21:44 -2749.905436c -5.29  -4.05c
iter:   7 12:22:05 -2749.905390c -5.75  -4.13c
iter:   8 12:22:26 -2749.905363c -6.38  -4.25c
iter:   9 12:22:47 -2749.905300c -6.18  -4.31c
iter:  10 12:23:08 -2749.905276c -6.02  -4.50c
iter:  11 12:23:29 -2749.905286c -7.15  -4.64c
iter:  12 12:23:49 -2749.905307c -6.90  -4.74c
iter:  13 12:24:10 -2749.905323c -6.74  -4.89c
iter:  14 12:24:31 -2749.905303c -7.46c -5.04c

Converged after 14 iterations.

Dipole moment: (-3.300961, -5.712308, 0.007071) |e|*Ang

Energy contributions relative to reference atoms: (reference = -1622825.608744)

Kinetic:       +236.961336
Potential:     -276.057928
External:        +0.000000
XC:            -2712.610737
Entropy (-ST):   -0.424764
Local:           +2.014408
--------------------------
Free energy:   -2750.117684
Extrapolated:  -2749.905303

Showing only first 2 kpts
 Kpt  Band  Eigenvalues  Occupancy
  0   199     -5.31444    1.95503
  0   200     -5.11019    1.69876
  0   201     -4.97624    1.19265
  0   202     -4.90775    0.85371

  1   199     -5.74785    1.99940
  1   200     -5.60661    1.99753
  1   201     -5.34868    1.96786
  1   202     -5.25416    1.91933


Fermi level: -4.93722

No gap

Forces in eV/Ang:
  0 Cu   -0.00735   -0.01046   -0.06314
  1 Cu   -0.00678    0.01285   -0.01805
  2 Cu    0.00358    0.00091   -0.07054
  3 Cu   -0.02527   -0.04576    0.00898
  4 Cu   -0.01532    0.00068   -0.06853
  5 Cu    0.00706   -0.00407   -0.01909
  6 Cu    0.01445   -0.00834    0.00478
  7 Cu   -0.05152    0.00007    0.00688
  8 Cu   -0.00236    0.00136   -0.07258
  9 Cu   -0.00352   -0.00058    0.00260
 10 Cu    0.00068    0.01696    0.00488
 11 Cu   -0.00044    0.00026   -0.01117
 12 Cu    0.00933   -0.00567   -0.07484
 13 Cu   -0.02710    0.01564    0.02818
 14 Cu   -0.00215    0.00124   -0.06969
 15 Cu    0.02455   -0.04576    0.00624
 16 Cu    0.00114   -0.00066   -0.07222
 17 Cu   -0.01452   -0.00055   -0.01805
 18 Cu    0.00100   -0.00356   -0.07053
 19 Cu   -0.00084    0.00048   -0.06766
 20 Cu   -0.00825    0.01293   -0.06853
 21 Cu    0.00037   -0.02993    0.02625
 22 Cu   -0.00466   -0.00242    0.01130
 23 Cu   -0.02581    0.04458    0.00688
 24 Cu   -0.00230    0.00133   -0.05672
 25 Cu    0.02611    0.01465    0.02625
 26 Cu   -0.00023    0.00524    0.01130
 27 Cu    0.00077   -0.00045   -0.01028
 28 Cu    0.00957   -0.00525   -0.07484
 29 Cu   -0.00126    0.00334    0.00260
 30 Cu   -0.01434   -0.00906    0.00488
 31 Cu    0.05191    0.00161    0.00624
 32 Cu    0.00538    0.01160   -0.06314
 33 Cu   -0.00491    0.00283   -0.00084
 34 Cu    0.00675   -0.00390    0.01175
 35 Cu    0.02698    0.04477    0.00898
 36 O     0.00119   -0.00069    0.01888
 37 H     0.00190   -0.00110   -0.08159

BFGS:    7 12:24:42    -2749.905303        0.0816
System changes: positions 

Initializing position-dependent things.

Density initialized from wave functions
                                          
                                          
                                          
                                          
                                          
                                          
                  H                       
                  O                       
          Cu    Cu     Cu                 
            Cu    Cu    Cu                
           Cu    Cu    Cu                 
             Cu    CCu   CCu              
              Cu     Cu    Cu             
             Cu     Cu    Cu              
               Cu     Cu    Cu            
                 Cu    Cu     Cu          
          Cu    Cu    Cu                  
            Cu    Cu    Cu                
             Cu     Cu    Cu              
                                          
                                          
                                          
                                          

Positions:
   0 Cu     0.000000    0.000000    9.999999    ( 0.0000,  0.0000,  0.0000)
   1 Cu     1.303035    0.752307   12.127846    ( 0.0000,  0.0000,  0.0000)
   2 Cu     0.003679    1.506657   14.280033    ( 0.0000,  0.0000,  0.0000)
   3 Cu    -0.003237   -0.006852   16.394205    ( 0.0000,  0.0000,  0.0000)
   4 Cu    -1.303035    2.256922    9.999999    ( 0.0000,  0.0000,  0.0000)
   5 Cu     0.000000    3.009230   12.127846    ( 0.0000,  0.0000,  0.0000)
   6 Cu    -1.301792    3.760820   14.262195    ( 0.0000,  0.0000,  0.0000)
   7 Cu    -1.310390    2.257395   16.396234    ( 0.0000,  0.0000,  0.0000)
   8 Cu    -2.606069    4.513845    9.999999    ( 0.0000,  0.0000,  0.0000)
   9 Cu    -1.303035    5.266152   12.127846    ( 0.0000,  0.0000,  0.0000)
  10 Cu    -2.605858    6.019720   14.262673    ( 0.0000,  0.0000,  0.0000)
  11 Cu    -2.606006    4.513808   16.398750    ( 0.0000,  0.0000,  0.0000)
  12 Cu     2.606069    0.000000    9.999999    ( 0.0000,  0.0000,  0.0000)
  13 Cu     3.909104    0.752307   12.127846    ( 0.0000,  0.0000,  0.0000)
  14 Cu     2.602774    1.506518   14.279813    ( 0.0000,  0.0000,  0.0000)
  15 Cu     2.609371   -0.006831   16.396341    ( 0.0000,  0.0000,  0.0000)
  16 Cu     1.303035    2.256922    9.999999    ( 0.0000,  0.0000,  0.0000)
  17 Cu     2.606069    3.009230   12.127846    ( 0.0000,  0.0000,  0.0000)
  18 Cu     1.303106    3.757330   14.280033    ( 0.0000,  0.0000,  0.0000)
  19 Cu     1.303187    2.256834   16.405389    ( 0.0000,  0.0000,  0.0000)
  20 Cu     0.000000    4.513845    9.999999    ( 0.0000,  0.0000,  0.0000)
  21 Cu     1.303035    5.266152   12.127846    ( 0.0000,  0.0000,  0.0000)
  22 Cu    -0.000130    6.018283   14.262674    ( 0.0000,  0.0000,  0.0000)
  23 Cu    -0.004086    4.519978   16.396233    ( 0.0000,  0.0000,  0.0000)
  24 Cu     5.212139    0.000000    9.999999    ( 0.0000,  0.0000,  0.0000)
  25 Cu     6.515174    0.752307   12.127846    ( 0.0000,  0.0000,  0.0000)
  26 Cu     5.212227    1.504816   14.262674    ( 0.0000,  0.0000,  0.0000)
  27 Cu     5.212250   -0.000064   16.396589    ( 0.0000,  0.0000,  0.0000)
  28 Cu     3.909104    2.256922    9.999999    ( 0.0000,  0.0000,  0.0000)
  29 Cu     5.212139    3.009230   12.127846    ( 0.0000,  0.0000,  0.0000)
  30 Cu     3.908119    3.760724   14.262673    ( 0.0000,  0.0000,  0.0000)
  31 Cu     3.916672    2.257478   16.396342    ( 0.0000,  0.0000,  0.0000)
  32 Cu     2.606069    4.513845    9.999999    ( 0.0000,  0.0000,  0.0000)
  33 Cu     3.909104    5.266152   12.127846    ( 0.0000,  0.0000,  0.0000)
  34 Cu     2.606443    6.018244   14.262911    ( 0.0000,  0.0000,  0.0000)
  35 Cu     2.610383    4.520075   16.394205    ( 0.0000,  0.0000,  0.0000)
  36 O      1.302433    2.257271   18.289029    ( 0.0000,  0.0000,  0.0000)
  37 H      1.303607    2.256590   19.250044    ( 0.0000,  0.0000,  0.0000)

Unit cell:
           periodic     x           y           z      points  spacing
  1. axis:    yes    7.818208    0.000000    0.000000    36     0.1881
  2. axis:    yes   -3.909104    6.770767    0.000000    36     0.1881
  3. axis:    no     0.000000    0.000000   26.383539   148     0.1783

  Lengths:   7.818208   7.818208  26.383539
  Angles:   90.000000  90.000000 120.000000

Effective grid spacing dv^(1/3) = 0.1938

     iter     time        total  log10-change:
                         energy  eigst   dens
iter:   1 12:25:34 -2749.907736  -2.93
iter:   2 12:25:55 -2749.907085  -3.99  -3.50
iter:   3 12:26:15 -2749.907029c -4.62  -3.69
iter:   4 12:26:36 -2749.907014c -5.22  -3.85
iter:   5 12:26:57 -2749.907050c -5.26  -3.97
iter:   6 12:27:18 -2749.907234c -5.36  -4.06c
iter:   7 12:27:39 -2749.907135c -5.80  -4.07c
iter:   8 12:27:59 -2749.907103c -6.55  -4.26c
iter:   9 12:28:20 -2749.907016c -5.72  -4.33c
iter:  10 12:28:41 -2749.907020c -6.63  -4.73c
iter:  11 12:29:01 -2749.907044c -6.78  -4.76c
iter:  12 12:29:22 -2749.907050c -7.35  -4.86c
iter:  13 12:29:43 -2749.907049c -7.77c -4.99c

Converged after 13 iterations.

Dipole moment: (-3.241596, -5.591583, 0.011890) |e|*Ang

Energy contributions relative to reference atoms: (reference = -1622825.608744)

Kinetic:       +237.224648
Potential:     -276.278582
External:        +0.000000
XC:            -2712.656942
Entropy (-ST):   -0.424567
Local:           +2.016110
--------------------------
Free energy:   -2750.119332
Extrapolated:  -2749.907049

Showing only first 2 kpts
 Kpt  Band  Eigenvalues  Occupancy
  0   199     -5.31020    1.95569
  0   200     -5.10538    1.70115
  0   201     -4.96932    1.18700
  0   202     -4.90201    0.85376

  1   199     -5.74372    1.99941
  1   200     -5.60175    1.99755
  1   201     -5.34343    1.96802
  1   202     -5.24561    1.91714


Fermi level: -4.93147

No gap

Forces in eV/Ang:
  0 Cu   -0.00724   -0.01022   -0.06281
  1 Cu   -0.00687    0.01333   -0.01963
  2 Cu   -0.00486   -0.00321   -0.08571
  3 Cu   -0.00593   -0.00690    0.00966
  4 Cu   -0.01523    0.00069   -0.06841
  5 Cu    0.00745   -0.00430   -0.02070
  6 Cu    0.00303   -0.00175    0.00338
  7 Cu   -0.00790   -0.00230    0.00627
  8 Cu   -0.00225    0.00130   -0.07285
  9 Cu   -0.00348   -0.00066    0.00398
 10 Cu    0.00049    0.00287    0.00378
 11 Cu   -0.00012    0.00007   -0.01363
 12 Cu    0.00938   -0.00543   -0.07494
 13 Cu   -0.02745    0.01585    0.02936
 14 Cu    0.00556   -0.00321   -0.08486
 15 Cu    0.00562   -0.00632    0.00572
 16 Cu    0.00124   -0.00072   -0.07147
 17 Cu   -0.01498   -0.00071   -0.01963
 18 Cu    0.00035    0.00581   -0.08571
 19 Cu    0.00038   -0.00022   -0.02310
 20 Cu   -0.00821    0.01285   -0.06841
 21 Cu    0.00042   -0.03032    0.02727
 22 Cu    0.00123    0.00026    0.00508
 23 Cu   -0.00196    0.00800    0.00626
 24 Cu   -0.00239    0.00138   -0.05674
 25 Cu    0.02646    0.01479    0.02727
 26 Cu    0.00039   -0.00120    0.00508
 27 Cu    0.00043   -0.00025   -0.00973
 28 Cu    0.00939   -0.00541   -0.07494
 29 Cu   -0.00117    0.00334    0.00398
 30 Cu   -0.00224   -0.00186    0.00378
 31 Cu    0.00828   -0.00171    0.00572
 32 Cu    0.00523    0.01138   -0.06281
 33 Cu   -0.00497    0.00287    0.00020
 34 Cu   -0.00009    0.00005    0.00630
 35 Cu    0.00300    0.00859    0.00965
 36 O    -0.00219    0.00127    0.07821
 37 H     0.00315   -0.00182   -0.11962

BFGS:    8 12:29:55    -2749.907049        0.1197
System changes: positions 

Initializing position-dependent things.

Density initialized from wave functions
                                          
                                          
                                          
                                          
                                          
                                          
                  H                       
                  O                       
          Cu    Cu     Cu                 
            Cu    Cu    Cu                
           Cu    Cu    Cu                 
             Cu    CCu   CCu              
              Cu     Cu    Cu             
             Cu     Cu    Cu              
               Cu     Cu    Cu            
                 Cu    Cu     Cu          
          Cu    Cu    Cu                  
            Cu    Cu    Cu                
             Cu     Cu    Cu              
                                          
                                          
                                          
                                          

Positions:
   0 Cu     0.000000    0.000000    9.999999    ( 0.0000,  0.0000,  0.0000)
   1 Cu     1.303035    0.752307   12.127846    ( 0.0000,  0.0000,  0.0000)
   2 Cu     0.003432    1.506497   14.278729    ( 0.0000,  0.0000,  0.0000)
   3 Cu    -0.003872   -0.008050   16.394488    ( 0.0000,  0.0000,  0.0000)
   4 Cu    -1.303035    2.256922    9.999999    ( 0.0000,  0.0000,  0.0000)
   5 Cu     0.000000    3.009230   12.127846    ( 0.0000,  0.0000,  0.0000)
   6 Cu    -1.301488    3.760645   14.262200    ( 0.0000,  0.0000,  0.0000)
   7 Cu    -1.311728    2.257425   16.396544    ( 0.0000,  0.0000,  0.0000)
   8 Cu    -2.606069    4.513845    9.999999    ( 0.0000,  0.0000,  0.0000)
   9 Cu    -1.303035    5.266152   12.127846    ( 0.0000,  0.0000,  0.0000)
  10 Cu    -2.605839    6.020081   14.262660    ( 0.0000,  0.0000,  0.0000)
  11 Cu    -2.606017    4.513815   16.398680    ( 0.0000,  0.0000,  0.0000)
  12 Cu     2.606069    0.000000    9.999999    ( 0.0000,  0.0000,  0.0000)
  13 Cu     3.909104    0.752307   12.127846    ( 0.0000,  0.0000,  0.0000)
  14 Cu     2.603046    1.506361   14.278542    ( 0.0000,  0.0000,  0.0000)
  15 Cu     2.609989   -0.008026   16.396639    ( 0.0000,  0.0000,  0.0000)
  16 Cu     1.303035    2.256922    9.999999    ( 0.0000,  0.0000,  0.0000)
  17 Cu     2.606069    3.009230   12.127846    ( 0.0000,  0.0000,  0.0000)
  18 Cu     1.303121    3.757624   14.278729    ( 0.0000,  0.0000,  0.0000)
  19 Cu     1.303165    2.256847   16.395363    ( 0.0000,  0.0000,  0.0000)
  20 Cu     0.000000    4.513845    9.999999    ( 0.0000,  0.0000,  0.0000)
  21 Cu     1.303035    5.266152   12.127846    ( 0.0000,  0.0000,  0.0000)
  22 Cu    -0.000236    6.018235   14.262820    ( 0.0000,  0.0000,  0.0000)
  23 Cu    -0.004780    4.521122   16.396542    ( 0.0000,  0.0000,  0.0000)
  24 Cu     5.212139    0.000000    9.999999    ( 0.0000,  0.0000,  0.0000)
  25 Cu     6.515174    0.752307   12.127846    ( 0.0000,  0.0000,  0.0000)
  26 Cu     5.212216    1.504932   14.262820    ( 0.0000,  0.0000,  0.0000)
  27 Cu     5.212266   -0.000073   16.396458    ( 0.0000,  0.0000,  0.0000)
  28 Cu     3.909104    2.256922    9.999999    ( 0.0000,  0.0000,  0.0000)
  29 Cu     5.212139    3.009230   12.127846    ( 0.0000,  0.0000,  0.0000)
  30 Cu     3.907816    3.760527   14.262661    ( 0.0000,  0.0000,  0.0000)
  31 Cu     3.918015    2.257540   16.396641    ( 0.0000,  0.0000,  0.0000)
  32 Cu     2.606069    4.513845    9.999999    ( 0.0000,  0.0000,  0.0000)
  33 Cu     3.909104    5.266152   12.127846    ( 0.0000,  0.0000,  0.0000)
[...]
  16 Cu     1.303035    2.256922    9.999999    ( 0.0000,  0.0000,  0.0000)
  17 Cu     2.606069    3.009230   12.127846    ( 0.0000,  0.0000,  0.0000)
  18 Cu     1.303150    3.757599   14.270603    ( 0.0000,  0.0000,  0.0000)
  19 Cu     1.303201    2.256827   16.402664    ( 0.0000,  0.0000,  0.0000)
  20 Cu     0.000000    4.513845    9.999999    ( 0.0000,  0.0000,  0.0000)
  21 Cu     1.303035    5.266152   12.127846    ( 0.0000,  0.0000,  0.0000)
  22 Cu    -0.000131    6.018252   14.263162    ( 0.0000,  0.0000,  0.0000)
  23 Cu    -0.004454    4.521066   16.396783    ( 0.0000,  0.0000,  0.0000)
  24 Cu     5.212139    0.000000    9.999999    ( 0.0000,  0.0000,  0.0000)
  25 Cu     6.515174    0.752307   12.127846    ( 0.0000,  0.0000,  0.0000)
  26 Cu     5.212253    1.504832   14.263163    ( 0.0000,  0.0000,  0.0000)
  27 Cu     5.212291   -0.000088   16.395880    ( 0.0000,  0.0000,  0.0000)
  28 Cu     3.909104    2.256922    9.999999    ( 0.0000,  0.0000,  0.0000)
  29 Cu     5.212139    3.009230   12.127846    ( 0.0000,  0.0000,  0.0000)
  30 Cu     3.907723    3.760458   14.263033    ( 0.0000,  0.0000,  0.0000)
  31 Cu     3.917832    2.257318   16.396832    ( 0.0000,  0.0000,  0.0000)
  32 Cu     2.606069    4.513845    9.999999    ( 0.0000,  0.0000,  0.0000)
  33 Cu     3.909104    5.266152   12.127846    ( 0.0000,  0.0000,  0.0000)
  34 Cu     2.606562    6.018176   14.263527    ( 0.0000,  0.0000,  0.0000)
  35 Cu     2.610836    4.521197   16.395129    ( 0.0000,  0.0000,  0.0000)
  36 O      1.302148    2.257436   18.289258    ( 0.0000,  0.0000,  0.0000)
  37 H      1.303984    2.256372   19.247622    ( 0.0000,  0.0000,  0.0000)

Unit cell:
           periodic     x           y           z      points  spacing
  1. axis:    yes    7.818208    0.000000    0.000000    36     0.1881
  2. axis:    yes   -3.909104    6.770767    0.000000    36     0.1881
  3. axis:    no     0.000000    0.000000   26.383539   148     0.1783

  Lengths:   7.818208   7.818208  26.383539
  Angles:   90.000000  90.000000 120.000000

Effective grid spacing dv^(1/3) = 0.1938

     iter     time        total  log10-change:
                         energy  eigst   dens
iter:   1 12:46:18 -2749.909280  -3.74
iter:   2 12:46:39 -2749.908834  -4.77  -3.70
iter:   3 12:47:00 -2749.908669c -5.64  -3.89
iter:   4 12:47:21 -2749.908708c -5.53  -4.14c
iter:   5 12:47:42 -2749.908777c -5.79  -4.42c
iter:   6 12:48:02 -2749.908746c -6.05  -4.53c
iter:   7 12:48:23 -2749.908730c -6.31  -4.65c
iter:   8 12:48:44 -2749.908710c -7.01  -4.67c
iter:   9 12:49:05 -2749.908712c -6.34  -4.78c
iter:  10 12:49:26 -2749.908726c -6.95  -4.97c
iter:  11 12:49:47 -2749.908723c -8.05c -5.21c

Converged after 11 iterations.

Dipole moment: (-3.195182, -5.528587, 0.010137) |e|*Ang

Energy contributions relative to reference atoms: (reference = -1622825.608744)

Kinetic:       +237.303431
Potential:     -276.330853
External:        +0.000000
XC:            -2712.685357
Entropy (-ST):   -0.424629
Local:           +2.016370
--------------------------
Free energy:   -2750.121037
Extrapolated:  -2749.908723

Showing only first 2 kpts
 Kpt  Band  Eigenvalues  Occupancy
  0   199     -5.31179    1.95568
  0   200     -5.10721    1.70168
  0   201     -4.97086    1.18661
  0   202     -4.90208    0.84615

  1   199     -5.74566    1.99941
  1   200     -5.60402    1.99756
  1   201     -5.34622    1.96838
  1   202     -5.24750    1.91735


Fermi level: -4.93309

No gap

Forces in eV/Ang:
  0 Cu   -0.00712   -0.01011   -0.06277
  1 Cu   -0.00681    0.00577   -0.03788
  2 Cu   -0.00059   -0.00011   -0.02196
  3 Cu    0.00980    0.02047   -0.00681
  4 Cu   -0.01510    0.00071   -0.06855
  5 Cu    0.00099   -0.00057   -0.03890
  6 Cu   -0.00500    0.00289    0.00212
  7 Cu    0.02231   -0.00153   -0.00780
  8 Cu   -0.00231    0.00134   -0.07212
  9 Cu   -0.00334   -0.00050    0.00521
 10 Cu   -0.00029   -0.00600    0.00249
 11 Cu    0.00026   -0.00015   -0.00119
 12 Cu    0.00923   -0.00529   -0.07497
 13 Cu   -0.02116    0.01221    0.02057
 14 Cu    0.00019   -0.00011   -0.02239
 15 Cu   -0.00951    0.02038   -0.00777
 16 Cu    0.00126   -0.00073   -0.07283
 17 Cu   -0.00840    0.00302   -0.03788
 18 Cu   -0.00020    0.00057   -0.02196
 19 Cu    0.00081   -0.00047   -0.00005
 20 Cu   -0.00816    0.01272   -0.06855
 21 Cu    0.00054   -0.02285    0.01866
 22 Cu    0.00134    0.00064   -0.00057
 23 Cu    0.01248   -0.01856   -0.00779
 24 Cu   -0.00236    0.00136   -0.05651
 25 Cu    0.02006    0.01095    0.01866
 26 Cu    0.00012   -0.00148   -0.00057
 27 Cu   -0.00035    0.00020    0.00106
 28 Cu    0.00920   -0.00535   -0.07497
 29 Cu   -0.00124    0.00314    0.00521
 30 Cu    0.00505    0.00325    0.00249
 31 Cu   -0.02241   -0.00195   -0.00777
 32 Cu    0.00519    0.01122   -0.06277
 33 Cu   -0.00508    0.00293    0.00145
 34 Cu   -0.00196    0.00113    0.00028
 35 Cu   -0.01283   -0.01872   -0.00681
 36 O    -0.00239    0.00139   -0.07005
 37 H     0.00454   -0.00263    0.01613

BFGS:   12 12:49:58    -2749.908723        0.0701
System changes: positions 

Initializing position-dependent things.

Density initialized from wave functions
                                          
                                          
                                          
                                          
                                          
                                          
                  H                       
                  O                       
          Cu    Cu     Cu                 
            Cu    Cu    Cu                
           Cu    Cu    Cu                 
             Cu    CCu   CCu              
              Cu     Cu    Cu             
             Cu     Cu    Cu              
               Cu     Cu    Cu            
                 Cu    Cu     Cu          
          Cu    Cu    Cu                  
            Cu    Cu    Cu                
             Cu     Cu    Cu              
                                          
                                          
                                          
                                          

Positions:
   0 Cu     0.000000    0.000000    9.999999    ( 0.0000,  0.0000,  0.0000)
   1 Cu     1.303035    0.752307   12.127846    ( 0.0000,  0.0000,  0.0000)
   2 Cu     0.003325    1.506406   14.269648    ( 0.0000,  0.0000,  0.0000)
   3 Cu    -0.003897   -0.007587   16.395021    ( 0.0000,  0.0000,  0.0000)
   4 Cu    -1.303035    2.256922    9.999999    ( 0.0000,  0.0000,  0.0000)
   5 Cu     0.000000    3.009230   12.127846    ( 0.0000,  0.0000,  0.0000)
   6 Cu    -1.301399    3.760593   14.262602    ( 0.0000,  0.0000,  0.0000)
   7 Cu    -1.311284    2.257136   16.396685    ( 0.0000,  0.0000,  0.0000)
   8 Cu    -2.606069    4.513845    9.999999    ( 0.0000,  0.0000,  0.0000)
   9 Cu    -1.303035    5.266152   12.127846    ( 0.0000,  0.0000,  0.0000)
  10 Cu    -2.605826    6.020129   14.263120    ( 0.0000,  0.0000,  0.0000)
  11 Cu    -2.606015    4.513813   16.397639    ( 0.0000,  0.0000,  0.0000)
  12 Cu     2.606069    0.000000    9.999999    ( 0.0000,  0.0000,  0.0000)
  13 Cu     3.909104    0.752307   12.127846    ( 0.0000,  0.0000,  0.0000)
  14 Cu     2.603193    1.506276   14.269493    ( 0.0000,  0.0000,  0.0000)
  15 Cu     2.610008   -0.007536   16.396728    ( 0.0000,  0.0000,  0.0000)
  16 Cu     1.303035    2.256922    9.999999    ( 0.0000,  0.0000,  0.0000)
  17 Cu     2.606069    3.009230   12.127846    ( 0.0000,  0.0000,  0.0000)
  18 Cu     1.303146    3.757762   14.269648    ( 0.0000,  0.0000,  0.0000)
  19 Cu     1.303224    2.256813   16.398001    ( 0.0000,  0.0000,  0.0000)
  20 Cu     0.000000    4.513845    9.999999    ( 0.0000,  0.0000,  0.0000)
  21 Cu     1.303035    5.266152   12.127846    ( 0.0000,  0.0000,  0.0000)
  22 Cu    -0.000106    6.018264   14.263199    ( 0.0000,  0.0000,  0.0000)
  23 Cu    -0.004308    4.520882   16.396683    ( 0.0000,  0.0000,  0.0000)
  24 Cu     5.212139    0.000000    9.999999    ( 0.0000,  0.0000,  0.0000)
  25 Cu     6.515174    0.752307   12.127846    ( 0.0000,  0.0000,  0.0000)
  26 Cu     5.212256    1.504805   14.263199    ( 0.0000,  0.0000,  0.0000)
  27 Cu     5.212286   -0.000085   16.395878    ( 0.0000,  0.0000,  0.0000)
  28 Cu     3.909104    2.256922    9.999999    ( 0.0000,  0.0000,  0.0000)
  29 Cu     5.212139    3.009230   12.127846    ( 0.0000,  0.0000,  0.0000)
  30 Cu     3.907780    3.760492   14.263120    ( 0.0000,  0.0000,  0.0000)
  31 Cu     3.917601    2.257278   16.396730    ( 0.0000,  0.0000,  0.0000)
  32 Cu     2.606069    4.513845    9.999999    ( 0.0000,  0.0000,  0.0000)
  33 Cu     3.909104    5.266152   12.127846    ( 0.0000,  0.0000,  0.0000)
  34 Cu     2.606531    6.018194   14.263571    ( 0.0000,  0.0000,  0.0000)
  35 Cu     2.610690    4.521014   16.395021    ( 0.0000,  0.0000,  0.0000)
  36 O      1.301984    2.257530   18.281956    ( 0.0000,  0.0000,  0.0000)
  37 H      1.304200    2.256247   19.240466    ( 0.0000,  0.0000,  0.0000)

Unit cell:
           periodic     x           y           z      points  spacing
  1. axis:    yes    7.818208    0.000000    0.000000    36     0.1881
  2. axis:    yes   -3.909104    6.770767    0.000000    36     0.1881
  3. axis:    no     0.000000    0.000000   26.383539   148     0.1783

  Lengths:   7.818208   7.818208  26.383539
  Angles:   90.000000  90.000000 120.000000

Effective grid spacing dv^(1/3) = 0.1938

     iter     time        total  log10-change:
                         energy  eigst   dens
iter:   1 12:50:49 -2749.909593  -3.65
iter:   2 12:51:10 -2749.908970  -4.71  -3.63
iter:   3 12:51:31 -2749.908885c -5.41  -3.89
iter:   4 12:51:52 -2749.908930c -5.55  -4.11c
iter:   5 12:52:12 -2749.908980c -5.71  -4.41c
iter:   6 12:52:33 -2749.908996c -6.30  -4.51c
iter:   7 12:52:54 -2749.908960c -5.91  -4.54c
iter:   8 12:53:15 -2749.908954c -6.93  -4.80c
iter:   9 12:53:35 -2749.908944c -7.23  -4.87c
iter:  10 12:53:56 -2749.908944c -6.69  -4.99c
iter:  11 12:54:17 -2749.908946c -7.35  -4.96c
iter:  12 12:54:37 -2749.908955c -7.68c -5.15c

Converged after 12 iterations.

Dipole moment: (-3.203433, -5.545359, 0.013679) |e|*Ang

Energy contributions relative to reference atoms: (reference = -1622825.608744)

Kinetic:       +237.413276
Potential:     -276.416670
External:        +0.000000
XC:            -2712.710130
Entropy (-ST):   -0.424564
Local:           +2.016851
--------------------------
Free energy:   -2750.121237
Extrapolated:  -2749.908955

Showing only first 2 kpts
 Kpt  Band  Eigenvalues  Occupancy
  0   199     -5.30811    1.95586
  0   200     -5.10336    1.70229
  0   201     -4.96635    1.18461
  0   202     -4.89785    0.84550

  1   199     -5.74234    1.99941
  1   200     -5.60028    1.99757
  1   201     -5.34234    1.96845
  1   202     -5.24233    1.91650


Fermi level: -4.92900

No gap

Forces in eV/Ang:
  0 Cu   -0.00707   -0.00993   -0.06255
  1 Cu   -0.00688    0.00472   -0.04013
  2 Cu   -0.00048   -0.00015   -0.02059
  3 Cu    0.00755    0.01589   -0.00684
  4 Cu   -0.01496    0.00066   -0.06840
  5 Cu    0.00016   -0.00009   -0.04124
  6 Cu   -0.00363    0.00210    0.00082
  7 Cu    0.01710   -0.00116   -0.00778
  8 Cu   -0.00229    0.00132   -0.07199
  9 Cu   -0.00343   -0.00057    0.00539
 10 Cu   -0.00035   -0.00431    0.00115
 11 Cu    0.00019   -0.00011   -0.00072
 12 Cu    0.00924   -0.00512   -0.07485
 13 Cu   -0.02053    0.01185    0.01929
 14 Cu    0.00007   -0.00004   -0.02107
 15 Cu   -0.00728    0.01573   -0.00767
 16 Cu    0.00128   -0.00074   -0.07285
 17 Cu   -0.00753    0.00360   -0.04013
 18 Cu   -0.00011    0.00049   -0.02059
 19 Cu    0.00088   -0.00051    0.00983
 20 Cu   -0.00805    0.01263   -0.06840
 21 Cu    0.00060   -0.02206    0.01738
 22 Cu    0.00058    0.00027   -0.00088
 23 Cu    0.00956   -0.01423   -0.00778
 24 Cu   -0.00239    0.00138   -0.05654
 25 Cu    0.01940    0.01051    0.01738
 26 Cu    0.00006   -0.00064   -0.00088
 27 Cu   -0.00025    0.00014    0.00099
 28 Cu    0.00905   -0.00544   -0.07485
 29 Cu   -0.00122    0.00326    0.00539
 30 Cu    0.00356    0.00245    0.00115
 31 Cu   -0.01726   -0.00156   -0.00767
 32 Cu    0.00507    0.01109   -0.06255
 33 Cu   -0.00505    0.00292    0.00159
 34 Cu   -0.00107    0.00062    0.00005
 35 Cu   -0.00998   -0.01449   -0.00684
 36 O    -0.00742    0.00429    0.00203
 37 H     0.00398   -0.00231    0.01154

BFGS:   13 12:54:48    -2749.908955        0.0211
Timing:                                      incl.     excl.
-------------------------------------------------------------------
Density initialized from wave functions:    11.030    11.030   0.2% |
 Symmetrize density:                         0.000     0.000   0.0% |
Forces:                                    155.479   155.479   3.1% ||
Hamiltonian:                                40.813     0.002   0.0% |
 Atomic:                                     0.003     0.003   0.0% |
  XC Correction:                             0.000     0.000   0.0% |
 Calculate atomic Hamiltonians:              0.005     0.005   0.0% |
 Communicate:                                2.334     2.334   0.0% |
 Hartree integrate/restrict:                 0.106     0.106   0.0% |
 Initialize Hamiltonian:                     0.000     0.000   0.0% |
 Poisson:                                    1.965     0.079   0.0% |
  Communicate from 1D:                       0.145     0.145   0.0% |
  Communicate from 2D:                       0.310     0.310   0.0% |
  Communicate to 1D:                         0.094     0.094   0.0% |
  Communicate to 2D:                         0.381     0.381   0.0% |
  FFT 1D:                                    0.519     0.519   0.0% |
  FFT 2D:                                    0.436     0.436   0.0% |
 XC 3D grid:                                36.196     8.594   0.2% |
  VdW-DF integral:                          27.603     1.450   0.0% |
   Convolution:                              2.313     2.313   0.0% |
   FFT:                                      1.620     1.620   0.0% |
   gather:                                   7.540     7.540   0.2% |
   hmm1:                                     0.503     0.503   0.0% |
   hmm2:                                     1.021     1.021   0.0% |
   iFFT:                                     1.459     1.459   0.0% |
   potential:                                7.588     0.180   0.0% |
    collect:                                 0.531     0.531   0.0% |
    p1:                                      4.542     4.542   0.1% |
    p2:                                      1.530     1.530   0.0% |
    sum:                                     0.804     0.804   0.0% |
   splines:                                  4.110     4.110   0.1% |
 vbar:                                       0.201     0.201   0.0% |
LCAO initialization:                         8.553     0.910   0.0% |
 LCAO eigensolver:                           3.247     0.001   0.0% |
  Calculate projections:                     0.000     0.000   0.0% |
  DenseAtomicCorrection:                     0.000     0.000   0.0% |
  Distribute overlap matrix:                 3.041     3.041   0.1% |
  Orbital Layouts:                           0.199     0.199   0.0% |
  Potential matrix:                          0.001     0.001   0.0% |
  Sum over cells:                            0.005     0.005   0.0% |
 LCAO to grid:                               3.553     3.553   0.1% |
 Set positions (LCAO WFS):                   0.844     0.652   0.0% |
  Basic WFS set positions:                   0.001     0.001   0.0% |
  Basis functions set positions:             0.000     0.000   0.0% |
  P tci:                                     0.000     0.000   0.0% |
  ST tci:                                    0.129     0.129   0.0% |
  mktci:                                     0.061     0.061   0.0% |
Redistribute:                                0.007     0.007   0.0% |
SCF-cycle:                                4399.594    67.486   1.4% ||
 Davidson:                                3769.109  1302.667  26.2% |---------|
  Apply hamiltonian:                        91.578    91.578   1.8% ||
  Subspace diag:                           341.779     0.025   0.0% |
   calc_h_matrix:                          176.248    86.212   1.7% ||
    Apply hamiltonian:                      90.035    90.035   1.8% ||
   diagonalize:                             10.123    10.123   0.2% |
   rotate_psi:                             155.383   155.383   3.1% ||
  calc. matrices:                         1696.485   586.336  11.8% |----|
   Apply hamiltonian:                     1110.148  1110.148  22.3% |--------|
  diagonalize:                              43.214    43.214   0.9% |
  rotate_psi:                              293.388   293.388   5.9% |-|
 Density:                                    8.941     0.005   0.0% |
  Atomic density matrices:                   0.950     0.950   0.0% |
  Mix:                                       2.503     2.503   0.1% |
  Multipole moments:                         0.084     0.084   0.0% |
  Pseudo density:                            5.399     5.394   0.1% |
   Symmetrize density:                       0.005     0.005   0.0% |
 Hamiltonian:                              515.632     0.025   0.0% |
  Atomic:                                    0.049     0.049   0.0% |
   XC Correction:                            0.001     0.001   0.0% |
  Calculate atomic Hamiltonians:             0.062     0.062   0.0% |
  Communicate:                              32.149    32.149   0.6% |
  Hartree integrate/restrict:                1.445     1.445   0.0% |
  Poisson:                                  27.983     1.016   0.0% |
   Communicate from 1D:                      2.126     2.126   0.0% |
   Communicate from 2D:                      4.426     4.426   0.1% |
   Communicate to 1D:                        1.353     1.353   0.0% |
   Communicate to 2D:                        5.466     5.466   0.1% |
   FFT 1D:                                   7.376     7.376   0.1% |
   FFT 2D:                                   6.220     6.220   0.1% |
  XC 3D grid:                              453.604   119.450   2.4% ||
   VdW-DF integral:                        334.154    20.446   0.4% |
    Convolution:                            32.713    32.713   0.7% |
    FFT:                                    22.931    22.931   0.5% |
    gather:                                108.899   108.899   2.2% ||
    hmm1:                                    6.842     6.842   0.1% |
    hmm2:                                   14.205    14.205   0.3% |
    iFFT:                                   21.217    21.217   0.4% |
    potential:                             106.900     2.482   0.0% |
     collect:                                7.358     7.358   0.1% |
     p1:                                    64.006    64.006   1.3% ||
     p2:                                    21.263    21.263   0.4% |
     sum:                                   11.791    11.791   0.2% |
    splines:                                 0.001     0.001   0.0% |
  vbar:                                      0.316     0.316   0.0% |
 Orthonormalize:                            38.426     0.002   0.0% |
  calc_s_matrix:                             2.613     2.613   0.1% |
  inverse-cholesky:                         30.694    30.694   0.6% |
  projections:                               0.001     0.001   0.0% |
  rotate_psi_s:                              5.115     5.115   0.1% |
Set symmetry:                                0.002     0.002   0.0% |
Other:                                     353.370   353.370   7.1% |--|
-------------------------------------------------------------------
Total:                                              4968.848 100.0%

Memory usage: 1.18 GiB
Date: Tue Sep 26 12:54:48 2023
