
  ___ ___ ___ _ _ _  
 |   |   |_  | | | | 
 | | | | | . | | | | 
 |__ |  _|___|_____|  22.8.0
 |___|_|             

User:   s204775@c064.nifl.fysik.dtu.dk
Date:   Tue Sep 26 11:32:00 2023
Arch:   x86_64
Pid:    188072
CWD:    /home/cat/s204775/projects/Bachelor_project/OH_missing_features
Python: 3.10.4
gpaw:   /home/modules/software/GPAW/22.8.0-intel-2022a/lib/python3.10/site-packages/gpaw
_gpaw:  /home/modules/software/GPAW/22.8.0-intel-2022a/lib/python3.10/site-packages/
        _gpaw.cpython-310-x86_64-linux-gnu.so
ase:    /home/modules/software/ASE/3.22.1-intel-2022a/lib/python3.10/site-packages/ase (version 3.22.1)
numpy:  /home/modules/software/SciPy-bundle/2022.05-intel-2022a/lib/python3.10/site-packages/numpy (version 1.22.3)
scipy:  /home/modules/software/SciPy-bundle/2022.05-intel-2022a/lib/python3.10/site-packages/scipy (version 1.8.1)
libxc:  5.2.3
units:  Angstrom and eV
cores: 40
OpenMP: False
OMP_NUM_THREADS: 1

Input parameters:
  basis: dzp
  h: 0.18
  kpts: {size: (4, 4, 1)}
  xc: BEEF-vdW

System changes: positions, numbers, cell, pbc, initial_charges, initial_magmoms 

Initialize ...

species:
  Fe:
    name: Iron
    id: 37abbd8d6c3c35915a9b583b742da910
    Z: 26.0
    valence: 8
    core: 18
    charge: 0.0
    file: /home/modules/software/GPAW-setups/0.9.20000/Fe.PBE.gz
    compensation charges: {type: gauss,
                           rc: 0.33,
                           lmax: 2}
    cutoffs: {filter: 2.06,
              core: 2.67}
    valence states:
      #              energy  rcut
      - 4s(2.00)    -5.291   1.164
      - 4p(0.00)    -1.326   1.058
      - 3d(6.00)    -7.505   1.058
      -  s          21.920   1.164
      -  p          25.885   1.058
      -  d          19.706   1.058
  
    # LCAO basis set for Fe:
    #   Name: dzp
    #   File: /home/modules/software/GPAW-setups/0.9.20000/Fe.dzp.basis.gz
    #   Number of radial functions: 5
    #   Number of spherical harmonics: 15
    #     l=0, rc=8.9688 Bohr: 4s-sz confined orbital
    #     l=2, rc=5.1719 Bohr: 3d-sz confined orbital
    #     l=0, rc=5.3281 Bohr: 4s-dz split-valence wave
    #     l=2, rc=3.0938 Bohr: 3d-dz split-valence wave
    #     l=1, rc=8.9688 Bohr: p-type Gaussian polarization
    #   Number of RI-basis functions 0

  O:
    name: Oxygen
    id: 32ecd46bf208036f09c70b0ec9a88b78
    Z: 8.0
    valence: 6
    core: 2
    charge: 0.0
    file: /home/modules/software/GPAW-setups/0.9.20000/O.PBE.gz
    compensation charges: {type: gauss,
                           rc: 0.21,
                           lmax: 2}
    cutoffs: {filter: 1.17,
              core: 0.83}
    valence states:
      #              energy  rcut
      - 2s(2.00)   -23.961   0.688
      - 2p(4.00)    -9.029   0.598
      -  s           3.251   0.688
      -  p          18.182   0.598
      -  d           0.000   0.619
  
    # LCAO basis set for O:
    #   Name: dzp
    #   File: /home/modules/software/GPAW-setups/0.9.20000/O.dzp.basis.gz
    #   Number of radial functions: 5
    #   Number of spherical harmonics: 13
    #     l=0, rc=4.3438 Bohr: 2s-sz confined orbital
    #     l=1, rc=5.3906 Bohr: 2p-sz confined orbital
    #     l=0, rc=2.2969 Bohr: 2s-dz split-valence wave
    #     l=1, rc=2.8906 Bohr: 2p-dz split-valence wave
    #     l=2, rc=5.3906 Bohr: d-type Gaussian polarization
    #   Number of RI-basis functions 0

  H:
    name: Hydrogen
    id: d65de229564ff8ea4db303e23b6d1ecf
    Z: 1.0
    valence: 1
    core: 0
    charge: 0.0
    file: /home/modules/software/GPAW-setups/0.9.20000/H.PBE.gz
    compensation charges: {type: gauss,
                           rc: 0.15,
                           lmax: 2}
    cutoffs: {filter: 0.85,
              core: 0.53}
    valence states:
      #              energy  rcut
      - 1s(1.00)    -6.494   0.476
      -  s          20.717   0.476
      -  p           0.000   0.476
  
    # LCAO basis set for H:
    #   Name: dzp
    #   File: /home/modules/software/GPAW-setups/0.9.20000/H.dzp.basis.gz
    #   Number of radial functions: 3
    #   Number of spherical harmonics: 5
    #     l=0, rc=6.4219 Bohr: 1s-sz confined orbital
    #     l=0, rc=3.6094 Bohr: 1s-dz split-valence wave
    #     l=1, rc=6.4219 Bohr: p-type Gaussian polarization
    #   Number of RI-basis functions 0

Reference energy: -1248353.708061  # eV

Spin-polarized calculation.
Magnetic moment: 97.664047

Convergence criteria:
 Maximum [total energy] change in last 3 cyles: 0.0005 eV / electron
 Maximum integral of absolute [dens]ity change: 0.0001 electrons / valence electron
 Maximum integral of absolute [eigenst]ate change: 4e-08 eV^2 / valence electron
 Maximum number of scf [iter]ations: 333
 (Square brackets indicate name in SCF output, whereas a 'c' in
 the SCF output indicates the quantity has converged.)

Symmetries present (total): 1

  ( 1  0  0)
  ( 0  1  0)
  ( 0  0  1)

16 k-points: 4 x 4 x 1 Monkhorst-Pack grid
8 k-points in the irreducible part of the Brillouin zone
       k-points in crystal coordinates                weights
   0:     0.12500000   -0.37500000    0.00000000          2/16
   1:     0.12500000   -0.12500000    0.00000000          2/16
   2:     0.12500000    0.12500000    0.00000000          2/16
   3:     0.12500000    0.37500000    0.00000000          2/16
   4:     0.37500000   -0.37500000    0.00000000          2/16
   5:     0.37500000   -0.12500000    0.00000000          2/16
   6:     0.37500000    0.12500000    0.00000000          2/16
   7:     0.37500000    0.37500000    0.00000000          2/16

Wave functions: Uniform real-space grid
  Kinetic energy operator: 8*3+1=25 point O(h^6) finite-difference Laplacian
  ScaLapack parameters: grid=1x1, blocksize=None
  Wavefunction extrapolation:
    Improved wavefunction reuse through dual PAW basis 

Occupation numbers: Fermi-Dirac:
  width: 0.1000  # eV
 

Eigensolver
   Davidson(niter=2) 

Densities:
  Coarse grid: 36*36*148 grid
  Fine grid: 72*72*296 grid
  Total Charge: 0.000000 

Density mixing:
  Method: difference
  Backend: pulay
  Linear mixing parameter: 0.05
  old densities: 5
  Damping of long wavelength oscillations: 50 

Hamiltonian:
  XC and Coulomb potentials evaluated on a 72*72*296 grid
  Using the BEEF-vdW Exchange-Correlation functional
  Interpolation: tri-quintic (5. degree polynomial)
  Poisson solver: FastPoissonSolver using
    Stencil: 8*3+1=25 point O(h^6) finite-difference Laplacian
    FFT axes: [0, 1]
    FST axes: [2]
 

XC parameters: BEEF-vdW with 2 nearest neighbor stencil

Memory estimate:
  Process memory now: 209.17 MiB
  Calculator: 484.37 MiB
    Density: 44.01 MiB
      Arrays: 10.19 MiB
      Localized functions: 29.80 MiB
      Mixer: 4.01 MiB
    Hamiltonian: 9.81 MiB
      Arrays: 7.57 MiB
      XC: 0.00 MiB
      Poisson: 0.00 MiB
      vbar: 2.23 MiB
    Wavefunctions: 430.56 MiB
      Arrays psit_nG: 275.27 MiB
      Eigensolver: 149.30 MiB
      Projections: 0.98 MiB
      Projectors: 5.01 MiB

Total number of cores used: 40
Parallelization over k-points: 8
Domain decomposition: 1 x 1 x 5

Number of atoms: 38
Number of atomic orbitals: 558
Number of bands in calculation: 240
Number of valence electrons: 295
Bands to converge: occupied

... initialized

Initializing position-dependent things.

Density initialized from atomic densities
Creating initial wave functions:
  240 bands from LCAO basis set

                                          
                                          
                                          
                                          
                                          
                                          
                  H                       
                  O                       
          Fe    Fe    Fe                  
            Fe    Fe    Fe                
           Fe    Fe    Fe                 
             Fe    FFe   FFe              
              Fe     Fe    Fe             
             Fe     Fe    Fe              
               Fe     Fe    Fe            
                 Fe    Fe     Fe          
          Fe    Fe    Fe                  
            Fe    Fe    Fe                
             Fe     Fe    Fe              
                                          
                                          
                                          
                                          

Positions:
   0 Fe     0.000000    0.000000   10.000000    ( 0.0000,  0.0000,  2.7500)
   1 Fe     1.298117    0.749468   12.119817    ( 0.0000,  0.0000,  2.6728)
   2 Fe    -0.000000    1.498938   14.260075    ( 0.0000,  0.0000,  2.6756)
   3 Fe     0.000000    0.000000   16.395073    ( 0.0000,  0.0000,  2.7532)
   4 Fe    -1.298117    2.248405   10.000000    ( 0.0000,  0.0000,  2.7500)
   5 Fe     0.000000    2.997873   12.119817    ( 0.0000,  0.0000,  2.6728)
   6 Fe    -1.298117    3.747342   14.260076    ( 0.0000,  0.0000,  2.6756)
   7 Fe    -1.298117    2.248406   16.395074    ( 0.0000,  0.0000,  2.7532)
   8 Fe    -2.596234    4.496810   10.000000    ( 0.0000,  0.0000,  2.7500)
   9 Fe    -1.298117    5.246278   12.119817    ( 0.0000,  0.0000,  2.6728)
  10 Fe    -2.596234    5.995746   14.260075    ( 0.0000,  0.0000,  2.6756)
  11 Fe    -2.596234    4.496809   16.395074    ( 0.0000,  0.0000,  2.7532)
  12 Fe     2.596234    0.000000   10.000000    ( 0.0000,  0.0000,  2.7500)
  13 Fe     3.894352    0.749468   12.119817    ( 0.0000,  0.0000,  2.6728)
  14 Fe     2.596235    1.498937   14.260075    ( 0.0000,  0.0000,  2.6756)
  15 Fe     2.596235   -0.000000   16.395074    ( 0.0000,  0.0000,  2.7532)
  16 Fe     1.298117    2.248405   10.000000    ( 0.0000,  0.0000,  2.7500)
  17 Fe     2.596234    2.997873   12.119817    ( 0.0000,  0.0000,  2.6728)
  18 Fe     1.298117    3.747342   14.260076    ( 0.0000,  0.0000,  2.6756)
  19 Fe     1.298117    2.248406   16.395074    ( 0.0000,  0.0000,  2.7532)
  20 Fe     0.000000    4.496810   10.000000    ( 0.0000,  0.0000,  2.7500)
  21 Fe     1.298117    5.246278   12.119817    ( 0.0000,  0.0000,  2.6728)
  22 Fe    -0.000000    5.995746   14.260076    ( 0.0000,  0.0000,  2.6756)
  23 Fe     0.000000    4.496810   16.395074    ( 0.0000,  0.0000,  2.7532)
  24 Fe     5.192469    0.000000   10.000000    ( 0.0000,  0.0000,  2.7500)
  25 Fe     6.490586    0.749468   12.119817    ( 0.0000,  0.0000,  2.6728)
  26 Fe     5.192468    1.498937   14.260075    ( 0.0000,  0.0000,  2.6756)
  27 Fe     5.192468   -0.000000   16.395074    ( 0.0000,  0.0000,  2.7532)
  28 Fe     3.894352    2.248405   10.000000    ( 0.0000,  0.0000,  2.7500)
  29 Fe     5.192469    2.997873   12.119817    ( 0.0000,  0.0000,  2.6728)
  30 Fe     3.894352    3.747341   14.260075    ( 0.0000,  0.0000,  2.6756)
  31 Fe     3.894352    2.248405   16.395074    ( 0.0000,  0.0000,  2.7532)
  32 Fe     2.596234    4.496810   10.000000    ( 0.0000,  0.0000,  2.7500)
  33 Fe     3.894352    5.246278   12.119817    ( 0.0000,  0.0000,  2.6728)
  34 Fe     2.596234    5.995746   14.260075    ( 0.0000,  0.0000,  2.6756)
  35 Fe     2.596234    4.496809   16.395074    ( 0.0000,  0.0000,  2.7532)
  36 O      1.298117    2.248406   18.395074    ( 0.0000,  0.0000,  0.0000)
  37 H      1.298117    2.248406   19.355074    ( 0.0000,  0.0000,  0.0000)

Unit cell:
           periodic     x           y           z      points  spacing
  1. axis:    yes    7.788703    0.000000    0.000000    36     0.1874
  2. axis:    yes   -3.894352    6.745215    0.000000    36     0.1874
  3. axis:    no     0.000000    0.000000   26.359450   148     0.1781

  Lengths:   7.788703   7.788703  26.359450
  Angles:   90.000000  90.000000 120.000000

Effective grid spacing dv^(1/3) = 0.1933

     iter     time        total  log10-change:  magmom
                         energy  eigst   dens
iter:   1 11:33:06 -2543.502198                  +96.7539
iter:   2 11:33:45 -2600.038467  -0.20  -1.28    +95.3443
iter:   3 11:34:23 -2555.867208  -0.49  -0.99    +90.0463
iter:   4 11:35:02 -2538.561010  -0.83  -1.17    +84.2454
iter:   5 11:35:40 -2537.465045  -0.97  -1.39    +90.7423
iter:   6 11:36:19 -2537.983409  -0.97  -1.48    +95.0921
iter:   7 11:36:57 -2537.715110  -1.26  -1.54    +94.9910
iter:   8 11:37:35 -2538.376161  -1.58  -1.60    +96.6153
iter:   9 11:38:14 -2544.664411  -1.35  -1.72    +96.9711
iter:  10 11:38:52 -2538.839527  -1.78  -1.46    +97.2076
iter:  11 11:39:31 -2538.517250  -2.32  -1.82    +97.4097
iter:  12 11:40:09 -2538.645782  -2.33  -2.07    +97.7227
iter:  13 11:40:47 -2538.645939c -2.64  -2.13    +97.7324
iter:  14 11:41:26 -2538.563792c -2.92  -2.20    +97.9953
iter:  15 11:42:04 -2538.636351c -2.66  -2.34    +98.0813
iter:  16 11:42:42 -2538.800596  -2.79  -2.30    +98.0985
iter:  17 11:43:21 -2538.530473  -3.21  -2.11    +98.0650
iter:  18 11:43:59 -2538.531268  -3.89  -2.90    +98.0471
iter:  19 11:44:38 -2538.532392c -3.96  -2.93    +98.0459
iter:  20 11:45:16 -2538.534699c -4.32  -2.99    +98.0496
iter:  21 11:45:55 -2538.533587c -4.51  -3.08    +98.0490
iter:  22 11:46:33 -2538.534440c -4.83  -3.23    +98.0358
iter:  23 11:47:11 -2538.534614c -4.94  -3.27    +98.0201
iter:  24 11:47:50 -2538.534390c -4.87  -3.32    +98.0235
iter:  25 11:48:28 -2538.533915c -5.09  -3.32    +98.0224
iter:  26 11:49:06 -2538.535918c -5.09  -3.56    +98.0346
iter:  27 11:49:45 -2538.534657c -5.67  -3.19    +98.0337
iter:  28 11:50:23 -2538.534118c -5.90  -3.41    +98.0367
iter:  29 11:51:01 -2538.534228c -5.67  -3.59    +98.0393
iter:  30 11:51:40 -2538.533841c -5.63  -3.75    +98.0379
iter:  31 11:52:18 -2538.533831c -6.23  -3.85    +98.0377
iter:  32 11:52:56 -2538.533707c -6.17  -4.02c   +98.0375
iter:  33 11:53:35 -2538.533754c -6.27  -4.24c   +98.0378
iter:  34 11:54:13 -2538.533801c -6.59  -4.34c   +98.0377
iter:  35 11:54:52 -2538.533776c -6.76  -4.22c   +98.0378
iter:  36 11:55:30 -2538.533760c -7.16  -4.33c   +98.0379
iter:  37 11:56:08 -2538.533815c -7.28  -4.59c   +98.0383
iter:  38 11:56:47 -2538.533789c -7.75c -4.70c   +98.0384

Converged after 38 iterations.

Dipole moment: (-4.011102, -6.889648, 0.130729) |e|*Ang

Total magnetic moment: (0.000000, 0.000000, 98.038431)
Local magnetic moments:
   0 Fe ( 0.000000,  0.000000,  2.825621)
   1 Fe ( 0.000000,  0.000000,  2.755028)
   2 Fe ( 0.000000,  0.000000,  2.734933)
   3 Fe ( 0.000000,  0.000000,  2.858375)
   4 Fe ( 0.000000,  0.000000,  2.825963)
   5 Fe ( 0.000000,  0.000000,  2.754764)
   6 Fe ( 0.000000,  0.000000,  2.741876)
   7 Fe ( 0.000000,  0.000000,  2.858727)
   8 Fe ( 0.000000,  0.000000,  2.829179)
   9 Fe ( 0.000000,  0.000000,  2.746886)
  10 Fe ( 0.000000,  0.000000,  2.741420)
  11 Fe ( 0.000000,  0.000000,  2.843359)
  12 Fe ( 0.000000,  0.000000,  2.826760)
  13 Fe ( 0.000000,  0.000000,  2.742904)
  14 Fe ( 0.000000,  0.000000,  2.736141)
  15 Fe ( 0.000000,  0.000000,  2.859210)
  16 Fe ( 0.000000,  0.000000,  2.827329)
  17 Fe ( 0.000000,  0.000000,  2.755017)
  18 Fe ( 0.000000,  0.000000,  2.734799)
  19 Fe ( 0.000000,  0.000000,  2.827404)
  20 Fe ( 0.000000,  0.000000,  2.825967)
  21 Fe ( 0.000000,  0.000000,  2.742241)
  22 Fe ( 0.000000,  0.000000,  2.751255)
  23 Fe ( 0.000000,  0.000000,  2.859097)
  24 Fe ( 0.000000,  0.000000,  2.828712)
  25 Fe ( 0.000000,  0.000000,  2.742279)
  26 Fe ( 0.000000,  0.000000,  2.751325)
  27 Fe ( 0.000000,  0.000000,  2.856171)
  28 Fe ( 0.000000,  0.000000,  2.826757)
  29 Fe ( 0.000000,  0.000000,  2.746886)
  30 Fe ( 0.000000,  0.000000,  2.741515)
  31 Fe ( 0.000000,  0.000000,  2.858872)
  32 Fe ( 0.000000,  0.000000,  2.825623)
  33 Fe ( 0.000000,  0.000000,  2.746164)
  34 Fe ( 0.000000,  0.000000,  2.749960)
  35 Fe ( 0.000000,  0.000000,  2.858399)
  36 O  ( 0.000000,  0.000000,  0.171244)
  37 H  ( 0.000000,  0.000000,  0.003072)

Energy contributions relative to reference atoms: (reference = -1248353.708061)

Kinetic:       +834.006657
Potential:     -729.748846
External:        +0.000000
XC:            -2644.274775
Entropy (-ST):   -1.639578
Local:           +2.302964
--------------------------
Free energy:   -2539.353578
Extrapolated:  -2538.533789

Spin contamination: 2.617619 electrons
Showing only first 2 kpts
                      Up                     Down
 Kpt  Band  Eigenvalues  Occupancy  Eigenvalues  Occupancy
  0   145     -6.32467    1.00000     -3.45835    0.00000
  0   146     -6.30888    1.00000     -3.44580    0.00000
  0   147     -6.29747    1.00000     -3.44042    0.00000
  0   148     -6.28400    1.00000     -3.41946    0.00000

  1   145     -6.25839    1.00000     -3.35212    0.00000
  1   146     -6.23397    1.00000     -3.35094    0.00000
  1   147     -6.20990    1.00000     -3.34607    0.00000
  1   148     -6.19902    1.00000     -3.34164    0.00000


Fermi level: -4.74802

No gap

Forces in eV/Ang:
  0 Fe   -0.00083    0.00436   -0.15899
  1 Fe   -0.00176   -0.00285    0.03396
  2 Fe    0.04456    0.02448   -0.04938
  3 Fe   -0.09812   -0.26990   -0.01805
  4 Fe    0.00205    0.00081   -0.15763
  5 Fe   -0.00444    0.00261    0.03523
  6 Fe    0.03381   -0.01962   -0.00526
  7 Fe   -0.27987    0.04776   -0.02083
  8 Fe   -0.00312    0.00191   -0.16462
  9 Fe   -0.00895   -0.00357    0.04619
 10 Fe    0.00235    0.03602   -0.00644
 11 Fe    0.00160   -0.00192   -0.03543
 12 Fe   -0.00363    0.00487   -0.15806
 13 Fe    0.00617   -0.00368    0.04860
 14 Fe   -0.04026    0.02350   -0.05041
 15 Fe    0.10071   -0.26930   -0.01986
 16 Fe   -0.00232    0.00152   -0.15583
 17 Fe    0.00175    0.00310    0.03416
 18 Fe    0.00130   -0.05126   -0.04870
 19 Fe   -0.00303    0.00255    2.16888
 20 Fe    0.00047   -0.00197   -0.15764
 21 Fe   -0.00031    0.01026    0.05165
 22 Fe    0.00997    0.00306   -0.02199
 23 Fe   -0.17717    0.21668   -0.01885
 24 Fe   -0.00210    0.00135   -0.16525
 25 Fe   -0.00909   -0.00500    0.05161
 26 Fe    0.00275   -0.01151   -0.02295
 27 Fe    0.00283   -0.00069   -0.06416
 28 Fe   -0.00586    0.00096   -0.15800
 29 Fe   -0.00138    0.00969    0.04596
 30 Fe   -0.02974   -0.01999   -0.00508
 31 Fe    0.28445    0.04760   -0.02093
 32 Fe   -0.00403   -0.00124   -0.15895
 33 Fe    0.00535   -0.00309    0.04622
 34 Fe   -0.00578    0.00383   -0.02094
 35 Fe    0.18114    0.21879   -0.01715
 36 O     0.00112   -0.00056   -1.67220
 37 H    -0.00020    0.00023    0.00299

      Step     Time          Energy         fmax
BFGS:    0 11:57:12    -2538.533789        2.1689
System changes: positions 

Initializing position-dependent things.

Density initialized from wave functions
                                          
                                          
                                          
                                          
                                          
                                          
                  H                       
                  O                       
          Fe    Fe    Fe                  
            Fe    Fe    Fe                
           Fe    Fe    Fe                 
             Fe    FFe   FFe              
              Fe     Fe    Fe             
             Fe     Fe    Fe              
               Fe     Fe    Fe            
                 Fe    Fe     Fe          
          Fe    Fe    Fe                  
            Fe    Fe    Fe                
             Fe     Fe    Fe              
                                          
                                          
                                          
                                          

Positions:
   0 Fe     0.000000    0.000000   10.000000    ( 0.0000,  0.0000,  2.7500)
   1 Fe     1.298117    0.749468   12.119817    ( 0.0000,  0.0000,  2.6728)
   2 Fe     0.000637    1.499287   14.259370    ( 0.0000,  0.0000,  2.6756)
   3 Fe    -0.001402   -0.003856   16.394815    ( 0.0000,  0.0000,  2.7532)
   4 Fe    -1.298117    2.248405   10.000000    ( 0.0000,  0.0000,  2.7500)
   5 Fe     0.000000    2.997873   12.119817    ( 0.0000,  0.0000,  2.6728)
   6 Fe    -1.297634    3.747061   14.260000    ( 0.0000,  0.0000,  2.6756)
   7 Fe    -1.302115    2.249088   16.394776    ( 0.0000,  0.0000,  2.7532)
   8 Fe    -2.596234    4.496810   10.000000    ( 0.0000,  0.0000,  2.7500)
   9 Fe    -1.298117    5.246278   12.119817    ( 0.0000,  0.0000,  2.6728)
  10 Fe    -2.596200    5.996261   14.259983    ( 0.0000,  0.0000,  2.6756)
  11 Fe    -2.596211    4.496782   16.394568    ( 0.0000,  0.0000,  2.7532)
  12 Fe     2.596234    0.000000   10.000000    ( 0.0000,  0.0000,  2.7500)
  13 Fe     3.894352    0.749468   12.119817    ( 0.0000,  0.0000,  2.6728)
  14 Fe     2.595660    1.499273   14.259355    ( 0.0000,  0.0000,  2.6756)
  15 Fe     2.597674   -0.003847   16.394790    ( 0.0000,  0.0000,  2.7532)
  16 Fe     1.298117    2.248405   10.000000    ( 0.0000,  0.0000,  2.7500)
  17 Fe     2.596234    2.997873   12.119817    ( 0.0000,  0.0000,  2.6728)
  18 Fe     1.298136    3.746609   14.259380    ( 0.0000,  0.0000,  2.6756)
  19 Fe     1.298074    2.248442   16.426058    ( 0.0000,  0.0000,  2.7532)
  20 Fe     0.000000    4.496810   10.000000    ( 0.0000,  0.0000,  2.7500)
  21 Fe     1.298117    5.246278   12.119817    ( 0.0000,  0.0000,  2.6728)
  22 Fe     0.000142    5.995790   14.259761    ( 0.0000,  0.0000,  2.6756)
  23 Fe    -0.002531    4.499905   16.394805    ( 0.0000,  0.0000,  2.7532)
  24 Fe     5.192469    0.000000   10.000000    ( 0.0000,  0.0000,  2.7500)
  25 Fe     6.490586    0.749468   12.119817    ( 0.0000,  0.0000,  2.6728)
  26 Fe     5.192507    1.498773   14.259748    ( 0.0000,  0.0000,  2.6756)
  27 Fe     5.192509   -0.000010   16.394157    ( 0.0000,  0.0000,  2.7532)
  28 Fe     3.894352    2.248405   10.000000    ( 0.0000,  0.0000,  2.7500)
  29 Fe     5.192469    2.997873   12.119817    ( 0.0000,  0.0000,  2.6728)
  30 Fe     3.893927    3.747055   14.260003    ( 0.0000,  0.0000,  2.6756)
  31 Fe     3.898415    2.249085   16.394775    ( 0.0000,  0.0000,  2.7532)
  32 Fe     2.596234    4.496810   10.000000    ( 0.0000,  0.0000,  2.7500)
  33 Fe     3.894352    5.246278   12.119817    ( 0.0000,  0.0000,  2.6728)
  34 Fe     2.596151    5.995801   14.259776    ( 0.0000,  0.0000,  2.6756)
  35 Fe     2.598822    4.499935   16.394829    ( 0.0000,  0.0000,  2.7532)
  36 O      1.298133    2.248398   18.371185    ( 0.0000,  0.0000,  0.0000)
  37 H      1.298114    2.248409   19.355116    ( 0.0000,  0.0000,  0.0000)

Unit cell:
           periodic     x           y           z      points  spacing
  1. axis:    yes    7.788703    0.000000    0.000000    36     0.1874
  2. axis:    yes   -3.894352    6.745215    0.000000    36     0.1874
  3. axis:    no     0.000000    0.000000   26.359450   148     0.1781

  Lengths:   7.788703   7.788703  26.359450
  Angles:   90.000000  90.000000 120.000000

Effective grid spacing dv^(1/3) = 0.1933

     iter     time        total  log10-change:  magmom
                         energy  eigst   dens
iter:   1 11:58:51 -2538.653943  -2.21           +98.0311
iter:   2 11:59:29 -2538.787421  -3.00  -2.69    +98.0374
iter:   3 12:00:08 -2538.647549c -3.48  -2.22    +98.0294
iter:   4 12:00:47 -2538.630706  -4.10  -2.66    +98.0235
iter:   5 12:01:26 -2538.631419c -4.46  -2.99    +98.0292
iter:   6 12:02:04 -2538.627499c -3.74  -3.02    +98.0284
iter:   7 12:02:43 -2538.625959c -3.76  -3.10    +98.0244
iter:   8 12:03:22 -2538.625379c -4.40  -3.30    +98.0104
iter:   9 12:04:01 -2538.625353c -4.81  -3.52    +98.0121
iter:  10 12:04:39 -2538.625311c -4.97  -3.62    +98.0128
iter:  11 12:05:18 -2538.625396c -5.23  -3.63    +98.0147
iter:  12 12:05:57 -2538.625128c -5.46  -3.68    +98.0179
iter:  13 12:06:35 -2538.625343c -5.78  -3.93    +98.0187
iter:  14 12:07:14 -2538.624990c -6.08  -4.02c   +98.0184
iter:  15 12:07:53 -2538.625207c -6.39  -4.02c   +98.0185
iter:  16 12:08:31 -2538.625272c -6.13  -4.13c   +98.0184
iter:  17 12:09:10 -2538.625127c -6.51  -3.75    +98.0181
iter:  18 12:09:48 -2538.625120c -6.68  -4.33c   +98.0180
iter:  19 12:10:27 -2538.625148c -6.67  -4.49c   +98.0179
iter:  20 12:11:06 -2538.625032c -6.63  -4.58c   +98.0179
iter:  21 12:11:45 -2538.625124c -6.76  -4.42c   +98.0181
iter:  22 12:12:23 -2538.625109c -7.09  -4.72c   +98.0184
iter:  23 12:13:02 -2538.625155c -7.30  -4.75c   +98.0184
iter:  24 12:13:41 -2538.625142c -7.28  -4.37c   +98.0185
iter:  25 12:14:19 -2538.625149c -7.59c -4.38c   +98.0184

Converged after 25 iterations.

Dipole moment: (-3.916859, -6.633951, 0.168815) |e|*Ang

Total magnetic moment: (0.000000, 0.000000, 98.018399)
Local magnetic moments:
   0 Fe ( 0.000000,  0.000000,  2.825589)
   1 Fe ( 0.000000,  0.000000,  2.755104)
   2 Fe ( 0.000000,  0.000000,  2.737277)
   3 Fe ( 0.000000,  0.000000,  2.858936)
   4 Fe ( 0.000000,  0.000000,  2.825968)
   5 Fe ( 0.000000,  0.000000,  2.754771)
   6 Fe ( 0.000000,  0.000000,  2.741867)
   7 Fe ( 0.000000,  0.000000,  2.859382)
   8 Fe ( 0.000000,  0.000000,  2.829234)
   9 Fe ( 0.000000,  0.000000,  2.746573)
  10 Fe ( 0.000000,  0.000000,  2.741379)
  11 Fe ( 0.000000,  0.000000,  2.841121)
  12 Fe ( 0.000000,  0.000000,  2.826787)
  13 Fe ( 0.000000,  0.000000,  2.742637)
  14 Fe ( 0.000000,  0.000000,  2.738648)
  15 Fe ( 0.000000,  0.000000,  2.859902)
  16 Fe ( 0.000000,  0.000000,  2.827189)
  17 Fe ( 0.000000,  0.000000,  2.755097)
  18 Fe ( 0.000000,  0.000000,  2.737137)
  19 Fe ( 0.000000,  0.000000,  2.814942)
  20 Fe ( 0.000000,  0.000000,  2.825972)
  21 Fe ( 0.000000,  0.000000,  2.741873)
  22 Fe ( 0.000000,  0.000000,  2.751051)
  23 Fe ( 0.000000,  0.000000,  2.859737)
  24 Fe ( 0.000000,  0.000000,  2.829115)
  25 Fe ( 0.000000,  0.000000,  2.741908)
  26 Fe ( 0.000000,  0.000000,  2.751108)
  27 Fe ( 0.000000,  0.000000,  2.854722)
  28 Fe ( 0.000000,  0.000000,  2.826784)
  29 Fe ( 0.000000,  0.000000,  2.746574)
  30 Fe ( 0.000000,  0.000000,  2.741479)
  31 Fe ( 0.000000,  0.000000,  2.859563)
  32 Fe ( 0.000000,  0.000000,  2.825591)
  33 Fe ( 0.000000,  0.000000,  2.745816)
  34 Fe ( 0.000000,  0.000000,  2.749621)
  35 Fe ( 0.000000,  0.000000,  2.858945)
  36 O  ( 0.000000,  0.000000,  0.173765)
  37 H  ( 0.000000,  0.000000,  0.003418)

Energy contributions relative to reference atoms: (reference = -1248353.708061)

Kinetic:       +832.748820
Potential:     -728.885697
External:        +0.000000
XC:            -2643.972723
Entropy (-ST):   -1.633936
Local:           +2.301418
--------------------------
Free energy:   -2539.442117
Extrapolated:  -2538.625149

Spin contamination: 2.625834 electrons
Showing only first 2 kpts
                      Up                     Down
 Kpt  Band  Eigenvalues  Occupancy  Eigenvalues  Occupancy
  0   145     -6.28272    1.00000     -3.41696    0.00000
  0   146     -6.26685    1.00000     -3.40282    0.00000
  0   147     -6.25709    1.00000     -3.40038    0.00000
  0   148     -6.24380    1.00000     -3.37817    0.00000

  1   145     -6.21679    1.00000     -3.31187    0.00000
  1   146     -6.19162    1.00000     -3.31165    0.00000
  1   147     -6.17086    1.00000     -3.30422    0.00000
  1   148     -6.15607    1.00000     -3.29950    0.00000


Fermi level: -4.70721

No gap

Forces in eV/Ang:
  0 Fe   -0.00100    0.00451   -0.15907
  1 Fe   -0.00182   -0.00221    0.03353
  2 Fe    0.06660    0.03697    0.01967
  3 Fe   -0.07133   -0.18708   -0.04126
  4 Fe    0.00213    0.00061   -0.15782
  5 Fe   -0.00398    0.00236    0.03489
  6 Fe    0.02522   -0.01458   -0.00699
  7 Fe   -0.19553    0.02973   -0.04340
  8 Fe   -0.00322    0.00196   -0.16360
  9 Fe   -0.01089   -0.00471    0.04591
 10 Fe    0.00179    0.02634   -0.00804
 11 Fe    0.00117   -0.00135   -0.01723
 12 Fe   -0.00349    0.00507   -0.15832
 13 Fe    0.00671   -0.00400    0.04643
 14 Fe   -0.06287    0.03645    0.01893
 15 Fe    0.07381   -0.18676   -0.04279
 16 Fe   -0.00237    0.00153   -0.15716
 17 Fe    0.00119    0.00286    0.03379
 18 Fe    0.00141   -0.07639    0.02023
 19 Fe   -0.00229    0.00190    1.70987
 20 Fe    0.00068   -0.00196   -0.15783
 21 Fe   -0.00023    0.01081    0.04952
 22 Fe    0.00922    0.00299   -0.02834
 23 Fe   -0.12054    0.15324   -0.04173
 24 Fe   -0.00210    0.00135   -0.16615
 25 Fe   -0.00952   -0.00535    0.04938
 26 Fe    0.00227   -0.01053   -0.02932
 27 Fe    0.00219   -0.00043   -0.04433
 28 Fe   -0.00597    0.00073   -0.15827
 29 Fe   -0.00139    0.01196    0.04569
 30 Fe   -0.02173   -0.01463   -0.00679
 31 Fe    0.19914    0.02944   -0.04367
 32 Fe   -0.00425   -0.00118   -0.15902
 33 Fe    0.00723   -0.00421    0.04588
 34 Fe   -0.00547    0.00345   -0.02740
 35 Fe    0.12363    0.15452   -0.04047
 36 O     0.00110   -0.00064   -0.13891
 37 H    -0.00026    0.00025   -1.14507

BFGS:    1 12:14:44    -2538.625149        1.7099
System changes: positions 

Initializing position-dependent things.

Density initialized from wave functions
                                          
                                          
                                          
                                          
                                          
                                          
                  H                       
                  O                       
          Fe    Fe     Fe                 
            Fe    Fe    Fe                
           Fe    Fe    Fe                 
             Fe    FFe   FFe              
              Fe     Fe    Fe             
             Fe     Fe    Fe              
               Fe     Fe    Fe            
                 Fe    Fe     Fe          
          Fe    Fe    Fe                  
            Fe    Fe    Fe                
             Fe     Fe    Fe              
                                          
                                          
                                          
                                          

Positions:
   0 Fe     0.000000    0.000000   10.000000    ( 0.0000,  0.0000,  2.7500)
   1 Fe     1.298117    0.749468   12.119817    ( 0.0000,  0.0000,  2.6728)
   2 Fe     0.003509    1.500877   14.259066    ( 0.0000,  0.0000,  2.6756)
   3 Fe    -0.005406   -0.014589   16.393211    ( 0.0000,  0.0000,  2.7532)
   4 Fe    -1.298117    2.248405   10.000000    ( 0.0000,  0.0000,  2.7500)
   5 Fe     0.000000    2.997873   12.119817    ( 0.0000,  0.0000,  2.6728)
   6 Fe    -1.296234    3.746251   14.259688    ( 0.0000,  0.0000,  2.6756)
   7 Fe    -1.313293    2.250883   16.393055    ( 0.0000,  0.0000,  2.7532)
   8 Fe    -2.596234    4.496810   10.000000    ( 0.0000,  0.0000,  2.7500)
   9 Fe    -1.298117    5.246278   12.119817    ( 0.0000,  0.0000,  2.6728)
  10 Fe    -2.596102    5.997735   14.259617    ( 0.0000,  0.0000,  2.6756)
  11 Fe    -2.596146    4.496705   16.393384    ( 0.0000,  0.0000,  2.7532)
  12 Fe     2.596234    0.000000   10.000000    ( 0.0000,  0.0000,  2.7500)
  13 Fe     3.894352    0.749468   12.119817    ( 0.0000,  0.0000,  2.6728)
  14 Fe     2.592982    1.500828   14.259010    ( 0.0000,  0.0000,  2.6756)
  15 Fe     2.601802   -0.014560   16.393106    ( 0.0000,  0.0000,  2.7532)
  16 Fe     1.298117    2.248405   10.000000    ( 0.0000,  0.0000,  2.7500)
  17 Fe     2.596234    2.997873   12.119817    ( 0.0000,  0.0000,  2.6728)
  18 Fe     1.298203    3.743312   14.259106    ( 0.0000,  0.0000,  2.6756)
  19 Fe     1.297948    2.248547   16.518675    ( 0.0000,  0.0000,  2.7532)
  20 Fe     0.000000    4.496810   10.000000    ( 0.0000,  0.0000,  2.7500)
  21 Fe     1.298117    5.246278   12.119817    ( 0.0000,  0.0000,  2.6728)
  22 Fe     0.000610    5.995938   14.258483    ( 0.0000,  0.0000,  2.6756)
  23 Fe    -0.009507    4.508617   16.393172    ( 0.0000,  0.0000,  2.7532)
  24 Fe     5.192469    0.000000   10.000000    ( 0.0000,  0.0000,  2.7500)
  25 Fe     6.490586    0.749468   12.119817    ( 0.0000,  0.0000,  2.6728)
  26 Fe     5.192628    1.498236   14.258422    ( 0.0000,  0.0000,  2.6756)
  27 Fe     5.192628   -0.000036   16.391610    ( 0.0000,  0.0000,  2.7532)
  28 Fe     3.894352    2.248405   10.000000    ( 0.0000,  0.0000,  2.7500)
  29 Fe     5.192469    2.997873   12.119817    ( 0.0000,  0.0000,  2.6728)
  30 Fe     3.892710    3.746237   14.259700    ( 0.0000,  0.0000,  2.6756)
  31 Fe     3.909788    2.250869   16.393044    ( 0.0000,  0.0000,  2.7532)
  32 Fe     2.596234    4.496810   10.000000    ( 0.0000,  0.0000,  2.7500)
  33 Fe     3.894352    5.246278   12.119817    ( 0.0000,  0.0000,  2.6728)
  34 Fe     2.595876    5.995978   14.258546    ( 0.0000,  0.0000,  2.6756)
  35 Fe     2.605966    4.508724   16.393266    ( 0.0000,  0.0000,  2.7532)
  36 O      1.298188    2.248368   18.336114    ( 0.0000,  0.0000,  0.0000)
  37 H      1.298103    2.248421   19.319892    ( 0.0000,  0.0000,  0.0000)

Unit cell:
           periodic     x           y           z      points  spacing
  1. axis:    yes    7.788703    0.000000    0.000000    36     0.1874
  2. axis:    yes   -3.894352    6.745215    0.000000    36     0.1874
  3. axis:    no     0.000000    0.000000   26.359450   148     0.1781

  Lengths:   7.788703   7.788703  26.359450
  Angles:   90.000000  90.000000 120.000000

Effective grid spacing dv^(1/3) = 0.1933

     iter     time        total  log10-change:  magmom
                         energy  eigst   dens
iter:   1 12:16:23 -2539.498076  -1.45           +97.9927
iter:   2 12:17:01 -2546.130895  -1.61  -1.93    +97.8351
iter:   3 12:17:40 -2539.900625  -1.90  -1.40    +97.7509
iter:   4 12:18:19 -2538.833585  -2.58  -1.82    +97.5775
iter:   5 12:18:57 -2538.774042  -3.06  -2.40    +97.7332
iter:   6 12:19:36 -2538.774565c -3.21  -2.62    +97.7993
iter:   7 12:20:15 -2538.777674c -3.53  -2.68    +97.8798
iter:   8 12:20:53 -2538.763702c -3.55  -2.67    +97.9522
iter:   9 12:21:32 -2538.762005c -3.57  -2.96    +97.9483
iter:  10 12:22:11 -2538.759358c -3.58  -3.28    +97.9685
iter:  11 12:22:49 -2538.759310c -3.95  -3.04    +97.9558
iter:  12 12:23:28 -2538.759409c -4.45  -3.22    +97.9624
iter:  13 12:24:06 -2538.756530c -4.55  -3.10    +97.9628
iter:  14 12:24:45 -2538.759904c -4.64  -3.36    +97.9526
iter:  15 12:25:24 -2538.745493c -3.95  -3.22    +97.9756
iter:  16 12:26:02 -2538.766035c -3.32  -2.74    +97.9241
iter:  17 12:26:41 -2538.762354c -4.79  -2.65    +97.9417
iter:  18 12:27:20 -2538.762418c -4.58  -3.11    +97.9470
iter:  19 12:27:58 -2538.762249c -5.49  -3.66    +97.9428
iter:  20 12:28:37 -2538.762444c -5.88  -3.45    +97.9422
iter:  21 12:29:16 -2538.762254c -5.68  -3.61    +97.9412
iter:  22 12:29:54 -2538.762674c -5.68  -3.76    +97.9408
iter:  23 12:30:33 -2538.762685c -6.04  -3.45    +97.9376
iter:  24 12:31:12 -2538.762872c -5.78  -3.39    +97.9373
iter:  25 12:31:50 -2538.762236c -6.04  -3.53    +97.9368
iter:  26 12:32:29 -2538.762532c -5.97  -3.72    +97.9372
iter:  27 12:33:08 -2538.762258c -6.30  -4.11c   +97.9351
iter:  28 12:33:47 -2538.762237c -6.19  -4.15c   +97.9389
iter:  29 12:34:25 -2538.762386c -6.23  -4.05c   +97.9431
iter:  30 12:35:04 -2538.762484c -6.33  -4.06c   +97.9442
iter:  31 12:35:43 -2538.762531c -6.90  -4.40c   +97.9435
iter:  32 12:36:21 -2538.762529c -6.96  -4.35c   +97.9447
iter:  33 12:37:00 -2538.762591c -5.78  -4.53c   +97.9389
iter:  34 12:37:38 -2538.762655c -6.66  -3.96    +97.9416
iter:  35 12:38:17 -2538.762584c -6.56  -4.50c   +97.9419
iter:  36 12:38:56 -2538.762642c -7.44c -4.68c   +97.9414

Converged after 36 iterations.

Dipole moment: (-3.619522, -5.897502, 0.236611) |e|*Ang

Total magnetic moment: (0.000000, 0.000000, 97.941359)
Local magnetic moments:
   0 Fe ( 0.000000,  0.000000,  2.825328)
   1 Fe ( 0.000000,  0.000000,  2.755881)
   2 Fe ( 0.000000,  0.000000,  2.743279)
   3 Fe ( 0.000000,  0.000000,  2.859891)
   4 Fe ( 0.000000,  0.000000,  2.825768)
   5 Fe ( 0.000000,  0.000000,  2.755363)
   6 Fe ( 0.000000,  0.000000,  2.741965)
   7 Fe ( 0.000000,  0.000000,  2.860825)
   8 Fe ( 0.000000,  0.000000,  2.828873)
   9 Fe ( 0.000000,  0.000000,  2.745995)
  10 Fe ( 0.000000,  0.000000,  2.741356)
  11 Fe ( 0.000000,  0.000000,  2.836222)
  12 Fe ( 0.000000,  0.000000,  2.826638)
  13 Fe ( 0.000000,  0.000000,  2.742363)
  14 Fe ( 0.000000,  0.000000,  2.745109)
  15 Fe ( 0.000000,  0.000000,  2.861416)
  16 Fe ( 0.000000,  0.000000,  2.826979)
  17 Fe ( 0.000000,  0.000000,  2.755884)
  18 Fe ( 0.000000,  0.000000,  2.743128)
  19 Fe ( 0.000000,  0.000000,  2.760827)
  20 Fe ( 0.000000,  0.000000,  2.825775)
  21 Fe ( 0.000000,  0.000000,  2.741239)
  22 Fe ( 0.000000,  0.000000,  2.750554)
  23 Fe ( 0.000000,  0.000000,  2.861132)
  24 Fe ( 0.000000,  0.000000,  2.830098)
  25 Fe ( 0.000000,  0.000000,  2.741260)
  26 Fe ( 0.000000,  0.000000,  2.750574)
  27 Fe ( 0.000000,  0.000000,  2.850678)
  28 Fe ( 0.000000,  0.000000,  2.826634)
  29 Fe ( 0.000000,  0.000000,  2.746000)
  30 Fe ( 0.000000,  0.000000,  2.741479)
  31 Fe ( 0.000000,  0.000000,  2.861079)
  32 Fe ( 0.000000,  0.000000,  2.825331)
  33 Fe ( 0.000000,  0.000000,  2.745135)
  34 Fe ( 0.000000,  0.000000,  2.748731)
  35 Fe ( 0.000000,  0.000000,  2.859855)
  36 O  ( 0.000000,  0.000000,  0.174593)
  37 H  ( 0.000000,  0.000000,  0.003957)

Energy contributions relative to reference atoms: (reference = -1248353.708061)

Kinetic:       +833.346203
Potential:     -729.577857
External:        +0.000000
XC:            -2644.043210
Entropy (-ST):   -1.620903
Local:           +2.322674
--------------------------
Free energy:   -2539.573093
Extrapolated:  -2538.762642

Spin contamination: 2.641022 electrons
Showing only first 2 kpts
                      Up                     Down
 Kpt  Band  Eigenvalues  Occupancy  Eigenvalues  Occupancy
  0   145     -6.20445    1.00000     -3.34439    0.00000
  0   146     -6.18986    1.00000     -3.32957    0.00000
  0   147     -6.18548    1.00000     -3.32348    0.00000
  0   148     -6.16945    1.00000     -3.30270    0.00000

  1   145     -6.13722    1.00000     -3.24129    0.00000
  1   146     -6.10941    1.00000     -3.24017    0.00000
  1   147     -6.10058    1.00000     -3.22844    0.00000
  1   148     -6.07540    1.00000     -3.22278    0.00000


Fermi level: -4.63535

No gap

Forces in eV/Ang:
  0 Fe   -0.00133    0.00572   -0.16093
  1 Fe   -0.00212    0.00070    0.03107
  2 Fe    0.08827    0.04933    0.18374
  3 Fe    0.01260    0.04475   -0.09226
  4 Fe    0.00302   -0.00009   -0.15992
  5 Fe   -0.00156    0.00101    0.03281
  6 Fe   -0.00369    0.00228   -0.01723
  7 Fe    0.04545   -0.01294   -0.09203
  8 Fe   -0.00342    0.00208   -0.16312
  9 Fe   -0.01713   -0.00829    0.03941
 10 Fe    0.00047   -0.00611   -0.01766
 11 Fe   -0.00027    0.00046    0.02280
 12 Fe   -0.00320    0.00640   -0.16062
 13 Fe    0.00533   -0.00327    0.03946
 14 Fe   -0.08601    0.04952    0.18358
 15 Fe   -0.01023    0.04452   -0.09242
 16 Fe   -0.00245    0.00158   -0.16109
 17 Fe   -0.00145    0.00172    0.03151
 18 Fe    0.00130   -0.10082    0.18392
 19 Fe   -0.00059    0.00051    0.29318
 20 Fe    0.00172   -0.00236   -0.15992
 21 Fe   -0.00001    0.00915    0.04254
 22 Fe    0.00568    0.00192   -0.04875
 23 Fe    0.03389   -0.03289   -0.09134
 24 Fe   -0.00213    0.00137   -0.17099
 25 Fe   -0.00793   -0.00475    0.04215
 26 Fe    0.00091   -0.00600   -0.04968
 27 Fe    0.00043    0.00006    0.00177
 28 Fe   -0.00698   -0.00016   -0.16056
 29 Fe   -0.00148    0.01920    0.03926
 30 Fe    0.00544    0.00274   -0.01690
 31 Fe   -0.04419   -0.01368   -0.09278
 32 Fe   -0.00545   -0.00150   -0.16088
 33 Fe    0.01323   -0.00776    0.03927
 34 Fe   -0.00342    0.00166   -0.04807
 35 Fe   -0.03291   -0.03358   -0.09195
 36 O     0.00201   -0.00155    1.22834
 37 H    -0.00040    0.00042   -1.19995

BFGS:    2 12:39:21    -2538.762642        1.2283
System changes: positions 

Initializing position-dependent things.

Density initialized from wave functions
                                          
                                          
                                          
                                          
                                          
                                          
                  H                       
                  O                       
          Fe    Fe     Fe                 
            Fe    Fe    Fe                
           Fe    Fe    Fe                 
             Fe    FFe   FFe              
              Fe     Fe    Fe             
             Fe     Fe    Fe              
               Fe     Fe    Fe            
                 Fe    Fe     Fe          
          Fe    Fe    Fe                  
            Fe    Fe    Fe                
             Fe     Fe    Fe              
                                          
                                          
                                          
                                          

Positions:
   0 Fe     0.000000    0.000000   10.000000    ( 0.0000,  0.0000,  2.7500)
   1 Fe     1.298117    0.749468   12.119817    ( 0.0000,  0.0000,  2.6728)
   2 Fe     0.005218    1.501829   14.261513    ( 0.0000,  0.0000,  2.6756)
   3 Fe    -0.005993   -0.016060   16.391638    ( 0.0000,  0.0000,  2.7532)
   4 Fe    -1.298117    2.248405   10.000000    ( 0.0000,  0.0000,  2.7500)
   5 Fe     0.000000    2.997873   12.119817    ( 0.0000,  0.0000,  2.6728)
   6 Fe    -1.296023    3.746131   14.259374    ( 0.0000,  0.0000,  2.6756)
   7 Fe    -1.314830    2.251070   16.391464    ( 0.0000,  0.0000,  2.7532)
   8 Fe    -2.596234    4.496810   10.000000    ( 0.0000,  0.0000,  2.7500)
   9 Fe    -1.298117    5.246278   12.119817    ( 0.0000,  0.0000,  2.6728)
  10 Fe    -2.596075    5.997927   14.259287    ( 0.0000,  0.0000,  2.6756)
  11 Fe    -2.596137    4.496697   16.393449    ( 0.0000,  0.0000,  2.7532)
  12 Fe     2.596234    0.000000   10.000000    ( 0.0000,  0.0000,  2.7500)
  13 Fe     3.894352    0.749468   12.119817    ( 0.0000,  0.0000,  2.6728)
  14 Fe     2.591343    1.501775   14.261446    ( 0.0000,  0.0000,  2.6756)
  15 Fe     2.602447   -0.016030   16.391516    ( 0.0000,  0.0000,  2.7532)
  16 Fe     1.298117    2.248405   10.000000    ( 0.0000,  0.0000,  2.7500)
  17 Fe     2.596234    2.997873   12.119817    ( 0.0000,  0.0000,  2.6728)
  18 Fe     1.298233    3.741357   14.261561    ( 0.0000,  0.0000,  2.6756)
  19 Fe     1.297914    2.248576   16.540578    ( 0.0000,  0.0000,  2.7532)
  20 Fe     0.000000    4.496810   10.000000    ( 0.0000,  0.0000,  2.7500)
  21 Fe     1.298117    5.246278   12.119817    ( 0.0000,  0.0000,  2.6728)
  22 Fe     0.000778    5.995992   14.257546    ( 0.0000,  0.0000,  2.6756)
  23 Fe    -0.010405    4.509840   16.391607    ( 0.0000,  0.0000,  2.7532)
  24 Fe     5.192469    0.000000   10.000000    ( 0.0000,  0.0000,  2.7500)
  25 Fe     6.490586    0.749468   12.119817    ( 0.0000,  0.0000,  2.6728)
  26 Fe     5.192664    1.498051   14.257462    ( 0.0000,  0.0000,  2.6756)
  27 Fe     5.192658   -0.000041   16.391117    ( 0.0000,  0.0000,  2.7532)
  28 Fe     3.894352    2.248405   10.000000    ( 0.0000,  0.0000,  2.7500)
  29 Fe     5.192469    2.997873   12.119817    ( 0.0000,  0.0000,  2.6728)
  30 Fe     3.892558    3.746120   14.259394    ( 0.0000,  0.0000,  2.6756)
  31 Fe     3.911382    2.251042   16.391441    ( 0.0000,  0.0000,  2.7532)
  32 Fe     2.596234    4.496810   10.000000    ( 0.0000,  0.0000,  2.7500)
  33 Fe     3.894352    5.246278   12.119817    ( 0.0000,  0.0000,  2.6728)
  34 Fe     2.595777    5.996034   14.257628    ( 0.0000,  0.0000,  2.6756)
  35 Fe     2.606911    4.509954   16.391705    ( 0.0000,  0.0000,  2.7532)
  36 O      1.298229    2.248339   18.340141    ( 0.0000,  0.0000,  0.0000)
  37 H      1.298095    2.248430   19.303038    ( 0.0000,  0.0000,  0.0000)

Unit cell:
           periodic     x           y           z      points  spacing
  1. axis:    yes    7.788703    0.000000    0.000000    36     0.1874
  2. axis:    yes   -3.894352    6.745215    0.000000    36     0.1874
  3. axis:    no     0.000000    0.000000   26.359450   148     0.1781

  Lengths:   7.788703   7.788703  26.359450
  Angles:   90.000000  90.000000 120.000000

Effective grid spacing dv^(1/3) = 0.1933

     iter     time        total  log10-change:  magmom
                         energy  eigst   dens
iter:   1 12:41:00 -2539.149683  -2.47           +97.9347
iter:   2 12:41:38 -2546.718133  -1.76  -2.04    +97.8373
iter:   3 12:42:17 -2538.899889  -2.17  -1.39    +97.7254
iter:   4 12:42:56 -2538.806012  -2.95  -2.34    +97.7187
iter:   5 12:43:35 -2538.781498c -3.51  -2.64    +97.7874
iter:   6 12:44:13 -2538.785175c -3.95  -2.92    +97.8180
iter:   7 12:44:52 -2538.788434c -4.42  -3.07    +97.8722
iter:   8 12:45:31 -2538.786927c -4.40  -2.94    +97.9141
iter:   9 12:46:09 -2538.786949c -4.79  -3.07    +97.9257
iter:  10 12:46:48 -2538.793107c -4.70  -3.03    +97.9415
iter:  11 12:47:27 -2538.786640c -4.91  -2.79    +97.9288
iter:  12 12:48:06 -2538.790919c -5.16  -2.99    +97.9350
iter:  13 12:48:44 -2538.787185c -4.97  -2.80    +97.9330
iter:  14 12:49:24 -2538.787758c -5.46  -3.04    +97.9339
iter:  15 12:50:02 -2538.786776c -5.30  -3.02    +97.9330
iter:  16 12:50:41 -2538.784930c -5.11  -3.11    +97.9332
iter:  17 12:51:20 -2538.783368c -4.59  -3.20    +97.9326
iter:  18 12:51:58 -2538.784861c -4.96  -3.25    +97.9383
iter:  19 12:52:37 -2538.783223c -5.30  -3.19    +97.9323
iter:  20 12:53:16 -2538.784823c -5.29  -3.38    +97.9338
iter:  21 12:53:55 -2538.784179c -5.40  -3.21    +97.9274
iter:  22 12:54:33 -2538.783570c -5.51  -3.35    +97.9279
iter:  23 12:55:12 -2538.783641c -5.93  -3.39    +97.9241
iter:  24 12:55:51 -2538.783821c -5.40  -3.50    +97.9192
iter:  25 12:56:29 -2538.784730c -5.50  -3.80    +97.9223
iter:  26 12:57:08 -2538.784435c -5.61  -3.35    +97.9222
iter:  27 12:57:47 -2538.784345c -6.11  -3.47    +97.9279
iter:  28 12:58:26 -2538.784604c -6.03  -3.48    +97.9315
iter:  29 12:59:05 -2538.784073c -5.60  -3.36    +97.9335
iter:  30 12:59:43 -2538.783769c -6.35  -3.32    +97.9310
iter:  31 13:00:22 -2538.783866c -6.36  -3.42    +97.9302
iter:  32 13:01:01 -2538.784276c -6.44  -3.41    +97.9290
iter:  33 13:01:40 -2538.783683c -6.01  -3.33    +97.9290
iter:  34 13:02:18 -2538.783281c -6.16  -3.60    +97.9291
iter:  35 13:02:57 -2538.783503c -6.05  -3.80    +97.9281
iter:  36 13:03:36 -2538.782723c -6.15  -4.04c   +97.9313
iter:  37 13:04:15 -2538.785609c -5.00  -3.90    +97.9122
iter:  38 13:04:54 -2538.784707c -5.84  -3.37    +97.9168
iter:  39 13:05:32 -2538.784189c -5.93  -3.78    +97.9198
iter:  40 13:06:11 -2538.783999c -6.03  -4.13c   +97.9216
iter:  41 13:06:50 -2538.783832c -6.13  -4.03c   +97.9231
iter:  42 13:07:28 -2538.783965c -6.33  -3.76    +97.9205
iter:  43 13:08:07 -2538.783786c -6.59  -4.57c   +97.9224
iter:  44 13:08:46 -2538.783678c -6.62  -4.15c   +97.9236
iter:  45 13:09:25 -2538.783539c -6.45  -4.01c   +97.9254
iter:  46 13:10:03 -2538.783558c -7.29  -3.86    +97.9251
iter:  47 13:10:42 -2538.783530c -7.27  -3.89    +97.9250
iter:  48 13:11:21 -2538.783544c -7.73c -3.85    +97.9251
iter:  49 13:12:00 -2538.783639c -7.14  -3.89    +97.9252
iter:  50 13:12:38 -2538.783670c -6.59  -3.95    +97.9252
iter:  51 13:13:17 -2538.783891c -6.53  -4.01c   +97.9251
iter:  52 13:13:56 -2538.783831c -6.90  -4.27c   +97.9246
iter:  53 13:14:35 -2538.783850c -6.51  -4.44c   +97.9230
iter:  54 13:15:13 -2538.783912c -6.81  -4.45c   +97.9223
iter:  55 13:15:52 -2538.783865c -6.54  -4.64c   +97.9220
iter:  56 13:16:31 -2538.783873c -7.63c -4.59c   +97.9223

Converged after 56 iterations.

Dipole moment: (-3.558496, -5.789977, 0.237231) |e|*Ang

Total magnetic moment: (0.000000, 0.000000, 97.922348)
Local magnetic moments:
   0 Fe ( 0.000000,  0.000000,  2.824910)
   1 Fe ( 0.000000,  0.000000,  2.756270)
   2 Fe ( 0.000000,  0.000000,  2.743973)
   3 Fe ( 0.000000,  0.000000,  2.860015)
   4 Fe ( 0.000000,  0.000000,  2.825275)
   5 Fe ( 0.000000,  0.000000,  2.755714)
   6 Fe ( 0.000000,  0.000000,  2.741762)
   7 Fe ( 0.000000,  0.000000,  2.861136)
   8 Fe ( 0.000000,  0.000000,  2.828164)
   9 Fe ( 0.000000,  0.000000,  2.745592)
  10 Fe ( 0.000000,  0.000000,  2.741126)
  11 Fe ( 0.000000,  0.000000,  2.837213)
  12 Fe ( 0.000000,  0.000000,  2.826102)
  13 Fe ( 0.000000,  0.000000,  2.742435)
  14 Fe ( 0.000000,  0.000000,  2.745899)
  15 Fe ( 0.000000,  0.000000,  2.861722)
  16 Fe ( 0.000000,  0.000000,  2.826904)
  17 Fe ( 0.000000,  0.000000,  2.756275)
  18 Fe ( 0.000000,  0.000000,  2.743820)
  19 Fe ( 0.000000,  0.000000,  2.749406)
  20 Fe ( 0.000000,  0.000000,  2.825265)
  21 Fe ( 0.000000,  0.000000,  2.741234)
  22 Fe ( 0.000000,  0.000000,  2.750563)
  23 Fe ( 0.000000,  0.000000,  2.861408)
  24 Fe ( 0.000000,  0.000000,  2.829891)
  25 Fe ( 0.000000,  0.000000,  2.741251)
  26 Fe ( 0.000000,  0.000000,  2.750575)
  27 Fe ( 0.000000,  0.000000,  2.851653)
  28 Fe ( 0.000000,  0.000000,  2.826098)
  29 Fe ( 0.000000,  0.000000,  2.745599)
  30 Fe ( 0.000000,  0.000000,  2.741256)
  31 Fe ( 0.000000,  0.000000,  2.861386)
  32 Fe ( 0.000000,  0.000000,  2.824896)
  33 Fe ( 0.000000,  0.000000,  2.744718)
  34 Fe ( 0.000000,  0.000000,  2.748660)
  35 Fe ( 0.000000,  0.000000,  2.859946)
  36 O  ( 0.000000,  0.000000,  0.173092)
  37 H  ( 0.000000,  0.000000,  0.003803)

Energy contributions relative to reference atoms: (reference = -1248353.708061)

Kinetic:       +834.446361
Potential:     -730.426654
External:        +0.000000
XC:            -2644.318653
Entropy (-ST):   -1.618814
Local:           +2.324480
--------------------------
Free energy:   -2539.593280
Extrapolated:  -2538.783873

Spin contamination: 2.641946 electrons
Showing only first 2 kpts
                      Up                     Down
 Kpt  Band  Eigenvalues  Occupancy  Eigenvalues  Occupancy
  0   145     -6.20147    1.00000     -3.34270    0.00000
  0   146     -6.18772    1.00000     -3.32785    0.00000
  0   147     -6.18381    1.00000     -3.32064    0.00000
  0   148     -6.16686    1.00000     -3.30049    0.00000

  1   145     -6.13328    1.00000     -3.23997    0.00000
  1   146     -6.10598    1.00000     -3.23843    0.00000
  1   147     -6.09890    1.00000     -3.22600    0.00000
  1   148     -6.07155    1.00000     -3.22085    0.00000


Fermi level: -4.63395

No gap

Forces in eV/Ang:
  0 Fe   -0.00154    0.00554   -0.15911
  1 Fe   -0.00218    0.00443    0.04032
  2 Fe    0.06783    0.03784    0.19467
  3 Fe    0.02689    0.07872   -0.08789
  4 Fe    0.00269   -0.00020   -0.15814
  5 Fe    0.00159   -0.00079    0.04209
  6 Fe   -0.01046    0.00619   -0.02050
  7 Fe    0.08162   -0.01722   -0.08700
  8 Fe   -0.00337    0.00204   -0.16128
  9 Fe   -0.01901   -0.00931    0.03749
 10 Fe    0.00015   -0.01318   -0.02086
 11 Fe   -0.00041    0.00063    0.03416
 12 Fe   -0.00282    0.00622   -0.15894
 13 Fe    0.00017   -0.00032    0.04337
 14 Fe   -0.06646    0.03820    0.19478
 15 Fe   -0.02480    0.07839   -0.08747
 16 Fe   -0.00240    0.00154   -0.15871
 17 Fe   -0.00469   -0.00007    0.04082
 18 Fe    0.00101   -0.07734    0.19476
 19 Fe   -0.00003    0.00011   -0.13155
 20 Fe    0.00165   -0.00203   -0.15814
 21 Fe   -0.00003    0.00328    0.04652
 22 Fe    0.00410    0.00146   -0.05027
 23 Fe    0.05520   -0.06190   -0.08673
 24 Fe   -0.00220    0.00138   -0.17034
 25 Fe   -0.00282   -0.00181    0.04606
 26 Fe    0.00049   -0.00419   -0.05107
 27 Fe    0.00008    0.00011    0.01345
 28 Fe   -0.00665   -0.00042   -0.15889
 29 Fe   -0.00157    0.02137    0.03735
 30 Fe    0.01136    0.00653   -0.02028
 31 Fe   -0.08088   -0.01796   -0.08762
 32 Fe   -0.00541   -0.00125   -0.15907
 33 Fe    0.01500   -0.00881    0.03743
 34 Fe   -0.00263    0.00115   -0.04975
 35 Fe   -0.05472   -0.06285   -0.08778
 36 O     0.00288   -0.00224    0.61834
 37 H    -0.00050    0.00050   -0.23350

BFGS:    3 13:16:56    -2538.783873        0.6183
System changes: positions 

Initializing position-dependent things.

Density initialized from wave functions
                                          
                                          
                                          
                                          
                                          
                                          
                  H                       
                  O                       
          Fe    Fe     Fe                 
            Fe    Fe    Fe                
           Fe    Fe    Fe                 
             Fe    FFe   FFe              
              Fe     Fe    Fe             
             Fe     Fe    Fe              
               Fe     Fe    Fe            
                 Fe    Fe     Fe          
          Fe    Fe    Fe                  
            Fe    Fe    Fe                
             Fe     Fe    Fe              
                                          
                                          
                                          
                                          

Positions:
   0 Fe     0.000000    0.000000   10.000000    ( 0.0000,  0.0000,  2.7500)
   1 Fe     1.298117    0.749468   12.119817    ( 0.0000,  0.0000,  2.6728)
   2 Fe     0.006382    1.502479   14.265123    ( 0.0000,  0.0000,  2.6756)
   3 Fe    -0.005365   -0.014268   16.390055    ( 0.0000,  0.0000,  2.7532)
   4 Fe    -1.298117    2.248405   10.000000    ( 0.0000,  0.0000,  2.7500)
   5 Fe     0.000000    2.997873   12.119817    ( 0.0000,  0.0000,  2.6728)
   6 Fe    -1.296261    3.746271   14.259001    ( 0.0000,  0.0000,  2.6756)
   7 Fe    -1.312967    2.250700   16.389901    ( 0.0000,  0.0000,  2.7532)
   8 Fe    -2.596234    4.496810   10.000000    ( 0.0000,  0.0000,  2.7500)
   9 Fe    -1.298117    5.246278   12.119817    ( 0.0000,  0.0000,  2.6728)
  10 Fe    -2.596075    5.997635   14.258909    ( 0.0000,  0.0000,  2.6756)
  11 Fe    -2.596147    4.496711   16.394100    ( 0.0000,  0.0000,  2.7532)
  12 Fe     2.596234    0.000000   10.000000    ( 0.0000,  0.0000,  2.7500)
  13 Fe     3.894352    0.749468   12.119817    ( 0.0000,  0.0000,  2.6728)
  14 Fe     2.590199    1.502432   14.265059    ( 0.0000,  0.0000,  2.6756)
  15 Fe     2.601854   -0.014245   16.389943    ( 0.0000,  0.0000,  2.7532)
  16 Fe     1.298117    2.248405   10.000000    ( 0.0000,  0.0000,  2.7500)
  17 Fe     2.596234    2.997873   12.119817    ( 0.0000,  0.0000,  2.6728)
  18 Fe     1.298250    3.740030   14.265172    ( 0.0000,  0.0000,  2.6756)
  19 Fe     1.297916    2.248576   16.535461    ( 0.0000,  0.0000,  2.7532)
  20 Fe     0.000000    4.496810   10.000000    ( 0.0000,  0.0000,  2.7500)
  21 Fe     1.298117    5.246278   12.119817    ( 0.0000,  0.0000,  2.6728)
  22 Fe     0.000839    5.996015   14.256649    ( 0.0000,  0.0000,  2.6756)
  23 Fe    -0.009167    4.508417   16.390046    ( 0.0000,  0.0000,  2.7532)
  24 Fe     5.192469    0.000000   10.000000    ( 0.0000,  0.0000,  2.7500)
  25 Fe     6.490586    0.749468   12.119817    ( 0.0000,  0.0000,  2.6728)
  26 Fe     5.192670    1.497990   14.256552    ( 0.0000,  0.0000,  2.6756)
  27 Fe     5.192656   -0.000038   16.391429    ( 0.0000,  0.0000,  2.7532)
  28 Fe     3.894352    2.248405   10.000000    ( 0.0000,  0.0000,  2.7500)
  29 Fe     5.192469    2.997873   12.119817    ( 0.0000,  0.0000,  2.6728)
  30 Fe     3.892808    3.746267   14.259025    ( 0.0000,  0.0000,  2.6756)
  31 Fe     3.909528    2.250659   16.389866    ( 0.0000,  0.0000,  2.7532)
  32 Fe     2.596234    4.496810   10.000000    ( 0.0000,  0.0000,  2.7500)
  33 Fe     3.894352    5.246278   12.119817    ( 0.0000,  0.0000,  2.6728)
  34 Fe     2.595737    5.996050   14.256740    ( 0.0000,  0.0000,  2.6756)
  35 Fe     2.605678    4.508511   16.390122    ( 0.0000,  0.0000,  2.7532)
  36 O      1.298281    2.248298   18.351055    ( 0.0000,  0.0000,  0.0000)
  37 H      1.298086    2.248438   19.301422    ( 0.0000,  0.0000,  0.0000)

Unit cell:
           periodic     x           y           z      points  spacing
  1. axis:    yes    7.788703    0.000000    0.000000    36     0.1874
  2. axis:    yes   -3.894352    6.745215    0.000000    36     0.1874
  3. axis:    no     0.000000    0.000000   26.359450   148     0.1781

  Lengths:   7.788703   7.788703  26.359450
  Angles:   90.000000  90.000000 120.000000

Effective grid spacing dv^(1/3) = 0.1933

     iter     time        total  log10-change:  magmom
                         energy  eigst   dens
iter:   1 13:18:35 -2538.808473  -2.97           +97.9249
iter:   2 13:19:14 -2539.162239  -3.04  -2.68    +97.9035
iter:   3 13:19:53 -2538.790821  -3.57  -2.04    +97.9099
iter:   4 13:20:32 -2538.791390  -4.30  -3.31    +97.9166
iter:   5 13:21:10 -2538.789458c -4.60  -3.19    +97.9178
iter:   6 13:21:49 -2538.790222c -4.33  -3.39    +97.9230
iter:   7 13:22:28 -2538.788969c -4.77  -3.41    +97.9288
iter:   8 13:23:07 -2538.789214c -5.06  -3.51    +97.9358
iter:   9 13:23:45 -2538.789423c -5.31  -3.81    +97.9354
iter:  10 13:24:24 -2538.789119c -5.57  -3.63    +97.9348
iter:  11 13:25:03 -2538.788820c -5.90  -4.02c   +97.9338
iter:  12 13:25:42 -2538.789045c -6.19  -3.93    +97.9327
iter:  13 13:26:20 -2538.789071c -6.11  -4.20c   +97.9322
iter:  14 13:26:59 -2538.789129c -6.48  -4.18c   +97.9315
iter:  15 13:27:38 -2538.789156c -6.97  -4.10c   +97.9312
iter:  16 13:28:17 -2538.789116c -7.18  -4.26c   +97.9312
iter:  17 13:28:55 -2538.789019c -6.74  -4.15c   +97.9308
iter:  18 13:29:34 -2538.789118c -7.54c -4.29c   +97.9308

Converged after 18 iterations.

Dipole moment: (-3.585884, -5.909290, 0.223800) |e|*Ang

Total magnetic moment: (0.000000, 0.000000, 97.930785)
Local magnetic moments:
   0 Fe ( 0.000000,  0.000000,  2.823946)
   1 Fe ( 0.000000,  0.000000,  2.756554)
   2 Fe ( 0.000000,  0.000000,  2.743459)
   3 Fe ( 0.000000,  0.000000,  2.860254)
   4 Fe ( 0.000000,  0.000000,  2.824362)
   5 Fe ( 0.000000,  0.000000,  2.755997)
   6 Fe ( 0.000000,  0.000000,  2.742120)
   7 Fe ( 0.000000,  0.000000,  2.861238)
   8 Fe ( 0.000000,  0.000000,  2.827310)
   9 Fe ( 0.000000,  0.000000,  2.745238)
  10 Fe ( 0.000000,  0.000000,  2.741504)
  11 Fe ( 0.000000,  0.000000,  2.838599)
  12 Fe ( 0.000000,  0.000000,  2.825231)
  13 Fe ( 0.000000,  0.000000,  2.742578)
  14 Fe ( 0.000000,  0.000000,  2.745352)
  15 Fe ( 0.000000,  0.000000,  2.861857)
  16 Fe ( 0.000000,  0.000000,  2.825632)
  17 Fe ( 0.000000,  0.000000,  2.756559)
  18 Fe ( 0.000000,  0.000000,  2.743299)
  19 Fe ( 0.000000,  0.000000,  2.760009)
  20 Fe ( 0.000000,  0.000000,  2.824366)
  21 Fe ( 0.000000,  0.000000,  2.741410)
  22 Fe ( 0.000000,  0.000000,  2.751407)
  23 Fe ( 0.000000,  0.000000,  2.861503)
  24 Fe ( 0.000000,  0.000000,  2.828648)
  25 Fe ( 0.000000,  0.000000,  2.741430)
  26 Fe ( 0.000000,  0.000000,  2.751425)
  27 Fe ( 0.000000,  0.000000,  2.852506)
  28 Fe ( 0.000000,  0.000000,  2.825227)
  29 Fe ( 0.000000,  0.000000,  2.745245)
  30 Fe ( 0.000000,  0.000000,  2.741631)
  31 Fe ( 0.000000,  0.000000,  2.861530)
  32 Fe ( 0.000000,  0.000000,  2.823945)
  33 Fe ( 0.000000,  0.000000,  2.744374)
  34 Fe ( 0.000000,  0.000000,  2.749560)
  35 Fe ( 0.000000,  0.000000,  2.860187)
  36 O  ( 0.000000,  0.000000,  0.172178)
  37 H  ( 0.000000,  0.000000,  0.003637)

Energy contributions relative to reference atoms: (reference = -1248353.708061)

Kinetic:       +834.858243
Potential:     -730.695852
External:        +0.000000
XC:            -2644.467205
Entropy (-ST):   -1.619704
Local:           +2.325548
--------------------------
Free energy:   -2539.598970
Extrapolated:  -2538.789118

Spin contamination: 2.639800 electrons
Showing only first 2 kpts
                      Up                     Down
 Kpt  Band  Eigenvalues  Occupancy  Eigenvalues  Occupancy
  0   145     -6.21594    1.00000     -3.35677    0.00000
  0   146     -6.20279    1.00000     -3.34179    0.00000
  0   147     -6.19804    1.00000     -3.33563    0.00000
  0   148     -6.18166    1.00000     -3.31548    0.00000

  1   145     -6.14925    1.00000     -3.25475    0.00000
  1   146     -6.12215    1.00000     -3.25213    0.00000
  1   147     -6.11364    1.00000     -3.24032    0.00000
  1   148     -6.08700    1.00000     -3.23620    0.00000


Fermi level: -4.64843

No gap

Forces in eV/Ang:
  0 Fe   -0.00180    0.00547   -0.15810
  1 Fe   -0.00209    0.00789    0.05195
  2 Fe    0.04172    0.02304    0.15206
  3 Fe    0.01615    0.04580   -0.07451
  4 Fe    0.00253   -0.00040   -0.15703
  5 Fe    0.00458   -0.00252    0.05373
  6 Fe   -0.00689    0.00406   -0.02167
  7 Fe    0.04768   -0.00966   -0.07386
  8 Fe   -0.00342    0.00208   -0.15976
  9 Fe   -0.01965   -0.00974    0.03386
 10 Fe    0.00036   -0.00869   -0.02213
 11 Fe   -0.00011    0.00028    0.02914
 12 Fe   -0.00267    0.00612   -0.15776
 13 Fe   -0.00569    0.00304    0.04809
 14 Fe   -0.04087    0.02348    0.15237
 15 Fe   -0.01482    0.04548   -0.07437
 16 Fe   -0.00246    0.00157   -0.15756
 17 Fe   -0.00764   -0.00188    0.05248
 18 Fe    0.00081   -0.04748    0.15213
 19 Fe    0.00004    0.00001    0.21270
 20 Fe    0.00174   -0.00178   -0.15701
 21 Fe   -0.00006   -0.00357    0.05127
 22 Fe    0.00292    0.00092   -0.04528
 23 Fe    0.03184   -0.03629   -0.07358
 24 Fe   -0.00214    0.00137   -0.16958
 25 Fe    0.00312    0.00163    0.05080
 26 Fe    0.00050   -0.00294   -0.04592
 27 Fe    0.00012    0.00006    0.00902
 28 Fe   -0.00647   -0.00048   -0.15771
 29 Fe   -0.00152    0.02218    0.03372
 30 Fe    0.00763    0.00406   -0.02163
 31 Fe   -0.04716   -0.01009   -0.07453
 32 Fe   -0.00545   -0.00096   -0.15805
 33 Fe    0.01573   -0.00924    0.03379
 34 Fe   -0.00181    0.00085   -0.04491
 35 Fe   -0.03155   -0.03694   -0.07439
 36 O     0.00323   -0.00255   -0.19376
 37 H    -0.00068    0.00063    0.42814

BFGS:    4 13:29:59    -2538.789118        0.4281
System changes: positions 

Initializing position-dependent things.

Density initialized from wave functions
                                          
                                          
                                          
                                          
                                          
                                          
                  H                       
                  O                       
          Fe    Fe     Fe                 
            Fe    Fe    Fe                
           Fe    Fe    Fe                 
             Fe    FFe   FFe              
              Fe     Fe    Fe             
             Fe     Fe    Fe              
               Fe     Fe    Fe            
                 Fe    Fe     Fe          
          Fe    Fe    Fe                  
            Fe    Fe    Fe                
             Fe     Fe    Fe              
                                          
                                          
                                          
                                          

Positions:
   0 Fe     0.000000    0.000000   10.000000    ( 0.0000,  0.0000,  2.7500)
   1 Fe     1.298117    0.749468   12.119817    ( 0.0000,  0.0000,  2.6728)
   2 Fe     0.007509    1.503104   14.268532    ( 0.0000,  0.0000,  2.6756)
   3 Fe    -0.005054   -0.013350   16.388389    ( 0.0000,  0.0000,  2.7532)
   4 Fe    -1.298117    2.248405   10.000000    ( 0.0000,  0.0000,  2.7500)
   5 Fe     0.000000    2.997873   12.119817    ( 0.0000,  0.0000,  2.6728)
   6 Fe    -1.296392    3.746348   14.258562    ( 0.0000,  0.0000,  2.6756)
   7 Fe    -1.312015    2.250489   16.388246    ( 0.0000,  0.0000,  2.7532)
   8 Fe    -2.596234    4.496810   10.000000    ( 0.0000,  0.0000,  2.7500)
   9 Fe    -1.298117    5.246278   12.119817    ( 0.0000,  0.0000,  2.6728)
  10 Fe    -2.596067    5.997463   14.258459    ( 0.0000,  0.0000,  2.6756)
  11 Fe    -2.596150    4.496718   16.394696    ( 0.0000,  0.0000,  2.7532)
  12 Fe     2.596234    0.000000   10.000000    ( 0.0000,  0.0000,  2.7500)
  13 Fe     3.894352    0.749468   12.119817    ( 0.0000,  0.0000,  2.6728)
  14 Fe     2.589098    1.503065   14.268472    ( 0.0000,  0.0000,  2.6756)
  15 Fe     2.601579   -0.013333   16.388279    ( 0.0000,  0.0000,  2.7532)
  16 Fe     1.298117    2.248405   10.000000    ( 0.0000,  0.0000,  2.7500)
  17 Fe     2.596234    2.997873   12.119817    ( 0.0000,  0.0000,  2.6728)
  18 Fe     1.298270    3.738746   14.268583    ( 0.0000,  0.0000,  2.6756)
  19 Fe     1.297914    2.248579   16.539835    ( 0.0000,  0.0000,  2.7532)
  20 Fe     0.000000    4.496810   10.000000    ( 0.0000,  0.0000,  2.7500)
  21 Fe     1.298117    5.246278   12.119817    ( 0.0000,  0.0000,  2.6728)
  22 Fe     0.000919    5.996041   14.255659    ( 0.0000,  0.0000,  2.6756)
  23 Fe    -0.008513    4.507699   16.388400    ( 0.0000,  0.0000,  2.7532)
  24 Fe     5.192469    0.000000   10.000000    ( 0.0000,  0.0000,  2.7500)
  25 Fe     6.490586    0.749468   12.119817    ( 0.0000,  0.0000,  2.6728)
  26 Fe     5.192683    1.497908   14.255546    ( 0.0000,  0.0000,  2.6756)
  27 Fe     5.192661   -0.000037   16.391579    ( 0.0000,  0.0000,  2.7532)
  28 Fe     3.894352    2.248405   10.000000    ( 0.0000,  0.0000,  2.7500)
  29 Fe     5.192469    2.997873   12.119817    ( 0.0000,  0.0000,  2.6728)
  30 Fe     3.892960    3.746347   14.258587    ( 0.0000,  0.0000,  2.6756)
  31 Fe     3.908592    2.250437   16.388198    ( 0.0000,  0.0000,  2.7532)
  32 Fe     2.596234    4.496810   10.000000    ( 0.0000,  0.0000,  2.7500)
  33 Fe     3.894352    5.246278   12.119817    ( 0.0000,  0.0000,  2.6728)
  34 Fe     2.595688    5.996073   14.255759    ( 0.0000,  0.0000,  2.6756)
  35 Fe     2.605035    4.507780   16.388460    ( 0.0000,  0.0000,  2.7532)
  36 O      1.298344    2.248248   18.352839    ( 0.0000,  0.0000,  0.0000)
  37 H      1.298073    2.248451   19.303653    ( 0.0000,  0.0000,  0.0000)

Unit cell:
           periodic     x           y           z      points  spacing
  1. axis:    yes    7.788703    0.000000    0.000000    36     0.1874
  2. axis:    yes   -3.894352    6.745215    0.000000    36     0.1874
  3. axis:    no     0.000000    0.000000   26.359450   148     0.1781

  Lengths:   7.788703   7.788703  26.359450
  Angles:   90.000000  90.000000 120.000000

Effective grid spacing dv^(1/3) = 0.1933

     iter     time        total  log10-change:  magmom
                         energy  eigst   dens
iter:   1 13:31:38 -2538.796745  -3.51           +97.9298
iter:   2 13:32:17 -2538.865398  -3.68  -3.03    +97.9208
iter:   3 13:32:56 -2538.795381c -4.17  -2.41    +97.9238
iter:   4 13:33:35 -2538.793088c -4.80  -3.26    +97.9238
iter:   5 13:34:13 -2538.793291c -5.48  -3.65    +97.9259
iter:   6 13:34:52 -2538.793341c -5.25  -3.67    +97.9266
iter:   7 13:35:31 -2538.793271c -5.43  -3.94    +97.9264
iter:   8 13:36:09 -2538.793210c -5.91  -3.96    +97.9266
iter:   9 13:36:48 -2538.793199c -5.98  -4.25c   +97.9267
iter:  10 13:37:27 -2538.793092c -6.16  -4.31c   +97.9267
iter:  11 13:38:05 -2538.793273c -6.34  -4.25c   +97.9271
iter:  12 13:38:44 -2538.793185c -6.52  -4.39c   +97.9272
iter:  13 13:39:23 -2538.793194c -6.84  -4.55c   +97.9273
iter:  14 13:40:01 -2538.793181c -7.01  -4.44c   +97.9274
iter:  15 13:40:40 -2538.793175c -7.15  -4.39c   +97.9275
iter:  16 13:41:19 -2538.793162c -7.62c -4.73c   +97.9274

Converged after 16 iterations.

Dipole moment: (-3.595279, -5.973176, 0.224200) |e|*Ang

Total magnetic moment: (0.000000, 0.000000, 97.927448)
Local magnetic moments:
   0 Fe ( 0.000000,  0.000000,  2.825496)
   1 Fe ( 0.000000,  0.000000,  2.757294)
   2 Fe ( 0.000000,  0.000000,  2.742716)
   3 Fe ( 0.000000,  0.000000,  2.858402)
   4 Fe ( 0.000000,  0.000000,  2.825898)
   5 Fe ( 0.000000,  0.000000,  2.756718)
   6 Fe ( 0.000000,  0.000000,  2.741646)
   7 Fe ( 0.000000,  0.000000,  2.859430)
   8 Fe ( 0.000000,  0.000000,  2.828981)
   9 Fe ( 0.000000,  0.000000,  2.745183)
  10 Fe ( 0.000000,  0.000000,  2.741026)
  11 Fe ( 0.000000,  0.000000,  2.837454)
  12 Fe ( 0.000000,  0.000000,  2.826789)
  13 Fe ( 0.000000,  0.000000,  2.742953)
  14 Fe ( 0.000000,  0.000000,  2.744664)
  15 Fe ( 0.000000,  0.000000,  2.860052)
  16 Fe ( 0.000000,  0.000000,  2.826905)
  17 Fe ( 0.000000,  0.000000,  2.757305)
  18 Fe ( 0.000000,  0.000000,  2.742561)
  19 Fe ( 0.000000,  0.000000,  2.756221)
  20 Fe ( 0.000000,  0.000000,  2.825903)
  21 Fe ( 0.000000,  0.000000,  2.741739)
  22 Fe ( 0.000000,  0.000000,  2.751214)
  23 Fe ( 0.000000,  0.000000,  2.859678)
  24 Fe ( 0.000000,  0.000000,  2.830226)
  25 Fe ( 0.000000,  0.000000,  2.741753)
  26 Fe ( 0.000000,  0.000000,  2.751232)
  27 Fe ( 0.000000,  0.000000,  2.851390)
  28 Fe ( 0.000000,  0.000000,  2.826786)
  29 Fe ( 0.000000,  0.000000,  2.745189)
  30 Fe ( 0.000000,  0.000000,  2.741155)
  31 Fe ( 0.000000,  0.000000,  2.859728)
  32 Fe ( 0.000000,  0.000000,  2.825498)
  33 Fe ( 0.000000,  0.000000,  2.744311)
  34 Fe ( 0.000000,  0.000000,  2.749331)
  35 Fe ( 0.000000,  0.000000,  2.858320)
  36 O  ( 0.000000,  0.000000,  0.172228)
  37 H  ( 0.000000,  0.000000,  0.003648)

Energy contributions relative to reference atoms: (reference = -1248353.708061)

Kinetic:       +834.912271
Potential:     -730.740761
External:        +0.000000
XC:            -2644.474852
Entropy (-ST):   -1.619680
Local:           +2.320019
--------------------------
Free energy:   -2539.603002
Extrapolated:  -2538.793162

Spin contamination: 2.638566 electrons
Showing only first 2 kpts
                      Up                     Down
 Kpt  Band  Eigenvalues  Occupancy  Eigenvalues  Occupancy
  0   145     -6.21445    1.00000     -3.35566    0.00000
  0   146     -6.20208    1.00000     -3.34068    0.00000
  0   147     -6.19702    1.00000     -3.33461    0.00000
  0   148     -6.18019    1.00000     -3.31469    0.00000

  1   145     -6.14772    1.00000     -3.25445    0.00000
  1   146     -6.12086    1.00000     -3.25086    0.00000
  1   147     -6.11278    1.00000     -3.23915    0.00000
  1   148     -6.08539    1.00000     -3.23574    0.00000


Fermi level: -4.64768

No gap

Forces in eV/Ang:
  0 Fe   -0.00209    0.00538   -0.15901
  1 Fe   -0.00201    0.01242    0.06347
  2 Fe    0.01880    0.01014    0.11780
  3 Fe    0.01191    0.02821   -0.06362
  4 Fe    0.00230   -0.00057   -0.15796
  5 Fe    0.00845   -0.00476    0.06530
  6 Fe   -0.00809    0.00471   -0.02275
  7 Fe    0.03048   -0.00434   -0.06301
  8 Fe   -0.00342    0.00207   -0.16062
  9 Fe   -0.02035   -0.01015    0.03044
 10 Fe    0.00035   -0.00995   -0.02328
 11 Fe   -0.00005    0.00014    0.02967
 12 Fe   -0.00238    0.00604   -0.15868
 13 Fe   -0.01187    0.00659    0.05238
 14 Fe   -0.01828    0.01047    0.11825
 15 Fe   -0.01139    0.02801   -0.06344
 16 Fe   -0.00248    0.00158   -0.15817
 17 Fe   -0.01151   -0.00420    0.06404
 18 Fe    0.00054   -0.02128    0.11784
 19 Fe   -0.00003    0.00010    0.16787
 20 Fe    0.00176   -0.00151   -0.15794
 21 Fe   -0.00010   -0.01085    0.05562
 22 Fe    0.00277    0.00104   -0.04126
 23 Fe    0.01870   -0.02406   -0.06283
 24 Fe   -0.00217    0.00138   -0.17144
 25 Fe    0.00943    0.00530    0.05514
 26 Fe    0.00040   -0.00285   -0.04174
 27 Fe    0.00002    0.00002    0.00809
 28 Fe   -0.00627   -0.00070   -0.15863
 29 Fe   -0.00152    0.02301    0.03030
 30 Fe    0.00874    0.00468   -0.02289
 31 Fe   -0.03021   -0.00422   -0.06356
 32 Fe   -0.00553   -0.00067   -0.15895
 33 Fe    0.01649   -0.00969    0.03045
 34 Fe   -0.00195    0.00103   -0.04115
 35 Fe   -0.01836   -0.02442   -0.06355
 36 O     0.00338   -0.00272   -0.12065
 37 H    -0.00077    0.00071    0.39629

BFGS:    5 13:41:44    -2538.793162        0.3963
System changes: positions 

Initializing position-dependent things.

Density initialized from wave functions
                                          
                                          
                                          
                                          
                                          
                                          
                  H                       
                  O                       
          Fe    Fe     Fe                 
            Fe    Fe    Fe                
           Fe    Fe    Fe                 
             Fe    FFe   FFe              
              Fe     Fe    Fe             
             Fe     Fe    Fe              
               Fe     Fe    Fe            
                 Fe    Fe     Fe          
          Fe    Fe    Fe                  
            Fe    Fe    Fe                
             Fe     Fe    Fe              
                                          
                                          
                                          
                                          

Positions:
   0 Fe     0.000000    0.000000   10.000000    ( 0.0000,  0.0000,  2.7500)
   1 Fe     1.298117    0.749468   12.119817    ( 0.0000,  0.0000,  2.6728)
   2 Fe     0.011975    1.505566   14.285621    ( 0.0000,  0.0000,  2.6756)
   3 Fe    -0.003389   -0.008899   16.379635    ( 0.0000,  0.0000,  2.7532)
   4 Fe    -1.298117    2.248405   10.000000    ( 0.0000,  0.0000,  2.7500)
   5 Fe     0.000000    2.997873   12.119817    ( 0.0000,  0.0000,  2.6728)
   6 Fe    -1.297316    3.746890   14.255900    ( 0.0000,  0.0000,  2.6756)
   7 Fe    -1.307311    2.249609   16.379566    ( 0.0000,  0.0000,  2.7532)
   8 Fe    -2.596234    4.496810   10.000000    ( 0.0000,  0.0000,  2.7500)
   9 Fe    -1.298117    5.246278   12.119817    ( 0.0000,  0.0000,  2.6728)
  10 Fe    -2.596024    5.996289   14.255737    ( 0.0000,  0.0000,  2.6756)
  11 Fe    -2.596164    4.496747   16.398287    ( 0.0000,  0.0000,  2.7532)
  12 Fe     2.596234    0.000000   10.000000    ( 0.0000,  0.0000,  2.7500)
  13 Fe     3.894352    0.749468   12.119817    ( 0.0000,  0.0000,  2.6728)
  14 Fe     2.584745    1.505565   14.285598    ( 0.0000,  0.0000,  2.6756)
  15 Fe     2.600046   -0.008909   16.379547    ( 0.0000,  0.0000,  2.7532)
  16 Fe     1.298117    2.248405   10.000000    ( 0.0000,  0.0000,  2.7500)
  17 Fe     2.596234    2.997873   12.119817    ( 0.0000,  0.0000,  2.6728)
  18 Fe     1.298360    3.733665   14.285681    ( 0.0000,  0.0000,  2.6756)
  19 Fe     1.297899    2.248600   16.558483    ( 0.0000,  0.0000,  2.7532)
  20 Fe     0.000000    4.496810   10.000000    ( 0.0000,  0.0000,  2.7500)
  21 Fe     1.298117    5.246278   12.119817    ( 0.0000,  0.0000,  2.6728)
  22 Fe     0.001340    5.996192   14.250259    ( 0.0000,  0.0000,  2.6756)
  23 Fe    -0.005430    4.504081   16.379754    ( 0.0000,  0.0000,  2.7532)
  24 Fe     5.192469    0.000000   10.000000    ( 0.0000,  0.0000,  2.7500)
  25 Fe     6.490586    0.749468   12.119817    ( 0.0000,  0.0000,  2.6728)
  26 Fe     5.192745    1.497472   14.250073    ( 0.0000,  0.0000,  2.6756)
  27 Fe     5.192675   -0.000033   16.392521    ( 0.0000,  0.0000,  2.7532)
  28 Fe     3.894352    2.248405   10.000000    ( 0.0000,  0.0000,  2.7500)
  29 Fe     5.192469    2.997873   12.119817    ( 0.0000,  0.0000,  2.6728)
  30 Fe     3.893989    3.746899   14.255924    ( 0.0000,  0.0000,  2.6756)
  31 Fe     3.903954    2.249536   16.379446    ( 0.0000,  0.0000,  2.7532)
  32 Fe     2.596234    4.496810   10.000000    ( 0.0000,  0.0000,  2.7500)
  33 Fe     3.894352    5.246278   12.119817    ( 0.0000,  0.0000,  2.6728)
  34 Fe     2.595407    5.996215   14.250393    ( 0.0000,  0.0000,  2.6756)
  35 Fe     2.602010    4.504101   16.379721    ( 0.0000,  0.0000,  2.7532)
  36 O      1.298731    2.247941   18.366204    ( 0.0000,  0.0000,  0.0000)
  37 H      1.297990    2.248529   19.320553    ( 0.0000,  0.0000,  0.0000)

Unit cell:
           periodic     x           y           z      points  spacing
  1. axis:    yes    7.788703    0.000000    0.000000    36     0.1874
  2. axis:    yes   -3.894352    6.745215    0.000000    36     0.1874
  3. axis:    no     0.000000    0.000000   26.359450   148     0.1781

  Lengths:   7.788703   7.788703  26.359450
  Angles:   90.000000  90.000000 120.000000

Effective grid spacing dv^(1/3) = 0.1933

     iter     time        total  log10-change:  magmom
                         energy  eigst   dens
iter:   1 13:43:23 -2539.040810  -2.11           +97.9245
iter:   2 13:44:02 -2543.671072  -1.93  -2.15    +97.8432
iter:   3 13:44:40 -2538.809484  -2.48  -1.49    +97.8125
iter:   4 13:45:19 -2538.811977  -3.14  -2.82    +97.8821
iter:   5 13:45:58 -2538.808756c -3.88  -2.80    +97.8953
iter:   6 13:46:37 -2538.804804c -3.82  -2.92    +97.9075
iter:   7 13:47:15 -2538.805597c -3.85  -3.13    +97.9068
iter:   8 13:47:56 -2538.803203c -4.20  -3.14    +97.9085
iter:   9 13:48:37 -2538.802627c -4.52  -3.26    +97.9033
iter:  10 13:49:16 -2538.802234c -4.95  -3.41    +97.9029
iter:  11 13:49:54 -2538.802692c -4.63  -3.57    +97.9041
iter:  12 13:50:33 -2538.804491c -4.71  -3.34    +97.9037
iter:  13 13:51:12 -2538.802766c -4.78  -3.26    +97.9125
iter:  14 13:51:51 -2538.803046c -5.11  -3.40    +97.9153
iter:  15 13:52:30 -2538.802843c -5.55  -3.57    +97.9158
iter:  16 13:53:08 -2538.803467c -5.55  -3.69    +97.9176
iter:  17 13:53:47 -2538.803678c -5.76  -3.68    +97.9192
iter:  18 13:54:26 -2538.803407c -5.80  -3.80    +97.9189
iter:  19 13:55:05 -2538.803571c -5.91  -3.79    +97.9192
iter:  20 13:55:43 -2538.803368c -6.38  -3.94    +97.9182
iter:  21 13:56:22 -2538.803496c -6.28  -4.03c   +97.9174
iter:  22 13:57:01 -2538.803374c -6.56  -4.04c   +97.9172
iter:  23 13:57:40 -2538.803418c -6.96  -4.34c   +97.9166
iter:  24 13:58:19 -2538.803463c -6.68  -4.37c   +97.9157
iter:  25 13:58:57 -2538.803452c -7.07  -4.48c   +97.9157
iter:  26 13:59:36 -2538.803499c -7.26  -4.47c   +97.9157
iter:  27 14:00:15 -2538.803536c -7.42c -4.44c   +97.9159

Converged after 27 iterations.

Dipole moment: (-3.661837, -6.282567, 0.224391) |e|*Ang

Total magnetic moment: (0.000000, 0.000000, 97.915899)
Local magnetic moments:
   0 Fe ( 0.000000,  0.000000,  2.825823)
   1 Fe ( 0.000000,  0.000000,  2.759855)
   2 Fe ( 0.000000,  0.000000,  2.740657)
   3 Fe ( 0.000000,  0.000000,  2.855362)
   4 Fe ( 0.000000,  0.000000,  2.826176)
   5 Fe ( 0.000000,  0.000000,  2.759182)
   6 Fe ( 0.000000,  0.000000,  2.740579)
   7 Fe ( 0.000000,  0.000000,  2.856547)
   8 Fe ( 0.000000,  0.000000,  2.829360)
   9 Fe ( 0.000000,  0.000000,  2.743649)
  10 Fe ( 0.000000,  0.000000,  2.739931)
  11 Fe ( 0.000000,  0.000000,  2.843048)
  12 Fe ( 0.000000,  0.000000,  2.827108)
  13 Fe ( 0.000000,  0.000000,  2.743780)
  14 Fe ( 0.000000,  0.000000,  2.742755)
  15 Fe ( 0.000000,  0.000000,  2.857202)
  16 Fe ( 0.000000,  0.000000,  2.826752)
  17 Fe ( 0.000000,  0.000000,  2.759880)
  18 Fe ( 0.000000,  0.000000,  2.740505)
  19 Fe ( 0.000000,  0.000000,  2.749173)
  20 Fe ( 0.000000,  0.000000,  2.826182)
  21 Fe ( 0.000000,  0.000000,  2.742396)
  22 Fe ( 0.000000,  0.000000,  2.751539)
  23 Fe ( 0.000000,  0.000000,  2.856712)
  24 Fe ( 0.000000,  0.000000,  2.830274)
  25 Fe ( 0.000000,  0.000000,  2.742401)
  26 Fe ( 0.000000,  0.000000,  2.751563)
  27 Fe ( 0.000000,  0.000000,  2.856059)
  28 Fe ( 0.000000,  0.000000,  2.827106)
  29 Fe ( 0.000000,  0.000000,  2.743654)
  30 Fe ( 0.000000,  0.000000,  2.740060)
  31 Fe ( 0.000000,  0.000000,  2.856902)
  32 Fe ( 0.000000,  0.000000,  2.825825)
  33 Fe ( 0.000000,  0.000000,  2.742729)
  34 Fe ( 0.000000,  0.000000,  2.749590)
  35 Fe ( 0.000000,  0.000000,  2.855222)
  36 O  ( 0.000000,  0.000000,  0.171754)
  37 H  ( 0.000000,  0.000000,  0.003707)

Energy contributions relative to reference atoms: (reference = -1248353.708061)

Kinetic:       +835.313172
Potential:     -731.103952
External:        +0.000000
XC:            -2644.524083
Entropy (-ST):   -1.619803
Local:           +2.321228
--------------------------
Free energy:   -2539.613437
Extrapolated:  -2538.803536

Spin contamination: 2.631786 electrons
Showing only first 2 kpts
                      Up                     Down
 Kpt  Band  Eigenvalues  Occupancy  Eigenvalues  Occupancy
  0   145     -6.21117    1.00000     -3.35428    0.00000
[...]
  36 O  ( 0.000000,  0.000000,  0.169612)
  37 H  ( 0.000000,  0.000000,  0.003827)

Energy contributions relative to reference atoms: (reference = -1248353.708061)

Kinetic:       +834.745072
Potential:     -730.680813
External:        +0.000000
XC:            -2644.400199
Entropy (-ST):   -1.616417
Local:           +2.325361
--------------------------
Free energy:   -2539.626995
Extrapolated:  -2538.818787

Spin contamination: 2.625107 electrons
Showing only first 2 kpts
                      Up                     Down
 Kpt  Band  Eigenvalues  Occupancy  Eigenvalues  Occupancy
  0   145     -6.23336    1.00000     -3.37651    0.00000
  0   146     -6.22172    1.00000     -3.36355    0.00000
  0   147     -6.21837    1.00000     -3.35552    0.00000
  0   148     -6.19959    1.00000     -3.33454    0.00000

  1   145     -6.16272    1.00000     -3.27958    0.00000
  1   146     -6.14209    1.00000     -3.27218    0.00000
  1   147     -6.13693    1.00000     -3.25909    0.00000
  1   148     -6.09863    1.00000     -3.25856    0.00000


Fermi level: -4.67078

No gap

Forces in eV/Ang:
  0 Fe   -0.00413    0.00559   -0.15684
  1 Fe   -0.00221    0.04387    0.10915
  2 Fe    0.01979    0.01133   -0.01380
  3 Fe    0.00884    0.04719    0.01597
  4 Fe    0.00140   -0.00243   -0.15578
  5 Fe    0.03572   -0.02049    0.11161
  6 Fe    0.00287   -0.00158    0.03842
  7 Fe    0.04608   -0.01630    0.01616
  8 Fe   -0.00345    0.00209   -0.15894
  9 Fe   -0.02454   -0.01291   -0.02652
 10 Fe   -0.00062    0.00309    0.03927
 11 Fe   -0.00046    0.00051    0.00346
 12 Fe   -0.00026    0.00628   -0.15655
 13 Fe   -0.04595    0.02623    0.03681
 14 Fe   -0.02200    0.01265   -0.01340
 15 Fe   -0.00861    0.04738    0.01604
 16 Fe   -0.00249    0.00158   -0.14987
 17 Fe   -0.03892   -0.01978    0.10973
 18 Fe    0.00003   -0.02245   -0.01386
 19 Fe    0.00058   -0.00041    0.04289
 20 Fe    0.00291    0.00022   -0.15575
 21 Fe   -0.00018   -0.05032    0.03977
 22 Fe   -0.00051   -0.00031    0.03339
 23 Fe    0.03710   -0.03187    0.01574
 24 Fe   -0.00227    0.00144   -0.17365
 25 Fe    0.04357    0.02506    0.03914
 26 Fe   -0.00017    0.00050    0.03324
 27 Fe   -0.00001    0.00013    0.00050
 28 Fe   -0.00542   -0.00266   -0.15652
 29 Fe   -0.00120    0.02807   -0.02671
 30 Fe   -0.00297   -0.00092    0.03881
 31 Fe   -0.04563   -0.01633    0.01595
 32 Fe   -0.00672    0.00100   -0.15678
 33 Fe    0.02086   -0.01217   -0.02660
 34 Fe    0.00053   -0.00051    0.03357
 35 Fe   -0.03665   -0.03157    0.01545
 36 O     0.00235   -0.00245   -0.04161
 37 H    -0.00294    0.00270    0.02153

BFGS:   11 15:41:30    -2538.818787        0.0515
System changes: positions 

Initializing position-dependent things.

Density initialized from wave functions
                                          
                                          
                                          
                                          
                                          
                                          
                  H                       
                  O                       
          Fe    Fe     Fe                 
            Fe    Fe    Fe                
           Fe    Fe    Fe                 
             Fe    FFe   FFe              
              Fe     Fe    Fe             
             Fe     Fe    Fe              
               Fe     Fe    Fe            
                 Fe    Fe     Fe          
          Fe    Fe    Fe                  
            Fe    Fe    Fe                
             Fe     Fe    Fe              
                                          
                                          
                                          
                                          

Positions:
   0 Fe     0.000000    0.000000   10.000000    ( 0.0000,  0.0000,  2.7500)
   1 Fe     1.298117    0.749468   12.119817    ( 0.0000,  0.0000,  2.6728)
   2 Fe     0.011141    1.505126   14.282299    ( 0.0000,  0.0000,  2.6756)
   3 Fe    -0.003067   -0.011275   16.371674    ( 0.0000,  0.0000,  2.7532)
   4 Fe    -1.298117    2.248405   10.000000    ( 0.0000,  0.0000,  2.7500)
   5 Fe     0.000000    2.997873   12.119817    ( 0.0000,  0.0000,  2.6728)
   6 Fe    -1.298184    3.747391   14.251668    ( 0.0000,  0.0000,  2.6756)
   7 Fe    -1.309231    2.251148   16.371719    ( 0.0000,  0.0000,  2.7532)
   8 Fe    -2.596234    4.496810   10.000000    ( 0.0000,  0.0000,  2.7500)
   9 Fe    -1.298117    5.246278   12.119817    ( 0.0000,  0.0000,  2.6728)
  10 Fe    -2.596023    5.995330   14.251458    ( 0.0000,  0.0000,  2.6756)
  11 Fe    -2.596182    4.496758   16.408909    ( 0.0000,  0.0000,  2.7532)
  12 Fe     2.596234    0.000000   10.000000    ( 0.0000,  0.0000,  2.7500)
  13 Fe     3.894352    0.749468   12.119817    ( 0.0000,  0.0000,  2.6728)
  14 Fe     2.585653    1.505039   14.282217    ( 0.0000,  0.0000,  2.6756)
  15 Fe     2.599628   -0.011316   16.371624    ( 0.0000,  0.0000,  2.7532)
  16 Fe     1.298117    2.248405   10.000000    ( 0.0000,  0.0000,  2.7500)
  17 Fe     2.596234    2.997873   12.119817    ( 0.0000,  0.0000,  2.6728)
  18 Fe     1.298322    3.734587   14.282369    ( 0.0000,  0.0000,  2.6756)
  19 Fe     1.297889    2.248632   16.600337    ( 0.0000,  0.0000,  2.7532)
  20 Fe     0.000000    4.496810   10.000000    ( 0.0000,  0.0000,  2.7500)
  21 Fe     1.298117    5.246278   12.119817    ( 0.0000,  0.0000,  2.6728)
  22 Fe     0.001821    5.996452   14.246133    ( 0.0000,  0.0000,  2.6756)
  23 Fe    -0.007712    4.504967   16.371936    ( 0.0000,  0.0000,  2.7532)
  24 Fe     5.192469    0.000000   10.000000    ( 0.0000,  0.0000,  2.7500)
  25 Fe     6.490586    0.749468   12.119817    ( 0.0000,  0.0000,  2.6728)
  26 Fe     5.192770    1.496934   14.245986    ( 0.0000,  0.0000,  2.6756)
  27 Fe     5.192643   -0.000037   16.392318    ( 0.0000,  0.0000,  2.7532)
  28 Fe     3.894352    2.248405   10.000000    ( 0.0000,  0.0000,  2.7500)
  29 Fe     5.192469    2.997873   12.119817    ( 0.0000,  0.0000,  2.6728)
  30 Fe     3.894817    3.747376   14.251561    ( 0.0000,  0.0000,  2.6756)
  31 Fe     3.905849    2.251118   16.371461    ( 0.0000,  0.0000,  2.7532)
  32 Fe     2.596234    4.496810   10.000000    ( 0.0000,  0.0000,  2.7500)
  33 Fe     3.894352    5.246278   12.119817    ( 0.0000,  0.0000,  2.6728)
  34 Fe     2.594900    5.996519   14.246152    ( 0.0000,  0.0000,  2.6756)
  35 Fe     2.604241    4.505010   16.371727    ( 0.0000,  0.0000,  2.7532)
  36 O      1.298891    2.247693   18.415053    ( 0.0000,  0.0000,  0.0000)
  37 H      1.297343    2.249119   19.372792    ( 0.0000,  0.0000,  0.0000)

Unit cell:
           periodic     x           y           z      points  spacing
  1. axis:    yes    7.788703    0.000000    0.000000    36     0.1874
  2. axis:    yes   -3.894352    6.745215    0.000000    36     0.1874
  3. axis:    no     0.000000    0.000000   26.359450   148     0.1781

  Lengths:   7.788703   7.788703  26.359450
  Angles:   90.000000  90.000000 120.000000

Effective grid spacing dv^(1/3) = 0.1933

     iter     time        total  log10-change:  magmom
                         energy  eigst   dens
iter:   1 15:43:09 -2538.833123  -3.05           +97.9235
iter:   2 15:43:48 -2539.063034  -3.13  -2.71    +97.9167
iter:   3 15:44:26 -2538.828392  -3.58  -2.14    +97.9207
iter:   4 15:45:05 -2538.818745  -4.30  -2.89    +97.9165
iter:   5 15:45:44 -2538.818717c -5.04  -3.43    +97.9198
iter:   6 15:46:23 -2538.818616c -5.21  -3.43    +97.9228
iter:   7 15:47:02 -2538.818544c -5.17  -3.74    +97.9227
iter:   8 15:47:41 -2538.818891c -5.41  -4.00    +97.9247
iter:   9 15:48:20 -2538.818808c -5.84  -3.98    +97.9251
iter:  10 15:48:58 -2538.818681c -6.00  -3.94    +97.9257
iter:  11 15:49:37 -2538.818787c -6.29  -4.11c   +97.9256
iter:  12 15:50:16 -2538.818783c -6.41  -4.18c   +97.9256
iter:  13 15:50:55 -2538.818797c -6.41  -4.28c   +97.9257
iter:  14 15:51:34 -2538.818816c -6.60  -4.28c   +97.9254
iter:  15 15:52:12 -2538.818765c -7.04  -4.57c   +97.9252
iter:  16 15:52:51 -2538.818788c -7.26  -4.52c   +97.9252
iter:  17 15:53:30 -2538.818795c -7.47c -4.67c   +97.9253

Converged after 17 iterations.

Dipole moment: (-3.689386, -6.102167, 0.206952) |e|*Ang

Total magnetic moment: (0.000000, 0.000000, 97.925273)
Local magnetic moments:
   0 Fe ( 0.000000,  0.000000,  2.826162)
   1 Fe ( 0.000000,  0.000000,  2.759086)
   2 Fe ( 0.000000,  0.000000,  2.743337)
   3 Fe ( 0.000000,  0.000000,  2.854316)
   4 Fe ( 0.000000,  0.000000,  2.826466)
   5 Fe ( 0.000000,  0.000000,  2.758357)
   6 Fe ( 0.000000,  0.000000,  2.739707)
   7 Fe ( 0.000000,  0.000000,  2.855753)
   8 Fe ( 0.000000,  0.000000,  2.829213)
   9 Fe ( 0.000000,  0.000000,  2.742284)
  10 Fe ( 0.000000,  0.000000,  2.739019)
  11 Fe ( 0.000000,  0.000000,  2.846517)
  12 Fe ( 0.000000,  0.000000,  2.827400)
  13 Fe ( 0.000000,  0.000000,  2.742632)
  14 Fe ( 0.000000,  0.000000,  2.745481)
  15 Fe ( 0.000000,  0.000000,  2.856422)
  16 Fe ( 0.000000,  0.000000,  2.826770)
  17 Fe ( 0.000000,  0.000000,  2.759105)
  18 Fe ( 0.000000,  0.000000,  2.743206)
  19 Fe ( 0.000000,  0.000000,  2.770801)
  20 Fe ( 0.000000,  0.000000,  2.826471)
  21 Fe ( 0.000000,  0.000000,  2.741297)
  22 Fe ( 0.000000,  0.000000,  2.749846)
  23 Fe ( 0.000000,  0.000000,  2.855871)
  24 Fe ( 0.000000,  0.000000,  2.829806)
  25 Fe ( 0.000000,  0.000000,  2.741291)
  26 Fe ( 0.000000,  0.000000,  2.749850)
  27 Fe ( 0.000000,  0.000000,  2.855351)
  28 Fe ( 0.000000,  0.000000,  2.827398)
  29 Fe ( 0.000000,  0.000000,  2.742282)
  30 Fe ( 0.000000,  0.000000,  2.739150)
  31 Fe ( 0.000000,  0.000000,  2.856116)
  32 Fe ( 0.000000,  0.000000,  2.826164)
  33 Fe ( 0.000000,  0.000000,  2.741359)
  34 Fe ( 0.000000,  0.000000,  2.747851)
  35 Fe ( 0.000000,  0.000000,  2.854122)
  36 O  ( 0.000000,  0.000000,  0.170016)
  37 H  ( 0.000000,  0.000000,  0.003825)

Energy contributions relative to reference atoms: (reference = -1248353.708061)

Kinetic:       +834.699622
Potential:     -730.643811
External:        +0.000000
XC:            -2644.390329
Entropy (-ST):   -1.617218
Local:           +2.324331
--------------------------
Free energy:   -2539.627404
Extrapolated:  -2538.818795

Spin contamination: 2.627025 electrons
Showing only first 2 kpts
                      Up                     Down
 Kpt  Band  Eigenvalues  Occupancy  Eigenvalues  Occupancy
  0   145     -6.22855    1.00000     -3.37154    0.00000
  0   146     -6.21758    1.00000     -3.35818    0.00000
  0   147     -6.21364    1.00000     -3.35066    0.00000
  0   148     -6.19502    1.00000     -3.32996    0.00000

  1   145     -6.15870    1.00000     -3.27451    0.00000
  1   146     -6.13706    1.00000     -3.26730    0.00000
  1   147     -6.13175    1.00000     -3.25400    0.00000
  1   148     -6.09503    1.00000     -3.25347    0.00000


Fermi level: -4.66576

No gap

Forces in eV/Ang:
  0 Fe   -0.00390    0.00544   -0.15707
  1 Fe   -0.00220    0.03864    0.10478
  2 Fe    0.00201    0.00107    0.00421
  3 Fe    0.00167    0.01125    0.00472
  4 Fe    0.00136   -0.00218   -0.15599
  5 Fe    0.03128   -0.01793    0.10718
  6 Fe   -0.00098    0.00051    0.01487
  7 Fe    0.01070   -0.00422    0.00474
  8 Fe   -0.00345    0.00209   -0.15946
  9 Fe   -0.02450   -0.01278   -0.01234
 10 Fe    0.00009   -0.00106    0.01490
 11 Fe    0.00004   -0.00003    0.00946
 12 Fe   -0.00045    0.00611   -0.15677
 13 Fe   -0.04161    0.02371    0.04399
 14 Fe   -0.00285    0.00165    0.00453
 15 Fe   -0.00176    0.01130    0.00469
 16 Fe   -0.00246    0.00157   -0.15050
 17 Fe   -0.03440   -0.01719    0.10534
 18 Fe    0.00008   -0.00224    0.00408
 19 Fe    0.00002   -0.00004    0.04694
 20 Fe    0.00267    0.00012   -0.15596
 21 Fe   -0.00016   -0.04519    0.04688
 22 Fe   -0.00243   -0.00106    0.01497
 23 Fe    0.00883   -0.00709    0.00454
 24 Fe   -0.00226    0.00143   -0.17322
 25 Fe    0.03916    0.02249    0.04630
 26 Fe   -0.00026    0.00264    0.01508
 27 Fe    0.00000    0.00002    0.00463
 28 Fe   -0.00537   -0.00242   -0.15673
 29 Fe   -0.00127    0.02795   -0.01257
 30 Fe    0.00101    0.00042    0.01479
 31 Fe   -0.01074   -0.00414    0.00450
 32 Fe   -0.00648    0.00087   -0.15701
 33 Fe    0.02079   -0.01211   -0.01250
 34 Fe    0.00207   -0.00114    0.01505
 35 Fe   -0.00878   -0.00706    0.00433
 36 O    -0.00065    0.00033    0.04248
 37 H    -0.00316    0.00291    0.02351

BFGS:   12 15:53:55    -2538.818795        0.0469
Timing:                                      incl.     excl.
-------------------------------------------------------------------
Density initialized from wave functions:     7.909     7.909   0.1% |
 Symmetrize density:                         0.001     0.001   0.0% |
Forces:                                    279.212   279.212   1.8% ||
Hamiltonian:                                45.726     0.011   0.0% |
 Atomic:                                     0.003     0.003   0.0% |
  XC Correction:                             0.000     0.000   0.0% |
 Calculate atomic Hamiltonians:              0.004     0.004   0.0% |
 Communicate:                                3.550     3.550   0.0% |
 Hartree integrate/restrict:                 0.186     0.186   0.0% |
 Initialize Hamiltonian:                     0.001     0.001   0.0% |
 Poisson:                                    1.889     0.073   0.0% |
  Communicate from 1D:                       0.143     0.143   0.0% |
  Communicate from 2D:                       0.292     0.292   0.0% |
  Communicate to 1D:                         0.090     0.090   0.0% |
  Communicate to 2D:                         0.372     0.372   0.0% |
  FFT 1D:                                    0.497     0.497   0.0% |
  FFT 2D:                                    0.423     0.423   0.0% |
 XC 3D grid:                                39.878    13.750   0.1% |
  VdW-DF integral:                          26.128     1.348   0.0% |
   Convolution:                              2.163     2.163   0.0% |
   FFT:                                      1.481     1.481   0.0% |
   gather:                                   7.201     7.201   0.0% |
   hmm1:                                     0.462     0.462   0.0% |
   hmm2:                                     0.930     0.930   0.0% |
   iFFT:                                     1.396     1.396   0.0% |
   potential:                                7.080     0.176   0.0% |
    collect:                                 0.494     0.494   0.0% |
    p1:                                      4.287     4.287   0.0% |
    p2:                                      1.460     1.460   0.0% |
    sum:                                     0.662     0.662   0.0% |
   splines:                                  4.068     4.068   0.0% |
 vbar:                                       0.204     0.204   0.0% |
LCAO initialization:                        15.252     0.908   0.0% |
 LCAO eigensolver:                           6.565     0.004   0.0% |
  Calculate projections:                     0.000     0.000   0.0% |
  DenseAtomicCorrection:                     0.000     0.000   0.0% |
  Distribute overlap matrix:                 6.245     6.245   0.0% |
  Orbital Layouts:                           0.306     0.306   0.0% |
  Potential matrix:                          0.001     0.001   0.0% |
  Sum over cells:                            0.008     0.008   0.0% |
 LCAO to grid:                               6.936     6.936   0.0% |
 Set positions (LCAO WFS):                   0.843     0.652   0.0% |
  Basic WFS set positions:                   0.001     0.001   0.0% |
  Basis functions set positions:             0.000     0.000   0.0% |
  P tci:                                     0.000     0.000   0.0% |
  ST tci:                                    0.129     0.129   0.0% |
  mktci:                                     0.061     0.061   0.0% |
Redistribute:                                0.009     0.009   0.0% |
SCF-cycle:                               14669.778   136.950   0.9% |
 Davidson:                               13265.454  4636.224  29.5% |-----------|
  Apply hamiltonian:                       322.620   322.620   2.1% ||
  Subspace diag:                          1156.345     0.102   0.0% |
   calc_h_matrix:                          608.252   298.345   1.9% ||
    Apply hamiltonian:                     309.907   309.907   2.0% ||
   diagonalize:                             28.520    28.520   0.2% |
   rotate_psi:                             519.471   519.471   3.3% ||
  calc. matrices:                         5997.992  1982.907  12.6% |----|
   Apply hamiltonian:                     4015.085  4015.085  25.5% |---------|
  diagonalize:                             145.988   145.988   0.9% |
  rotate_psi:                             1006.285  1006.285   6.4% |--|
 Density:                                   33.343     0.009   0.0% |
  Atomic density matrices:                   3.247     3.247   0.0% |
  Mix:                                       8.647     8.647   0.1% |
  Multipole moments:                         0.160     0.160   0.0% |
  Pseudo density:                           21.280    21.267   0.1% |
   Symmetrize density:                       0.013     0.013   0.0% |
 Hamiltonian:                             1161.633     0.310   0.0% |
  Atomic:                                    0.100     0.098   0.0% |
   XC Correction:                            0.001     0.001   0.0% |
  Calculate atomic Hamiltonians:             0.135     0.135   0.0% |
  Communicate:                              99.430    99.430   0.6% |
  Hartree integrate/restrict:                5.097     5.097   0.0% |
  Poisson:                                  52.926     1.956   0.0% |
   Communicate from 1D:                      3.945     3.945   0.0% |
   Communicate from 2D:                      8.093     8.093   0.1% |
   Communicate to 1D:                        2.568     2.568   0.0% |
   Communicate to 2D:                       10.451    10.451   0.1% |
   FFT 1D:                                  13.973    13.973   0.1% |
   FFT 2D:                                  11.940    11.940   0.1% |
  XC 3D grid:                             1002.891   383.993   2.4% ||
   VdW-DF integral:                        618.898    37.683   0.2% |
    Convolution:                            61.100    61.100   0.4% |
    FFT:                                    41.640    41.640   0.3% |
    gather:                                201.455   201.455   1.3% ||
    hmm1:                                   12.635    12.635   0.1% |
    hmm2:                                   25.890    25.890   0.2% |
    iFFT:                                   39.295    39.295   0.3% |
    potential:                             199.197     4.901   0.0% |
     collect:                               14.192    14.192   0.1% |
     p1:                                   119.913   119.913   0.8% |
     p2:                                    40.543    40.543   0.3% |
     sum:                                   19.648    19.648   0.1% |
    splines:                                 0.002     0.002   0.0% |
  vbar:                                      0.746     0.746   0.0% |
 Orthonormalize:                            72.397     0.005   0.0% |
  calc_s_matrix:                             4.629     4.629   0.0% |
  inverse-cholesky:                         58.708    58.708   0.4% |
  projections:                               0.002     0.002   0.0% |
  rotate_psi_s:                              9.054     9.054   0.1% |
Set symmetry:                                0.001     0.001   0.0% |
Other:                                     697.765   697.765   4.4% |-|
-------------------------------------------------------------------
Total:                                             15715.653 100.0%

Memory usage: 1.36 GiB
Date: Tue Sep 26 15:53:55 2023
