
  ___ ___ ___ _ _ _  
 |   |   |_  | | | | 
 | | | | | . | | | | 
 |__ |  _|___|_____|  22.8.0
 |___|_|             

User:   s204775@c099.nifl.fysik.dtu.dk
Date:   Tue Oct  3 16:40:44 2023
Arch:   x86_64
Pid:    68206
CWD:    /home/cat/s204775/projects/Bachelor_project/OH_missing_features
Python: 3.10.4
gpaw:   /home/modules/software/GPAW/22.8.0-intel-2022a/lib/python3.10/site-packages/gpaw
_gpaw:  /home/modules/software/GPAW/22.8.0-intel-2022a/lib/python3.10/site-packages/
        _gpaw.cpython-310-x86_64-linux-gnu.so
ase:    /home/modules/software/ASE/3.22.1-intel-2022a/lib/python3.10/site-packages/ase (version 3.22.1)
numpy:  /home/modules/software/SciPy-bundle/2022.05-intel-2022a/lib/python3.10/site-packages/numpy (version 1.22.3)
scipy:  /home/modules/software/SciPy-bundle/2022.05-intel-2022a/lib/python3.10/site-packages/scipy (version 1.8.1)
libxc:  5.2.3
units:  Angstrom and eV
cores: 40
OpenMP: False
OMP_NUM_THREADS: 1

Input parameters:
  basis: dzp
  h: 0.18
  kpts: {size: (4, 4, 1)}
  xc: BEEF-vdW

System changes: positions, numbers, cell, pbc, initial_charges, initial_magmoms 

Initialize ...

species:
  Hg:
    name: Mercury
    id: 0b51cb891d82143d22b15bac899cb056
    Z: 80.0
    valence: 18
    core: 62
    charge: 0.0
    file: /home/modules/software/GPAW-setups/0.9.20000/Hg.PBE.gz
    compensation charges: {type: gauss,
                           rc: 0.41,
                           lmax: 2}
    cutoffs: {filter: 2.17,
              core: 2.06}
    valence states:
      #              energy  rcut
      - 6s(2.00)    -6.783   1.307
      - 5p(6.00)   -66.572   1.291
      - 6p(0.00)    -1.056   1.291
      - 5d(10.00)    -9.891   1.302
      -  s          20.429   1.307
      -  d          17.320   1.302
  
    # LCAO basis set for Hg:
    #   Name: dzp
    #   File: /home/modules/software/GPAW-setups/0.9.20000/Hg.dzp.basis.gz
    #   Number of radial functions: 9
    #   Number of spherical harmonics: 27
    #     l=0, rc=7.9688 Bohr: 6s-sz confined orbital
    #     l=1, rc=3.3594 Bohr: 5p-sz confined orbital
    #     l=1, rc=12.7031 Bohr: 6p-sz confined orbital
    #     l=2, rc=5.3594 Bohr: 5d-sz confined orbital
    #     l=0, rc=4.6406 Bohr: 6s-dz split-valence wave
    #     l=1, rc=2.2656 Bohr: 5p-dz split-valence wave
    #     l=1, rc=7.7500 Bohr: 6p-dz split-valence wave
    #     l=2, rc=3.2656 Bohr: 5d-dz split-valence wave
    #     l=1, rc=7.9688 Bohr: p-type Gaussian polarization
    #   Number of RI-basis functions 0

  O:
    name: Oxygen
    id: 32ecd46bf208036f09c70b0ec9a88b78
    Z: 8.0
    valence: 6
    core: 2
    charge: 0.0
    file: /home/modules/software/GPAW-setups/0.9.20000/O.PBE.gz
    compensation charges: {type: gauss,
                           rc: 0.21,
                           lmax: 2}
    cutoffs: {filter: 1.17,
              core: 0.83}
    valence states:
      #              energy  rcut
      - 2s(2.00)   -23.961   0.688
      - 2p(4.00)    -9.029   0.598
      -  s           3.251   0.688
      -  p          18.182   0.598
      -  d           0.000   0.619
  
    # LCAO basis set for O:
    #   Name: dzp
    #   File: /home/modules/software/GPAW-setups/0.9.20000/O.dzp.basis.gz
    #   Number of radial functions: 5
    #   Number of spherical harmonics: 13
    #     l=0, rc=4.3438 Bohr: 2s-sz confined orbital
    #     l=1, rc=5.3906 Bohr: 2p-sz confined orbital
    #     l=0, rc=2.2969 Bohr: 2s-dz split-valence wave
    #     l=1, rc=2.8906 Bohr: 2p-dz split-valence wave
    #     l=2, rc=5.3906 Bohr: d-type Gaussian polarization
    #   Number of RI-basis functions 0

  H:
    name: Hydrogen
    id: d65de229564ff8ea4db303e23b6d1ecf
    Z: 1.0
    valence: 1
    core: 0
    charge: 0.0
    file: /home/modules/software/GPAW-setups/0.9.20000/H.PBE.gz
    compensation charges: {type: gauss,
                           rc: 0.15,
                           lmax: 2}
    cutoffs: {filter: 0.85,
              core: 0.53}
    valence states:
      #              energy  rcut
      - 1s(1.00)    -6.494   0.476
      -  s          20.717   0.476
      -  p           0.000   0.476
  
    # LCAO basis set for H:
    #   Name: dzp
    #   File: /home/modules/software/GPAW-setups/0.9.20000/H.dzp.basis.gz
    #   Number of radial functions: 3
    #   Number of spherical harmonics: 5
    #     l=0, rc=6.4219 Bohr: 1s-sz confined orbital
    #     l=0, rc=3.6094 Bohr: 1s-dz split-valence wave
    #     l=1, rc=6.4219 Bohr: p-type Gaussian polarization
    #   Number of RI-basis functions 0

Reference energy: -19195661.376652  # eV

Spin-paired calculation

Convergence criteria:
 Maximum [total energy] change in last 3 cyles: 0.0005 eV / electron
 Maximum integral of absolute [dens]ity change: 0.0001 electrons / valence electron
 Maximum integral of absolute [eigenst]ate change: 4e-08 eV^2 / valence electron
 Maximum number of scf [iter]ations: 333
 (Square brackets indicate name in SCF output, whereas a 'c' in
 the SCF output indicates the quantity has converged.)

Symmetries present (total): 6

  ( 1  0  0)  ( 1 -1  0)  ( 0  1  0)  ( 0 -1  0)  (-1  1  0)  (-1  0  0)
  ( 0  1  0)  ( 0 -1  0)  ( 1  0  0)  ( 1 -1  0)  (-1  0  0)  (-1  1  0)
  ( 0  0  1)  ( 0  0  1)  ( 0  0  1)  ( 0  0  1)  ( 0  0  1)  ( 0  0  1)
Note: your k-points are not as symmetric as your crystal!

16 k-points: 4 x 4 x 1 Monkhorst-Pack grid
6 k-points in the irreducible part of the Brillouin zone
       k-points in crystal coordinates                weights
   0:     0.12500000   -0.12500000    0.00000000          2/16
   1:     0.12500000    0.12500000    0.00000000          2/16
   2:     0.37500000   -0.37500000    0.00000000          2/16
   3:     0.37500000   -0.12500000    0.00000000          4/16
   4:     0.37500000    0.12500000    0.00000000          4/16
   5:     0.37500000    0.37500000    0.00000000          2/16

Wave functions: Uniform real-space grid
  Kinetic energy operator: 8*3+1=25 point O(h^6) finite-difference Laplacian
  ScaLapack parameters: grid=1x1, blocksize=None
  Wavefunction extrapolation:
    Improved wavefunction reuse through dual PAW basis 

Occupation numbers: Fermi-Dirac:
  width: 0.1000  # eV
 

Eigensolver
   Davidson(niter=2) 

Densities:
  Coarse grid: 52*52*160 grid
  Fine grid: 104*104*320 grid
  Total Charge: 0.000000 

Density mixing:
  Method: separate
  Backend: pulay
  Linear mixing parameter: 0.05
  old densities: 5
  Damping of long wavelength oscillations: 50 

Hamiltonian:
  XC and Coulomb potentials evaluated on a 104*104*320 grid
  Using the BEEF-vdW Exchange-Correlation functional
  Interpolation: tri-quintic (5. degree polynomial)
  Poisson solver: FastPoissonSolver using
    Stencil: 8*3+1=25 point O(h^6) finite-difference Laplacian
    FFT axes: [0, 1]
    FST axes: [2]
 

XC parameters: BEEF-vdW with 2 nearest neighbor stencil

Memory estimate:
  Process memory now: 193.54 MiB
  Calculator: 556.01 MiB
    Density: 16.92 MiB
      Arrays: 4.22 MiB
      Localized functions: 11.11 MiB
      Mixer: 1.60 MiB
    Hamiltonian: 3.46 MiB
      Arrays: 2.76 MiB
      XC: 0.00 MiB
      Poisson: 0.00 MiB
      vbar: 0.70 MiB
    Wavefunctions: 535.62 MiB
      Arrays psit_nG: 380.84 MiB
      Eigensolver: 152.61 MiB
      Projections: 0.61 MiB
      Projectors: 1.57 MiB

Total number of cores used: 40
Parallelization over k-points: 2
Domain decomposition: 2 x 2 x 5

Number of atoms: 38
Number of atomic orbitals: 990
Number of bands in calculation: 397
Number of valence electrons: 655
Bands to converge: occupied

... initialized

Initializing position-dependent things.

Density initialized from atomic densities
Creating initial wave functions:
  397 bands from LCAO basis set

                                                              
                                                              
                                                              
                                                              
                                                              
                                                              
                                      H                       
                                   Hg O     Hg       Hg       
                                                              
                             Hg       Hg       Hg             
                                                              
                      Hg       Hg       Hg                    
                                                              
                         Hg       Hg       Hg                 
                   Hg      Hg       Hg                        
                                                              
            Hg       Hg       Hg       Hg       Hg            
                        Hg       Hg      Hg                   
                                                              
                 Hg       Hg       Hg                         
                                                              
                    Hg       Hg       Hg                      
             Hg       Hg       Hg                             
                                                              
       Hg       Hg       Hg                                   
                                                              
                                                              
                                                              
                                                              

Positions:
   0 Hg     0.000000    0.000000   10.000000    ( 0.0000,  0.0000,  0.0000)
   1 Hg     3.603292    2.080362   12.942076    ( 0.0000,  0.0000,  0.0000)
   2 Hg     1.809013    1.044434   15.886304    ( 0.0000,  0.0000,  0.0000)
   3 Hg     5.404939    3.120543   18.930235    ( 0.0000,  0.0000,  0.0000)
   4 Hg     1.801646    3.120543   10.000000    ( 0.0000,  0.0000,  0.0000)
   5 Hg     5.404939    5.200905   12.942076    ( 0.0000,  0.0000,  0.0000)
   6 Hg     3.616813    4.152917   15.866715    ( 0.0000,  0.0000,  0.0000)
   7 Hg     7.191366    6.267569   18.938926    ( 0.0000,  0.0000,  0.0000)
   8 Hg     3.603292    6.241086   10.000000    ( 0.0000,  0.0000,  0.0000)
   9 Hg     7.206585    8.321447   12.942076    ( 0.0000,  0.0000,  0.0000)
  10 Hg     5.404939    7.272760   15.886304    ( 0.0000,  0.0000,  0.0000)
  11 Hg     8.977686    9.361566   18.938926    ( 0.0000,  0.0000,  0.0000)
  12 Hg     3.603292    0.000000   10.000000    ( 0.0000,  0.0000,  0.0000)
  13 Hg     7.206585    2.080362   12.942076    ( 0.0000,  0.0000,  0.0000)
  14 Hg     5.404939    1.055793   15.866715    ( 0.0000,  0.0000,  0.0000)
  15 Hg     9.023557    3.094121   18.938926    ( 0.0000,  0.0000,  0.0000)
  16 Hg     5.404939    3.120543   10.000000    ( 0.0000,  0.0000,  0.0000)
  17 Hg     9.008231    5.200905   12.942076    ( 0.0000,  0.0000,  0.0000)
  18 Hg     7.193064    4.152917   15.866715    ( 0.0000,  0.0000,  0.0000)
  19 Hg    10.809877    6.241086   18.929682    ( 0.0000,  0.0000,  0.0000)
  20 Hg     7.206585    6.241086   10.000000    ( 0.0000,  0.0000,  0.0000)
  21 Hg    10.809877    8.321447   12.942076    ( 0.0000,  0.0000,  0.0000)
  22 Hg     8.994409    7.289247   15.879143    ( 0.0000,  0.0000,  0.0000)
  23 Hg    12.642068    9.361566   18.938926    ( 0.0000,  0.0000,  0.0000)
  24 Hg     7.206585    0.000000   10.000000    ( 0.0000,  0.0000,  0.0000)
  25 Hg    10.809877    2.080362   12.942076    ( 0.0000,  0.0000,  0.0000)
  26 Hg     9.000864    1.044434   15.886304    ( 0.0000,  0.0000,  0.0000)
  27 Hg    12.596197    3.094121   18.938926    ( 0.0000,  0.0000,  0.0000)
  28 Hg     9.008231    3.120543   10.000000    ( 0.0000,  0.0000,  0.0000)
  29 Hg    12.611524    5.200905   12.942076    ( 0.0000,  0.0000,  0.0000)
  30 Hg    10.809877    4.144763   15.879143    ( 0.0000,  0.0000,  0.0000)
  31 Hg    14.428388    6.267569   18.938926    ( 0.0000,  0.0000,  0.0000)
  32 Hg    10.809877    6.241086   10.000000    ( 0.0000,  0.0000,  0.0000)
  33 Hg    14.413170    8.321447   12.942076    ( 0.0000,  0.0000,  0.0000)
  34 Hg    12.625346    7.289247   15.879143    ( 0.0000,  0.0000,  0.0000)
  35 Hg    16.214816    9.361628   18.940525    ( 0.0000,  0.0000,  0.0000)
  36 O     10.809877    6.241086   20.929682    ( 0.0000,  0.0000,  0.0000)
  37 H     10.809877    6.241086   21.889682    ( 0.0000,  0.0000,  0.0000)

Unit cell:
           periodic     x           y           z      points  spacing
  1. axis:    yes   10.809877    0.000000    0.000000    52     0.1800
  2. axis:    yes    5.404939    9.361628    0.000000    52     0.1800
  3. axis:    no     0.000000    0.000000   28.826228   160     0.1802

  Lengths:  10.809877  10.809877  28.826228
  Angles:   90.000000  90.000000  60.000000

Effective grid spacing dv^(1/3) = 0.1889

     iter     time        total  log10-change:
                         energy  eigst   dens
iter:   1 16:42:07 -12239.787884
iter:   2 16:42:54 -12240.582667  -0.46  -1.51
iter:   3 16:43:41 -12239.635021  -0.92  -1.53
iter:   4 16:44:28 -12240.077923  -1.47  -1.66
iter:   5 16:45:15 -12241.615759  -1.29  -1.71
iter:   6 16:46:02 -12243.045434  -1.12  -1.90
iter:   7 16:46:49 -12247.529550  -1.56  -2.16
iter:   8 16:47:36 -12246.594538  -1.74  -1.98
iter:   9 16:48:23 -12243.178842  -1.43  -2.01
iter:  10 16:49:10 -12243.149465  -2.51  -2.37
iter:  11 16:49:58 -12243.091505c -2.46  -2.37
iter:  12 16:50:45 -12243.013621c -3.01  -2.36
iter:  13 16:51:32 -12243.178806c -2.38  -2.40
iter:  14 16:52:19 -12243.112055c -3.03  -2.33
iter:  15 16:53:06 -12243.128903c -3.05  -2.34
iter:  16 16:53:53 -12243.032645c -2.84  -2.35
iter:  17 16:54:40 -12242.825274c -2.70  -2.43
iter:  18 16:55:27 -12242.827372c -3.26  -2.75
iter:  19 16:56:14 -12242.821440c -3.54  -2.81
iter:  20 16:57:01 -12242.804673c -3.56  -2.88
iter:  21 16:57:49 -12242.804190c -4.38  -3.21
iter:  22 16:58:36 -12242.802886c -4.37  -3.30
iter:  23 16:59:23 -12242.801171c -4.49  -3.39
iter:  24 17:00:10 -12242.801367c -4.32  -3.51
iter:  25 17:00:57 -12242.801253c -4.65  -3.66
iter:  26 17:01:44 -12242.800125c -4.76  -3.80
iter:  27 17:02:31 -12242.800192c -5.22  -4.18c
iter:  28 17:03:18 -12242.800193c -5.74  -4.21c
iter:  29 17:04:05 -12242.800166c -6.10  -4.33c
iter:  30 17:04:52 -12242.800251c -6.51  -4.45c
iter:  31 17:05:39 -12242.800268c -7.04  -4.62c
iter:  32 17:06:26 -12242.800259c -7.06  -4.66c
iter:  33 17:07:13 -12242.800238c -7.51c -4.77c

Converged after 33 iterations.

Dipole moment: (-20.590723, -11.888059, -0.405242) |e|*Ang

Energy contributions relative to reference atoms: (reference = -19195661.376652)

Kinetic:       +2048.548157
Potential:     -1829.578983
External:        +0.000000
XC:            -12374.813896
Entropy (-ST):   -0.190606
Local:          -86.860213
--------------------------
Free energy:   -12242.895541
Extrapolated:  -12242.800238

Showing only first 2 kpts
 Kpt  Band  Eigenvalues  Occupancy
  0   325     -5.43881    1.98254
  0   326     -5.33752    1.95265
  0   327     -4.97879    1.06591
  0   328     -4.12977    0.00047

  1   325     -5.52672    1.99271
  1   326     -5.40537    1.97569
  1   327     -4.98669    1.10510
  1   328     -4.19501    0.00090


Fermi level: -4.96559

Gap: 0.645 eV
Transition (v -> c):
  (s=0, k=5, n=327, [0.38, 0.38, 0.00]) -> (s=0, k=3, n=328, [0.38, -0.12, 0.00])

Forces in eV/Ang:
  0 Hg   -0.00000    0.00000   -0.08218
  1 Hg   -0.01658   -0.00958    0.00716
  2 Hg   -0.00772   -0.00446    0.04016
  3 Hg    0.00000    0.00000    0.05837
  4 Hg   -0.01409   -0.01866   -0.08676
  5 Hg   -0.00000    0.01915    0.00716
  6 Hg   -0.00434    0.00251    0.03114
  7 Hg    0.04525   -0.02625    0.00917
  8 Hg    0.00912    0.02154   -0.08676
  9 Hg    0.01131   -0.00653    0.01379
 10 Hg   -0.00000    0.00891    0.04016
 11 Hg    0.04536   -0.02606    0.00917
 12 Hg   -0.02321   -0.00287   -0.08676
 13 Hg    0.01658   -0.00958    0.00716
 14 Hg    0.00000   -0.00501    0.03114
 15 Hg   -0.00011    0.05231    0.00917
 16 Hg    0.00000    0.00000   -0.08031
 17 Hg    0.01769    0.01022    0.02887
 18 Hg    0.00434    0.00251    0.03114
 19 Hg    0.00000    0.00000   -2.21401
 20 Hg   -0.00912    0.02154   -0.08676
 21 Hg    0.00000   -0.02043    0.02887
 22 Hg    0.05197   -0.03001    0.09527
 23 Hg   -0.04536   -0.02606    0.00917
 24 Hg    0.02321   -0.00287   -0.08676
 25 Hg   -0.00000    0.01306    0.01379
 26 Hg    0.00772   -0.00446    0.04016
 27 Hg    0.00011    0.05231    0.00917
 28 Hg    0.01409   -0.01866   -0.08676
 29 Hg   -0.01769    0.01022    0.02887
 30 Hg   -0.00000    0.06001    0.09527
 31 Hg   -0.04525   -0.02625    0.00917
 32 Hg   -0.00000    0.00000   -0.08337
 33 Hg   -0.01131   -0.00653    0.01379
 34 Hg   -0.05197   -0.03001    0.09527
 35 Hg    0.00000    0.00000   -0.01516
 36 O     0.00000    0.00000    1.96390
 37 H     0.00000   -0.00000   -0.02554

      Step     Time          Energy         fmax
BFGS:    0 17:07:26   -12242.800238        1.9639
System changes: positions 

Initializing position-dependent things.

Density initialized from wave functions
                                                              
                                                              
                                                              
                                                              
                                                              
                                                              
                                      H                       
                                   Hg O     Hg       Hg       
                                                              
                             Hg       Hg       Hg             
                                                              
                      Hg       Hg       Hg                    
                                                              
                         Hg       Hg       Hg                 
                   Hg      Hg       Hg                        
                                                              
            Hg       Hg       Hg       Hg       Hg            
                        Hg       Hg      Hg                   
                                                              
                 Hg       Hg       Hg                         
                                                              
                    Hg       Hg       Hg                      
             Hg       Hg       Hg                             
                                                              
       Hg       Hg       Hg                                   
                                                              
                                                              
                                                              
                                                              

Positions:
   0 Hg     0.000000    0.000000   10.000000    ( 0.0000,  0.0000,  0.0000)
   1 Hg     3.603292    2.080362   12.942076    ( 0.0000,  0.0000,  0.0000)
   2 Hg     1.809013    1.044434   15.886304    ( 0.0000,  0.0000,  0.0000)
   3 Hg     5.404939    3.120543   18.930235    ( 0.0000,  0.0000,  0.0000)
   4 Hg     1.801646    3.120543   10.000000    ( 0.0000,  0.0000,  0.0000)
   5 Hg     5.404939    5.200905   12.942076    ( 0.0000,  0.0000,  0.0000)
   6 Hg     3.616813    4.152917   15.866715    ( 0.0000,  0.0000,  0.0000)
   7 Hg     7.191366    6.267569   18.938926    ( 0.0000,  0.0000,  0.0000)
   8 Hg     3.603292    6.241086   10.000000    ( 0.0000,  0.0000,  0.0000)
   9 Hg     7.206585    8.321447   12.942076    ( 0.0000,  0.0000,  0.0000)
  10 Hg     5.404939    7.272760   15.886304    ( 0.0000,  0.0000,  0.0000)
  11 Hg     8.977686    9.361566   18.938926    ( 0.0000,  0.0000,  0.0000)
  12 Hg     3.603292    0.000000   10.000000    ( 0.0000,  0.0000,  0.0000)
  13 Hg     7.206585    2.080362   12.942076    ( 0.0000,  0.0000,  0.0000)
  14 Hg     5.404939    1.055793   15.866715    ( 0.0000,  0.0000,  0.0000)
  15 Hg     9.023557    3.094121   18.938926    ( 0.0000,  0.0000,  0.0000)
  16 Hg     5.404939    3.120543   10.000000    ( 0.0000,  0.0000,  0.0000)
  17 Hg     9.008231    5.200905   12.942076    ( 0.0000,  0.0000,  0.0000)
  18 Hg     7.193064    4.152917   15.866715    ( 0.0000,  0.0000,  0.0000)
  19 Hg    10.809877    6.241086   18.929682    ( 0.0000,  0.0000,  0.0000)
  20 Hg     7.206585    6.241086   10.000000    ( 0.0000,  0.0000,  0.0000)
  21 Hg    10.809877    8.321447   12.942076    ( 0.0000,  0.0000,  0.0000)
  22 Hg     8.994409    7.289247   15.879143    ( 0.0000,  0.0000,  0.0000)
  23 Hg    12.642068    9.361566   18.938926    ( 0.0000,  0.0000,  0.0000)
  24 Hg     7.206585    0.000000   10.000000    ( 0.0000,  0.0000,  0.0000)
  25 Hg    10.809877    2.080362   12.942076    ( 0.0000,  0.0000,  0.0000)
  26 Hg     9.000864    1.044434   15.886304    ( 0.0000,  0.0000,  0.0000)
  27 Hg    12.596197    3.094121   18.938926    ( 0.0000,  0.0000,  0.0000)
  28 Hg     9.008231    3.120543   10.000000    ( 0.0000,  0.0000,  0.0000)
  29 Hg    12.611524    5.200905   12.942076    ( 0.0000,  0.0000,  0.0000)
  30 Hg    10.809877    4.144763   15.879143    ( 0.0000,  0.0000,  0.0000)
  31 Hg    14.428388    6.267569   18.938926    ( 0.0000,  0.0000,  0.0000)
  32 Hg    10.809877    6.241086   10.000000    ( 0.0000,  0.0000,  0.0000)
  33 Hg    14.413170    8.321447   12.942076    ( 0.0000,  0.0000,  0.0000)
  34 Hg    12.625346    7.289247   15.879143    ( 0.0000,  0.0000,  0.0000)
  35 Hg    16.214816    9.361628   18.940525    ( 0.0000,  0.0000,  0.0000)
  36 O     10.809877    6.241086   20.957738    ( 0.0000,  0.0000,  0.0000)
  37 H     10.809877    6.241086   21.889317    ( 0.0000,  0.0000,  0.0000)

Unit cell:
           periodic     x           y           z      points  spacing
  1. axis:    yes   10.809877    0.000000    0.000000    52     0.1800
  2. axis:    yes    5.404939    9.361628    0.000000    52     0.1800
  3. axis:    no     0.000000    0.000000   28.826228   160     0.1802

  Lengths:  10.809877  10.809877  28.826228
  Angles:   90.000000  90.000000  60.000000

Effective grid spacing dv^(1/3) = 0.1889

     iter     time        total  log10-change:
                         energy  eigst   dens
iter:   1 17:08:50 -12242.836787  -2.78
iter:   2 17:09:37 -12242.830636  -3.92  -3.19
iter:   3 17:10:24 -12242.825925c -4.07  -3.38
iter:   4 17:11:11 -12242.826587c -4.04  -3.76
iter:   5 17:11:58 -12242.827293c -4.32  -3.66
iter:   6 17:12:45 -12242.824420c -4.37  -3.81
iter:   7 17:13:32 -12242.824651c -5.23  -4.08c
iter:   8 17:14:19 -12242.824557c -6.11  -4.18c
iter:   9 17:15:06 -12242.824240c -6.04  -4.36c
iter:  10 17:15:54 -12242.824275c -6.07  -4.50c
iter:  11 17:16:41 -12242.824173c -6.39  -4.76c
iter:  12 17:17:28 -12242.824235c -6.32  -4.64c
iter:  13 17:18:15 -12242.824197c -7.52c -4.77c

Converged after 13 iterations.

Dipole moment: (-20.620038, -11.904985, -0.450041) |e|*Ang

Energy contributions relative to reference atoms: (reference = -19195661.376652)

Kinetic:       +2048.175398
Potential:     -1829.030147
External:        +0.000000
XC:            -12375.010138
Entropy (-ST):   -0.196555
Local:          -86.861033
--------------------------
Free energy:   -12242.922475
Extrapolated:  -12242.824197

Showing only first 2 kpts
 Kpt  Band  Eigenvalues  Occupancy
  0   325     -5.46084    1.98097
  0   326     -5.35710    1.94722
  0   327     -5.01224    1.07959
  0   328     -4.15172    0.00043

  1   325     -5.54982    1.99214
  1   326     -5.42283    1.97230
  1   327     -5.01992    1.11757
  1   328     -4.21745    0.00083


Fermi level: -4.99629

Gap: 0.656 eV
Transition (v -> c):
  (s=0, k=5, n=327, [0.38, 0.38, 0.00]) -> (s=0, k=3, n=328, [0.38, -0.12, 0.00])

Forces in eV/Ang:
  0 Hg    0.00000    0.00000   -0.08036
  1 Hg   -0.01664   -0.00961    0.00680
  2 Hg   -0.00662   -0.00382    0.04592
  3 Hg    0.00000    0.00000    0.06436
  4 Hg   -0.01437   -0.01843   -0.08467
  5 Hg   -0.00000    0.01921    0.00680
  6 Hg   -0.01205    0.00696    0.03838
  7 Hg    0.05713   -0.02527    0.01631
  8 Hg    0.00877    0.02166   -0.08467
  9 Hg    0.01154   -0.00666    0.01354
 10 Hg   -0.00000    0.00765    0.04592
 11 Hg    0.05045   -0.03684    0.01631
 12 Hg   -0.02315   -0.00323   -0.08467
 13 Hg    0.01664   -0.00961    0.00680
 14 Hg    0.00000   -0.01392    0.03838
 15 Hg    0.00668    0.06211    0.01631
 16 Hg    0.00000    0.00000   -0.07807
 17 Hg    0.01882    0.01087    0.03194
 18 Hg    0.01205    0.00696    0.03838
 19 Hg    0.00000    0.00000   -1.76847
 20 Hg   -0.00877    0.02166   -0.08467
 21 Hg    0.00000   -0.02174    0.03194
 22 Hg    0.06325   -0.03652    0.10839
 23 Hg   -0.05045   -0.03684    0.01631
 24 Hg    0.02315   -0.00323   -0.08467
 25 Hg   -0.00000    0.01333    0.01354
 26 Hg    0.00662   -0.00382    0.04592
 27 Hg   -0.00668    0.06211    0.01631
 28 Hg    0.01437   -0.01843   -0.08467
 29 Hg   -0.01882    0.01087    0.03194
 30 Hg   -0.00000    0.07303    0.10839
 31 Hg   -0.05713   -0.02527    0.01631
 32 Hg    0.00000    0.00000   -0.08148
 33 Hg   -0.01154   -0.00666    0.01354
 34 Hg   -0.06325   -0.03652    0.10839
 35 Hg   -0.00000    0.00000   -0.00884
 36 O     0.00000   -0.00000   -0.05900
 37 H     0.00000    0.00000    1.58918

BFGS:    1 17:18:28   -12242.824197        1.5892
System changes: positions 

Initializing position-dependent things.

Density initialized from wave functions
                                                              
                                                              
                                                              
                                                              
                                                              
                                                              
                                      H                       
                                   Hg O     Hg       Hg       
                                                              
                             Hg       Hg       Hg             
                                                              
                      Hg       Hg       Hg                    
                                                              
                         Hg       Hg       Hg                 
                   Hg      Hg       Hg                        
                                                              
            Hg       Hg       Hg       Hg       Hg            
                        Hg       Hg      Hg                   
                                                              
                 Hg       Hg       Hg                         
                                                              
                    Hg       Hg       Hg                      
             Hg       Hg       Hg                             
                                                              
       Hg       Hg       Hg                                   
                                                              
                                                              
                                                              
                                                              

Positions:
   0 Hg     0.000000    0.000000   10.000000    ( 0.0000,  0.0000,  0.0000)
   1 Hg     3.603292    2.080362   12.942076    ( 0.0000,  0.0000,  0.0000)
   2 Hg     1.809013    1.044434   15.886304    ( 0.0000,  0.0000,  0.0000)
   3 Hg     5.404939    3.120543   18.930235    ( 0.0000,  0.0000,  0.0000)
   4 Hg     1.801646    3.120543   10.000000    ( 0.0000,  0.0000,  0.0000)
   5 Hg     5.404939    5.200905   12.942076    ( 0.0000,  0.0000,  0.0000)
   6 Hg     3.616813    4.152917   15.866715    ( 0.0000,  0.0000,  0.0000)
   7 Hg     7.191366    6.267569   18.938926    ( 0.0000,  0.0000,  0.0000)
   8 Hg     3.603292    6.241086   10.000000    ( 0.0000,  0.0000,  0.0000)
   9 Hg     7.206585    8.321447   12.942076    ( 0.0000,  0.0000,  0.0000)
  10 Hg     5.404939    7.272760   15.886304    ( 0.0000,  0.0000,  0.0000)
  11 Hg     8.977686    9.361566   18.938926    ( 0.0000,  0.0000,  0.0000)
  12 Hg     3.603292    0.000000   10.000000    ( 0.0000,  0.0000,  0.0000)
  13 Hg     7.206585    2.080362   12.942076    ( 0.0000,  0.0000,  0.0000)
  14 Hg     5.404939    1.055793   15.866715    ( 0.0000,  0.0000,  0.0000)
  15 Hg     9.023557    3.094121   18.938926    ( 0.0000,  0.0000,  0.0000)
  16 Hg     5.404939    3.120543   10.000000    ( 0.0000,  0.0000,  0.0000)
  17 Hg     9.008231    5.200905   12.942076    ( 0.0000,  0.0000,  0.0000)
  18 Hg     7.193064    4.152917   15.866715    ( 0.0000,  0.0000,  0.0000)
  19 Hg    10.809877    6.241086   18.929682    ( 0.0000,  0.0000,  0.0000)
  20 Hg     7.206585    6.241086   10.000000    ( 0.0000,  0.0000,  0.0000)
  21 Hg    10.809877    8.321447   12.942076    ( 0.0000,  0.0000,  0.0000)
  22 Hg     8.994409    7.289247   15.879143    ( 0.0000,  0.0000,  0.0000)
  23 Hg    12.642068    9.361566   18.938926    ( 0.0000,  0.0000,  0.0000)
  24 Hg     7.206585    0.000000   10.000000    ( 0.0000,  0.0000,  0.0000)
  25 Hg    10.809877    2.080362   12.942076    ( 0.0000,  0.0000,  0.0000)
  26 Hg     9.000864    1.044434   15.886304    ( 0.0000,  0.0000,  0.0000)
  27 Hg    12.596197    3.094121   18.938926    ( 0.0000,  0.0000,  0.0000)
  28 Hg     9.008231    3.120543   10.000000    ( 0.0000,  0.0000,  0.0000)
  29 Hg    12.611524    5.200905   12.942076    ( 0.0000,  0.0000,  0.0000)
  30 Hg    10.809877    4.144763   15.879143    ( 0.0000,  0.0000,  0.0000)
  31 Hg    14.428388    6.267569   18.938926    ( 0.0000,  0.0000,  0.0000)
  32 Hg    10.809877    6.241086   10.000000    ( 0.0000,  0.0000,  0.0000)
  33 Hg    14.413170    8.321447   12.942076    ( 0.0000,  0.0000,  0.0000)
  34 Hg    12.625346    7.289247   15.879143    ( 0.0000,  0.0000,  0.0000)
  35 Hg    16.214816    9.361628   18.940525    ( 0.0000,  0.0000,  0.0000)
  36 O     10.809877    6.241086   20.973872    ( 0.0000,  0.0000,  0.0000)
  37 H     10.809877    6.241086   21.910914    ( 0.0000,  0.0000,  0.0000)

Unit cell:
           periodic     x           y           z      points  spacing
  1. axis:    yes   10.809877    0.000000    0.000000    52     0.1800
  2. axis:    yes    5.404939    9.361628    0.000000    52     0.1800
  3. axis:    no     0.000000    0.000000   28.826228   160     0.1802

  Lengths:  10.809877  10.809877  28.826228
  Angles:   90.000000  90.000000  60.000000

Effective grid spacing dv^(1/3) = 0.1889

     iter     time        total  log10-change:
                         energy  eigst   dens
iter:   1 17:19:52 -12242.851869  -3.22
iter:   2 17:20:39 -12242.851428  -4.28  -3.56
iter:   3 17:21:26 -12242.852243c -4.45  -3.80
iter:   4 17:22:13 -12242.851528c -5.49  -3.89
iter:   5 17:23:00 -12242.851176c -5.57  -4.13c
iter:   6 17:23:47 -12242.851572c -5.89  -4.25c
iter:   7 17:24:34 -12242.851605c -6.01  -4.45c
iter:   8 17:25:21 -12242.851577c -7.08  -4.49c
iter:   9 17:26:08 -12242.851475c -6.94  -4.61c
iter:  10 17:26:55 -12242.851483c -6.85  -4.88c
iter:  11 17:27:42 -12242.851439c -6.79  -4.96c
iter:  12 17:28:29 -12242.851437c -7.79c -5.11c

Converged after 12 iterations.

Dipole moment: (-20.632635, -11.912257, -0.470946) |e|*Ang

Energy contributions relative to reference atoms: (reference = -19195661.376652)

Kinetic:       +2047.583034
Potential:     -1828.587693
External:        +0.000000
XC:            -12374.870250
Entropy (-ST):   -0.201853
Local:          -86.875602
--------------------------
Free energy:   -12242.952364
Extrapolated:  -12242.851437

Showing only first 2 kpts
 Kpt  Band  Eigenvalues  Occupancy
  0   325     -5.46919    1.97969
  0   326     -5.36447    1.94320
  0   327     -5.02958    1.09156
  0   328     -4.16202    0.00041

  1   325     -5.55334    1.99120
  1   326     -5.42897    1.96979
  1   327     -5.03708    1.12859
  1   328     -4.22818    0.00079


Fermi level: -5.01122

Gap: 0.664 eV
Transition (v -> c):
  (s=0, k=4, n=327, [0.38, 0.12, 0.00]) -> (s=0, k=3, n=328, [0.38, -0.12, 0.00])

Forces in eV/Ang:
  0 Hg    0.00000    0.00000   -0.07782
  1 Hg   -0.01640   -0.00947    0.00706
  2 Hg   -0.00744   -0.00430    0.04299
  3 Hg   -0.00000    0.00000    0.06416
  4 Hg   -0.01439   -0.01838   -0.08224
  5 Hg   -0.00000    0.01894    0.00706
  6 Hg   -0.00724    0.00418    0.03544
  7 Hg    0.05354   -0.02563    0.01446
  8 Hg    0.00872    0.02165   -0.08224
  9 Hg    0.01100   -0.00635    0.01320
 10 Hg   -0.00000    0.00859    0.04299
 11 Hg    0.04896   -0.03355    0.01446
 12 Hg   -0.02311   -0.00327   -0.08224
 13 Hg    0.01640   -0.00947    0.00706
 14 Hg    0.00000   -0.00836    0.03544
 15 Hg    0.00458    0.05918    0.01446
 16 Hg    0.00000    0.00000   -0.07588
 17 Hg    0.01769    0.01022    0.02865
 18 Hg    0.00724    0.00418    0.03544
 19 Hg    0.00000    0.00000   -1.54401
 20 Hg   -0.00872    0.02165   -0.08224
 21 Hg    0.00000   -0.02043    0.02865
 22 Hg    0.05816   -0.03358    0.10248
 23 Hg   -0.04896   -0.03355    0.01446
 24 Hg    0.02311   -0.00327   -0.08224
 25 Hg   -0.00000    0.01270    0.01320
 26 Hg    0.00744   -0.00430    0.04299
 27 Hg   -0.00458    0.05918    0.01446
 28 Hg    0.01439   -0.01838   -0.08224
 29 Hg   -0.01769    0.01022    0.02865
 30 Hg   -0.00000    0.06716    0.10248
 31 Hg   -0.05354   -0.02563    0.01446
 32 Hg   -0.00000    0.00000   -0.07929
 33 Hg   -0.01100   -0.00635    0.01320
 34 Hg   -0.05816   -0.03358    0.10248
 35 Hg   -0.00000    0.00000   -0.00893
 36 O     0.00000    0.00000   -0.00649
 37 H     0.00000    0.00000    1.26657

BFGS:    2 17:28:43   -12242.851437        1.2666
System changes: positions 

Initializing position-dependent things.

Density initialized from wave functions
                                                              
                                                              
                                                              
                                                              
                                                              
                                                              
                                      H                       
                                      O                       
                                   Hg       Hg       Hg       
                             Hg       Hg       Hg             
                                                              
                      Hg       Hg       Hg                    
                                                              
                         Hg       Hg       Hg                 
                   Hg      Hg       Hg                        
                                                              
            Hg       Hg       Hg       Hg       Hg            
                                                              
                        Hg       Hg      Hg                   
                 Hg       Hg       Hg                         
                                                              
                    Hg       Hg       Hg                      
             Hg       Hg       Hg                             
                                                              
       Hg       Hg       Hg                                   
                                                              
                                                              
                                                              
                                                              

Positions:
   0 Hg     0.000000    0.000000   10.000000    ( 0.0000,  0.0000,  0.0000)
   1 Hg     3.603292    2.080362   12.942076    ( 0.0000,  0.0000,  0.0000)
   2 Hg     1.809013    1.044434   15.886304    ( 0.0000,  0.0000,  0.0000)
   3 Hg     5.404939    3.120543   18.930235    ( 0.0000,  0.0000,  0.0000)
   4 Hg     1.801646    3.120543   10.000000    ( 0.0000,  0.0000,  0.0000)
   5 Hg     5.404939    5.200905   12.942076    ( 0.0000,  0.0000,  0.0000)
   6 Hg     3.616813    4.152917   15.866715    ( 0.0000,  0.0000,  0.0000)
   7 Hg     7.191366    6.267569   18.938926    ( 0.0000,  0.0000,  0.0000)
   8 Hg     3.603292    6.241086   10.000000    ( 0.0000,  0.0000,  0.0000)
   9 Hg     7.206585    8.321447   12.942076    ( 0.0000,  0.0000,  0.0000)
  10 Hg     5.404939    7.272760   15.886304    ( 0.0000,  0.0000,  0.0000)
  11 Hg     8.977686    9.361566   18.938926    ( 0.0000,  0.0000,  0.0000)
  12 Hg     3.603292    0.000000   10.000000    ( 0.0000,  0.0000,  0.0000)
  13 Hg     7.206585    2.080362   12.942076    ( 0.0000,  0.0000,  0.0000)
  14 Hg     5.404939    1.055793   15.866715    ( 0.0000,  0.0000,  0.0000)
  15 Hg     9.023557    3.094121   18.938926    ( 0.0000,  0.0000,  0.0000)
  16 Hg     5.404939    3.120543   10.000000    ( 0.0000,  0.0000,  0.0000)
  17 Hg     9.008231    5.200905   12.942076    ( 0.0000,  0.0000,  0.0000)
  18 Hg     7.193064    4.152917   15.866715    ( 0.0000,  0.0000,  0.0000)
  19 Hg    10.809877    6.241086   18.929682    ( 0.0000,  0.0000,  0.0000)
  20 Hg     7.206585    6.241086   10.000000    ( 0.0000,  0.0000,  0.0000)
  21 Hg    10.809877    8.321447   12.942076    ( 0.0000,  0.0000,  0.0000)
  22 Hg     8.994409    7.289247   15.879143    ( 0.0000,  0.0000,  0.0000)
  23 Hg    12.642068    9.361566   18.938926    ( 0.0000,  0.0000,  0.0000)
  24 Hg     7.206585    0.000000   10.000000    ( 0.0000,  0.0000,  0.0000)
  25 Hg    10.809877    2.080362   12.942076    ( 0.0000,  0.0000,  0.0000)
  26 Hg     9.000864    1.044434   15.886304    ( 0.0000,  0.0000,  0.0000)
  27 Hg    12.596197    3.094121   18.938926    ( 0.0000,  0.0000,  0.0000)
  28 Hg     9.008231    3.120543   10.000000    ( 0.0000,  0.0000,  0.0000)
  29 Hg    12.611524    5.200905   12.942076    ( 0.0000,  0.0000,  0.0000)
  30 Hg    10.809877    4.144763   15.879143    ( 0.0000,  0.0000,  0.0000)
  31 Hg    14.428388    6.267569   18.938926    ( 0.0000,  0.0000,  0.0000)
  32 Hg    10.809877    6.241086   10.000000    ( 0.0000,  0.0000,  0.0000)
  33 Hg    14.413170    8.321447   12.942076    ( 0.0000,  0.0000,  0.0000)
  34 Hg    12.625346    7.289247   15.879143    ( 0.0000,  0.0000,  0.0000)
  35 Hg    16.214816    9.361628   18.940525    ( 0.0000,  0.0000,  0.0000)
  36 O     10.809877    6.241086   21.049339    ( 0.0000,  0.0000,  0.0000)
  37 H     10.809877    6.241086   22.007664    ( 0.0000,  0.0000,  0.0000)

Unit cell:
           periodic     x           y           z      points  spacing
  1. axis:    yes   10.809877    0.000000    0.000000    52     0.1800
  2. axis:    yes    5.404939    9.361628    0.000000    52     0.1800
  3. axis:    no     0.000000    0.000000   28.826228   160     0.1802

  Lengths:  10.809877  10.809877  28.826228
  Angles:   90.000000  90.000000  60.000000

Effective grid spacing dv^(1/3) = 0.1889

     iter     time        total  log10-change:
                         energy  eigst   dens
iter:   1 17:30:06 -12242.933925  -1.99
iter:   2 17:30:53 -12242.922630  -3.04  -3.09
iter:   3 17:31:40 -12242.915574c -3.47  -3.28
iter:   4 17:32:27 -12242.915884c -4.49  -3.36
iter:   5 17:33:14 -12242.920281c -4.14  -3.47
iter:   6 17:34:01 -12242.921756c -4.44  -3.52
iter:   7 17:34:48 -12242.918499c -4.66  -3.54
iter:   8 17:35:35 -12242.918676c -5.54  -3.94
iter:   9 17:36:23 -12242.917633c -5.48  -3.98
iter:  10 17:37:10 -12242.917315c -5.77  -4.23c
iter:  11 17:37:57 -12242.917406c -6.02  -4.32c
iter:  12 17:38:44 -12242.917461c -6.24  -4.48c
iter:  13 17:39:31 -12242.917571c -6.92  -4.50c
iter:  14 17:40:18 -12242.917664c -6.83  -4.63c
iter:  15 17:41:05 -12242.917626c -7.33  -4.80c
iter:  16 17:41:52 -12242.917604c -7.56c -4.98c

Converged after 16 iterations.

Dipole moment: (-20.680872, -11.940107, -0.544918) |e|*Ang

Energy contributions relative to reference atoms: (reference = -19195661.376652)

Kinetic:       +2044.437758
Potential:     -1826.141012
External:        +0.000000
XC:            -12374.222719
Entropy (-ST):   -0.232994
Local:          -86.875134
--------------------------
Free energy:   -12243.034102
Extrapolated:  -12242.917604

Showing only first 2 kpts
 Kpt  Band  Eigenvalues  Occupancy
  0   325     -5.46051    1.96125
  0   326     -5.38863    1.92206
  0   327     -5.10281    1.17181
  0   328     -4.20204    0.00035

  1   325     -5.46460    1.96277
  1   326     -5.44566    1.95518
  1   327     -5.10976    1.20535
  1   328     -4.27002    0.00068


Fermi level: -5.06810

Gap: 0.700 eV
Transition (v -> c):
  (s=0, k=4, n=327, [0.38, 0.12, 0.00]) -> (s=0, k=3, n=328, [0.38, -0.12, 0.00])

Forces in eV/Ang:
  0 Hg   -0.00000    0.00000   -0.08057
  1 Hg   -0.01594   -0.00920    0.00733
  2 Hg   -0.00966   -0.00558    0.04790
  3 Hg    0.00000    0.00000    0.05745
  4 Hg   -0.01449   -0.01893   -0.08572
  5 Hg   -0.00000    0.01840    0.00733
  6 Hg   -0.00074    0.00043    0.04073
  7 Hg    0.05802   -0.02331    0.01694
  8 Hg    0.00915    0.02201   -0.08572
  9 Hg    0.00795   -0.00459    0.01252
 10 Hg   -0.00000    0.01115    0.04790
 11 Hg    0.04920   -0.03859    0.01694
 12 Hg   -0.02364   -0.00308   -0.08572
 13 Hg    0.01594   -0.00920    0.00733
 14 Hg    0.00000   -0.00086    0.04073
 15 Hg    0.00882    0.06190    0.01694
 16 Hg    0.00000    0.00000   -0.07911
 17 Hg    0.01464    0.00845    0.02335
 18 Hg    0.00074    0.00043    0.04073
 19 Hg    0.00000    0.00000   -0.82447
 20 Hg   -0.00915    0.02201   -0.08572
 21 Hg    0.00000   -0.01691    0.02335
 22 Hg    0.04730   -0.02731    0.09924
 23 Hg   -0.04920   -0.03859    0.01694
 24 Hg    0.02364   -0.00308   -0.08572
 25 Hg   -0.00000    0.00918    0.01252
 26 Hg    0.00966   -0.00558    0.04790
 27 Hg   -0.00882    0.06190    0.01694
 28 Hg    0.01449   -0.01893   -0.08572
 29 Hg   -0.01464    0.00845    0.02335
 30 Hg   -0.00000    0.05461    0.09924
 31 Hg   -0.05802   -0.02331    0.01694
 32 Hg    0.00000    0.00000   -0.08538
 33 Hg   -0.00795   -0.00459    0.01252
 34 Hg   -0.04730   -0.02731    0.09924
 35 Hg    0.00000    0.00000   -0.01621
 36 O     0.00000    0.00000    0.47677
 37 H     0.00000    0.00000    0.13427

BFGS:    3 17:42:05   -12242.917604        0.4768
System changes: positions 

Initializing position-dependent things.

Density initialized from wave functions
                                                              
                                                              
                                                              
                                                              
                                                              
                                                              
                                      H                       
                                      O                       
                                   Hg       Hg       Hg       
                             Hg       Hg       Hg             
                                                              
                      Hg       Hg       Hg                    
                                                              
                         Hg       Hg       Hg                 
                                                              
                   Hg      Hg       Hg                        
            Hg       Hg       Hg       Hg       Hg            
                                                              
                        Hg       Hg      Hg                   
                 Hg       Hg       Hg                         
                                                              
                    Hg       Hg       Hg                      
             Hg       Hg       Hg                             
                                                              
       Hg       Hg       Hg                                   
                                                              
                                                              
                                                              
                                                              

Positions:
   0 Hg     0.000000    0.000000   10.000000    ( 0.0000,  0.0000,  0.0000)
   1 Hg     3.603292    2.080362   12.942076    ( 0.0000,  0.0000,  0.0000)
   2 Hg     1.809013    1.044434   15.886304    ( 0.0000,  0.0000,  0.0000)
   3 Hg     5.404939    3.120543   18.930235    ( 0.0000,  0.0000,  0.0000)
   4 Hg     1.801646    3.120543   10.000000    ( 0.0000,  0.0000,  0.0000)
   5 Hg     5.404939    5.200905   12.942076    ( 0.0000,  0.0000,  0.0000)
   6 Hg     3.616813    4.152917   15.866715    ( 0.0000,  0.0000,  0.0000)
   7 Hg     7.191366    6.267569   18.938926    ( 0.0000,  0.0000,  0.0000)
   8 Hg     3.603292    6.241086   10.000000    ( 0.0000,  0.0000,  0.0000)
   9 Hg     7.206585    8.321447   12.942076    ( 0.0000,  0.0000,  0.0000)
  10 Hg     5.404939    7.272760   15.886304    ( 0.0000,  0.0000,  0.0000)
  11 Hg     8.977686    9.361566   18.938926    ( 0.0000,  0.0000,  0.0000)
  12 Hg     3.603292    0.000000   10.000000    ( 0.0000,  0.0000,  0.0000)
  13 Hg     7.206585    2.080362   12.942076    ( 0.0000,  0.0000,  0.0000)
  14 Hg     5.404939    1.055793   15.866715    ( 0.0000,  0.0000,  0.0000)
  15 Hg     9.023557    3.094121   18.938926    ( 0.0000,  0.0000,  0.0000)
  16 Hg     5.404939    3.120543   10.000000    ( 0.0000,  0.0000,  0.0000)
  17 Hg     9.008231    5.200905   12.942076    ( 0.0000,  0.0000,  0.0000)
  18 Hg     7.193064    4.152917   15.866715    ( 0.0000,  0.0000,  0.0000)
  19 Hg    10.809877    6.241086   18.929682    ( 0.0000,  0.0000,  0.0000)
  20 Hg     7.206585    6.241086   10.000000    ( 0.0000,  0.0000,  0.0000)
  21 Hg    10.809877    8.321447   12.942076    ( 0.0000,  0.0000,  0.0000)
  22 Hg     8.994409    7.289247   15.879143    ( 0.0000,  0.0000,  0.0000)
  23 Hg    12.642068    9.361566   18.938926    ( 0.0000,  0.0000,  0.0000)
  24 Hg     7.206585    0.000000   10.000000    ( 0.0000,  0.0000,  0.0000)
  25 Hg    10.809877    2.080362   12.942076    ( 0.0000,  0.0000,  0.0000)
  26 Hg     9.000864    1.044434   15.886304    ( 0.0000,  0.0000,  0.0000)
  27 Hg    12.596197    3.094121   18.938926    ( 0.0000,  0.0000,  0.0000)
  28 Hg     9.008231    3.120543   10.000000    ( 0.0000,  0.0000,  0.0000)
  29 Hg    12.611524    5.200905   12.942076    ( 0.0000,  0.0000,  0.0000)
  30 Hg    10.809877    4.144763   15.879143    ( 0.0000,  0.0000,  0.0000)
  31 Hg    14.428388    6.267569   18.938926    ( 0.0000,  0.0000,  0.0000)
  32 Hg    10.809877    6.241086   10.000000    ( 0.0000,  0.0000,  0.0000)
  33 Hg    14.413170    8.321447   12.942076    ( 0.0000,  0.0000,  0.0000)
  34 Hg    12.625346    7.289247   15.879143    ( 0.0000,  0.0000,  0.0000)
  35 Hg    16.214816    9.361628   18.940525    ( 0.0000,  0.0000,  0.0000)
  36 O     10.809877    6.241086   21.116645    ( 0.0000,  0.0000,  0.0000)
  37 H     10.809877    6.241086   22.079639    ( 0.0000,  0.0000,  0.0000)

Unit cell:
           periodic     x           y           z      points  spacing
  1. axis:    yes   10.809877    0.000000    0.000000    52     0.1800
  2. axis:    yes    5.404939    9.361628    0.000000    52     0.1800
  3. axis:    no     0.000000    0.000000   28.826228   160     0.1802

  Lengths:  10.809877  10.809877  28.826228
  Angles:   90.000000  90.000000  60.000000

Effective grid spacing dv^(1/3) = 0.1889

     iter     time        total  log10-change:
                         energy  eigst   dens
iter:   1 17:43:28 -12242.927881  -2.14
iter:   2 17:44:16 -12242.929422  -3.14  -3.16
iter:   3 17:45:03 -12242.928658c -3.93  -3.41
iter:   4 17:45:50 -12242.930629c -4.11  -3.50
iter:   5 17:46:37 -12242.932617c -4.34  -3.61
iter:   6 17:47:24 -12242.931583c -4.56  -3.71
iter:   7 17:48:11 -12242.930953c -5.12  -3.69
iter:   8 17:48:58 -12242.930498c -5.28  -3.82
iter:   9 17:49:45 -12242.930145c -5.75  -4.14c
iter:  10 17:50:32 -12242.929600c -5.89  -4.11c
iter:  11 17:51:19 -12242.929637c -5.70  -4.34c
iter:  12 17:52:06 -12242.929934c -5.98  -4.39c
iter:  13 17:52:53 -12242.930055c -6.64  -4.65c
iter:  14 17:53:40 -12242.930033c -6.72  -4.98c
iter:  15 17:54:27 -12242.930032c -7.81c -4.91c

Converged after 15 iterations.

Dipole moment: (-20.708987, -11.956339, -0.590316) |e|*Ang

Energy contributions relative to reference atoms: (reference = -19195661.376652)

Kinetic:       +2043.253033
Potential:     -1825.256843
External:        +0.000000
XC:            -12373.910021
Entropy (-ST):   -0.259181
Local:          -86.886611
--------------------------
Free energy:   -12243.059623
Extrapolated:  -12242.930032

Showing only first 2 kpts
 Kpt  Band  Eigenvalues  Occupancy
  0   325     -5.43772    1.93116
  0   326     -5.39853    1.89980
  0   327     -5.15687    1.25696
  0   328     -4.22769    0.00031

  1   325     -5.44162    1.93371
  1   326     -5.43232    1.92748
  1   327     -5.16387    1.28932
  1   328     -4.29694    0.00062


Fermi level: -5.10430

Gap: 0.731 eV
Transition (v -> c):
  (s=0, k=4, n=327, [0.38, 0.12, 0.00]) -> (s=0, k=3, n=328, [0.38, -0.12, 0.00])

Forces in eV/Ang:
  0 Hg    0.00000    0.00000   -0.07859
  1 Hg   -0.01577   -0.00911    0.00420
  2 Hg   -0.00841   -0.00485    0.04149
  3 Hg   -0.00000    0.00000    0.05421
  4 Hg   -0.01442   -0.01924   -0.08315
  5 Hg   -0.00000    0.01821    0.00420
  6 Hg   -0.00449    0.00259    0.03504
  7 Hg    0.06475   -0.02150    0.01599
  8 Hg    0.00946    0.02211   -0.08315
  9 Hg    0.00796   -0.00460    0.00949
 10 Hg   -0.00000    0.00971    0.04149
 11 Hg    0.05099   -0.04532    0.01599
 12 Hg   -0.02387   -0.00286   -0.08315
 13 Hg    0.01577   -0.00911    0.00420
 14 Hg    0.00000   -0.00518    0.03504
 15 Hg    0.01375    0.06682    0.01599
 16 Hg    0.00000    0.00000   -0.07659
 17 Hg    0.01563    0.00902    0.02299
 18 Hg    0.00449    0.00259    0.03504
 19 Hg   -0.00000    0.00000   -0.46568
 20 Hg   -0.00946    0.02211   -0.08315
 21 Hg    0.00000   -0.01804    0.02299
 22 Hg    0.04953   -0.02860    0.08734
 23 Hg   -0.05099   -0.04532    0.01599
 24 Hg    0.02387   -0.00286   -0.08315
 25 Hg   -0.00000    0.00919    0.00949
 26 Hg    0.00841   -0.00485    0.04149
 27 Hg   -0.01375    0.06682    0.01599
 28 Hg    0.01442   -0.01924   -0.08315
 29 Hg   -0.01563    0.00902    0.02299
 30 Hg   -0.00000    0.05719    0.08734
 31 Hg   -0.06475   -0.02150    0.01599
 32 Hg    0.00000    0.00000   -0.08400
 33 Hg   -0.00796   -0.00460    0.00949
 34 Hg   -0.04953   -0.02860    0.08734
 35 Hg   -0.00000    0.00000   -0.01891
 36 O     0.00000    0.00000    0.26843
 37 H     0.00000    0.00000   -0.04616

BFGS:    4 17:54:40   -12242.930032        0.2684
System changes: positions 

Initializing position-dependent things.

Density initialized from wave functions
                                                              
                                                              
                                                              
                                                              
                                                              
                                                              
                                      H                       
                                      O                       
                                   Hg       Hg       Hg       
                             Hg                Hg             
                                      Hg                      
                      Hg       Hg       Hg                    
                                                              
                         Hg       Hg       Hg                 
                                                              
                   Hg      Hg       Hg                        
            Hg       Hg       Hg       Hg       Hg            
                                                              
                        Hg       Hg      Hg                   
                 Hg       Hg       Hg                         
                                                              
                    Hg       Hg       Hg                      
             Hg       Hg       Hg                             
                                                              
       Hg       Hg       Hg                                   
                                                              
                                                              
                                                              
                                                              

Positions:
   0 Hg     0.000000    0.000000   10.000000    ( 0.0000,  0.0000,  0.0000)
   1 Hg     3.603292    2.080362   12.942076    ( 0.0000,  0.0000,  0.0000)
   2 Hg     1.809013    1.044434   15.886304    ( 0.0000,  0.0000,  0.0000)
   3 Hg     5.404939    3.120543   18.930235    ( 0.0000,  0.0000,  0.0000)
   4 Hg     1.801646    3.120543   10.000000    ( 0.0000,  0.0000,  0.0000)
   5 Hg     5.404939    5.200905   12.942076    ( 0.0000,  0.0000,  0.0000)
   6 Hg     3.616813    4.152917   15.866715    ( 0.0000,  0.0000,  0.0000)
   7 Hg     7.191366    6.267569   18.938926    ( 0.0000,  0.0000,  0.0000)
   8 Hg     3.603292    6.241086   10.000000    ( 0.0000,  0.0000,  0.0000)
   9 Hg     7.206585    8.321447   12.942076    ( 0.0000,  0.0000,  0.0000)
  10 Hg     5.404939    7.272760   15.886304    ( 0.0000,  0.0000,  0.0000)
  11 Hg     8.977686    9.361566   18.938926    ( 0.0000,  0.0000,  0.0000)
  12 Hg     3.603292    0.000000   10.000000    ( 0.0000,  0.0000,  0.0000)
  13 Hg     7.206585    2.080362   12.942076    ( 0.0000,  0.0000,  0.0000)
  14 Hg     5.404939    1.055793   15.866715    ( 0.0000,  0.0000,  0.0000)
  15 Hg     9.023557    3.094121   18.938926    ( 0.0000,  0.0000,  0.0000)
  16 Hg     5.404939    3.120543   10.000000    ( 0.0000,  0.0000,  0.0000)
  17 Hg     9.008231    5.200905   12.942076    ( 0.0000,  0.0000,  0.0000)
  18 Hg     7.193064    4.152917   15.866715    ( 0.0000,  0.0000,  0.0000)
  19 Hg    10.809877    6.241086   18.929682    ( 0.0000,  0.0000,  0.0000)
  20 Hg     7.206585    6.241086   10.000000    ( 0.0000,  0.0000,  0.0000)
  21 Hg    10.809877    8.321447   12.942076    ( 0.0000,  0.0000,  0.0000)
  22 Hg     8.994409    7.289247   15.879143    ( 0.0000,  0.0000,  0.0000)
  23 Hg    12.642068    9.361566   18.938926    ( 0.0000,  0.0000,  0.0000)
  24 Hg     7.206585    0.000000   10.000000    ( 0.0000,  0.0000,  0.0000)
  25 Hg    10.809877    2.080362   12.942076    ( 0.0000,  0.0000,  0.0000)
  26 Hg     9.000864    1.044434   15.886304    ( 0.0000,  0.0000,  0.0000)
  27 Hg    12.596197    3.094121   18.938926    ( 0.0000,  0.0000,  0.0000)
  28 Hg     9.008231    3.120543   10.000000    ( 0.0000,  0.0000,  0.0000)
  29 Hg    12.611524    5.200905   12.942076    ( 0.0000,  0.0000,  0.0000)
  30 Hg    10.809877    4.144763   15.879143    ( 0.0000,  0.0000,  0.0000)
  31 Hg    14.428388    6.267569   18.938926    ( 0.0000,  0.0000,  0.0000)
  32 Hg    10.809877    6.241086   10.000000    ( 0.0000,  0.0000,  0.0000)
  33 Hg    14.413170    8.321447   12.942076    ( 0.0000,  0.0000,  0.0000)
  34 Hg    12.625346    7.289247   15.879143    ( 0.0000,  0.0000,  0.0000)
  35 Hg    16.214816    9.361628   18.940525    ( 0.0000,  0.0000,  0.0000)
  36 O     10.809877    6.241086   21.154459    ( 0.0000,  0.0000,  0.0000)
  37 H     10.809877    6.241086   22.117696    ( 0.0000,  0.0000,  0.0000)

Unit cell:
           periodic     x           y           z      points  spacing
  1. axis:    yes   10.809877    0.000000    0.000000    52     0.1800
  2. axis:    yes    5.404939    9.361628    0.000000    52     0.1800
  3. axis:    no     0.000000    0.000000   28.826228   160     0.1802

  Lengths:  10.809877  10.809877  28.826228
  Angles:   90.000000  90.000000  60.000000

Effective grid spacing dv^(1/3) = 0.1889

     iter     time        total  log10-change:
                         energy  eigst   dens
iter:   1 17:56:04 -12242.927681  -2.62
iter:   2 17:56:51 -12242.929958  -3.54  -3.27
iter:   3 17:57:38 -12242.929093c -4.42  -3.64
iter:   4 17:58:26 -12242.929788c -4.65  -3.72
iter:   5 17:59:13 -12242.931863c -4.82  -3.86
iter:   6 18:00:00 -12242.931017c -4.99  -3.92
iter:   7 18:00:47 -12242.930472c -5.34  -3.95
iter:   8 18:01:34 -12242.930553c -5.88  -4.06c
iter:   9 18:02:21 -12242.930332c -6.25  -4.43c
iter:  10 18:03:09 -12242.930008c -6.58  -4.37c
iter:  11 18:03:56 -12242.930041c -6.16  -4.52c
iter:  12 18:04:43 -12242.930227c -6.12  -4.61c
iter:  13 18:05:30 -12242.930311c -6.49  -4.71c
iter:  14 18:06:17 -12242.930276c -6.83  -5.22c
iter:  15 18:07:04 -12242.930260c -8.22c -5.21c

Converged after 15 iterations.

Dipole moment: (-20.719073, -11.962162, -0.612958) |e|*Ang

Energy contributions relative to reference atoms: (reference = -19195661.376652)

Kinetic:       +2042.955987
Potential:     -1825.074917
External:        +0.000000
XC:            -12373.788501
Entropy (-ST):   -0.271688
Local:          -86.886985
--------------------------
Free energy:   -12243.066104
Extrapolated:  -12242.930260

Showing only first 2 kpts
 Kpt  Band  Eigenvalues  Occupancy
  0   325     -5.43249    1.91399
  0   326     -5.40238    1.88550
  0   327     -5.18511    1.30440
  0   328     -4.24048    0.00030

  1   325     -5.43842    1.91875
  1   326     -5.42489    1.90752
  1   327     -5.19222    1.33630
  1   328     -4.31033    0.00060


Fermi level: -5.12224

Gap: 0.747 eV
Transition (v -> c):
  (s=0, k=4, n=327, [0.38, 0.12, 0.00]) -> (s=0, k=3, n=328, [0.38, -0.12, 0.00])

Forces in eV/Ang:
  0 Hg    0.00000    0.00000   -0.07995
  1 Hg   -0.01581   -0.00913    0.00504
  2 Hg   -0.00821   -0.00474    0.04394
  3 Hg    0.00000    0.00000    0.05428
  4 Hg   -0.01449   -0.01909   -0.08392
  5 Hg   -0.00000    0.01826    0.00504
  6 Hg   -0.00260    0.00150    0.03601
  7 Hg    0.06074   -0.02058    0.01867
  8 Hg    0.00929    0.02210   -0.08392
  9 Hg    0.00876   -0.00506    0.01037
 10 Hg   -0.00000    0.00949    0.04394
 11 Hg    0.04819   -0.04231    0.01867
 12 Hg   -0.02378   -0.00300   -0.08392
 13 Hg    0.01581   -0.00913    0.00504
 14 Hg    0.00000   -0.00300    0.03601
 15 Hg    0.01255    0.06289    0.01867
 16 Hg    0.00000    0.00000   -0.07769
 17 Hg    0.01660    0.00958    0.02386
 18 Hg    0.00260    0.00150    0.03601
 19 Hg    0.00000    0.00000   -0.33047
 20 Hg   -0.00929    0.02210   -0.08392
 21 Hg    0.00000   -0.01917    0.02386
 22 Hg    0.04518   -0.02609    0.07962
 23 Hg   -0.04819   -0.04231    0.01867
 24 Hg    0.02378   -0.00300   -0.08392
 25 Hg   -0.00000    0.01011    0.01037
 26 Hg    0.00821   -0.00474    0.04394
 27 Hg   -0.01255    0.06289    0.01867
 28 Hg    0.01449   -0.01909   -0.08392
 29 Hg   -0.01660    0.00958    0.02386
 30 Hg   -0.00000    0.05217    0.07962
 31 Hg   -0.06074   -0.02058    0.01867
 32 Hg   -0.00000    0.00000   -0.08469
 33 Hg   -0.00876   -0.00506    0.01037
 34 Hg   -0.04518   -0.02609    0.07962
 35 Hg   -0.00000    0.00000   -0.01889
 36 O     0.00000    0.00000    0.11212
 37 H     0.00000    0.00000   -0.02152

BFGS:    5 18:07:17   -12242.930260        0.1121
System changes: positions 

Initializing position-dependent things.

Density initialized from wave functions
                                                              
                                                              
                                                              
                                                              
                                                              
                                                              
                                      H                       
                                      O                       
                                   Hg       Hg       Hg       
                             Hg                Hg             
                                      Hg                      
                      Hg       Hg       Hg                    
                                                              
                         Hg       Hg       Hg                 
                                                              
                   Hg      Hg       Hg                        
            Hg       Hg       Hg       Hg       Hg            
                                                              
                        Hg       Hg      Hg                   
                 Hg       Hg       Hg                         
                                                              
                    Hg       Hg       Hg                      
             Hg       Hg       Hg                             
                                                              
       Hg       Hg       Hg                                   
                                                              
                                                              
                                                              
                                                              

Positions:
   0 Hg     0.000000    0.000000   10.000000    ( 0.0000,  0.0000,  0.0000)
   1 Hg     3.603292    2.080362   12.942076    ( 0.0000,  0.0000,  0.0000)
   2 Hg     1.809013    1.044434   15.886304    ( 0.0000,  0.0000,  0.0000)
   3 Hg     5.404939    3.120543   18.930235    ( 0.0000,  0.0000,  0.0000)
   4 Hg     1.801646    3.120543   10.000000    ( 0.0000,  0.0000,  0.0000)
   5 Hg     5.404939    5.200905   12.942076    ( 0.0000,  0.0000,  0.0000)
   6 Hg     3.616813    4.152917   15.866715    ( 0.0000,  0.0000,  0.0000)
   7 Hg     7.191366    6.267569   18.938926    ( 0.0000,  0.0000,  0.0000)
   8 Hg     3.603292    6.241086   10.000000    ( 0.0000,  0.0000,  0.0000)
   9 Hg     7.206585    8.321447   12.942076    ( 0.0000,  0.0000,  0.0000)
  10 Hg     5.404939    7.272760   15.886304    ( 0.0000,  0.0000,  0.0000)
  11 Hg     8.977686    9.361566   18.938926    ( 0.0000,  0.0000,  0.0000)
  12 Hg     3.603292    0.000000   10.000000    ( 0.0000,  0.0000,  0.0000)
  13 Hg     7.206585    2.080362   12.942076    ( 0.0000,  0.0000,  0.0000)
  14 Hg     5.404939    1.055793   15.866715    ( 0.0000,  0.0000,  0.0000)
  15 Hg     9.023557    3.094121   18.938926    ( 0.0000,  0.0000,  0.0000)
  16 Hg     5.404939    3.120543   10.000000    ( 0.0000,  0.0000,  0.0000)
  17 Hg     9.008231    5.200905   12.942076    ( 0.0000,  0.0000,  0.0000)
  18 Hg     7.193064    4.152917   15.866715    ( 0.0000,  0.0000,  0.0000)
  19 Hg    10.809877    6.241086   18.929682    ( 0.0000,  0.0000,  0.0000)
  20 Hg     7.206585    6.241086   10.000000    ( 0.0000,  0.0000,  0.0000)
  21 Hg    10.809877    8.321447   12.942076    ( 0.0000,  0.0000,  0.0000)
  22 Hg     8.994409    7.289247   15.879143    ( 0.0000,  0.0000,  0.0000)
  23 Hg    12.642068    9.361566   18.938926    ( 0.0000,  0.0000,  0.0000)
  24 Hg     7.206585    0.000000   10.000000    ( 0.0000,  0.0000,  0.0000)
  25 Hg    10.809877    2.080362   12.942076    ( 0.0000,  0.0000,  0.0000)
  26 Hg     9.000864    1.044434   15.886304    ( 0.0000,  0.0000,  0.0000)
  27 Hg    12.596197    3.094121   18.938926    ( 0.0000,  0.0000,  0.0000)
  28 Hg     9.008231    3.120543   10.000000    ( 0.0000,  0.0000,  0.0000)
  29 Hg    12.611524    5.200905   12.942076    ( 0.0000,  0.0000,  0.0000)
  30 Hg    10.809877    4.144763   15.879143    ( 0.0000,  0.0000,  0.0000)
  31 Hg    14.428388    6.267569   18.938926    ( 0.0000,  0.0000,  0.0000)
  32 Hg    10.809877    6.241086   10.000000    ( 0.0000,  0.0000,  0.0000)
  33 Hg    14.413170    8.321447   12.942076    ( 0.0000,  0.0000,  0.0000)
  34 Hg    12.625346    7.289247   15.879143    ( 0.0000,  0.0000,  0.0000)
  35 Hg    16.214816    9.361628   18.940525    ( 0.0000,  0.0000,  0.0000)
  36 O     10.809877    6.241086   21.180457    ( 0.0000,  0.0000,  0.0000)
  37 H     10.809877    6.241086   22.143786    ( 0.0000,  0.0000,  0.0000)

Unit cell:
           periodic     x           y           z      points  spacing
  1. axis:    yes   10.809877    0.000000    0.000000    52     0.1800
  2. axis:    yes    5.404939    9.361628    0.000000    52     0.1800
  3. axis:    no     0.000000    0.000000   28.826228   160     0.1802

  Lengths:  10.809877  10.809877  28.826228
  Angles:   90.000000  90.000000  60.000000

Effective grid spacing dv^(1/3) = 0.1889

     iter     time        total  log10-change:
                         energy  eigst   dens
iter:   1 18:08:41 -12242.925705  -2.95
iter:   2 18:09:28 -12242.928459  -3.84  -3.42
iter:   3 18:10:15 -12242.927700c -4.75  -3.82
iter:   4 18:11:02 -12242.928172c -5.05  -3.92
iter:   5 18:11:49 -12242.929649c -5.13  -4.04c
iter:   6 18:12:36 -12242.928882c -5.25  -4.09c
iter:   7 18:13:23 -12242.928696c -5.84  -4.15c
iter:   8 18:14:10 -12242.928820c -6.22  -4.25c
iter:   9 18:14:57 -12242.928486c -6.52  -4.59c
iter:  10 18:15:44 -12242.928443c -7.06  -4.52c
iter:  11 18:16:31 -12242.928545c -6.31  -4.62c
iter:  12 18:17:18 -12242.928542c -6.74  -4.81c
iter:  13 18:18:05 -12242.928650c -7.33  -4.96c
iter:  14 18:18:52 -12242.928637c -7.68c -5.38c

Converged after 14 iterations.

Dipole moment: (-20.725609, -11.965936, -0.627557) |e|*Ang

Energy contributions relative to reference atoms: (reference = -19195661.376652)

Kinetic:       +2042.808724
Potential:     -1824.995730
External:        +0.000000
XC:            -12373.712592
Entropy (-ST):   -0.279171
Local:          -86.889454
--------------------------
Free energy:   -12243.068222
Extrapolated:  -12242.928637

Showing only first 2 kpts
 Kpt  Band  Eigenvalues  Occupancy
  0   325     -5.43071    1.90269
  0   326     -5.40462    1.87549
  0   327     -5.20321    1.33556
  0   328     -4.24864    0.00029

  1   325     -5.43708    1.90842
  1   326     -5.42200    1.89431
  1   327     -5.21045    1.36727
  1   328     -4.31885    0.00058


Fermi level: -5.13340

Gap: 0.758 eV
Transition (v -> c):
  (s=0, k=4, n=327, [0.38, 0.12, 0.00]) -> (s=0, k=3, n=328, [0.38, -0.12, 0.00])

Forces in eV/Ang:
  0 Hg   -0.00000    0.00000   -0.07954
  1 Hg   -0.01574   -0.00908    0.00551
  2 Hg   -0.00840   -0.00485    0.04452
  3 Hg    0.00000    0.00000    0.05214
  4 Hg   -0.01449   -0.01920   -0.08348
  5 Hg   -0.00000    0.01817    0.00551
  6 Hg   -0.00148    0.00086    0.03641
  7 Hg    0.06176   -0.01975    0.01827
  8 Hg    0.00938    0.02215   -0.08348
  9 Hg    0.00834   -0.00482    0.01075
 10 Hg   -0.00000    0.00970    0.04452
 11 Hg    0.04799   -0.04361    0.01827
 12 Hg   -0.02388   -0.00295   -0.08348
 13 Hg    0.01574   -0.00908    0.00551
 14 Hg    0.00000   -0.00171    0.03641
 15 Hg    0.01378    0.06337    0.01827
 16 Hg    0.00000    0.00000   -0.07728
 17 Hg    0.01630    0.00941    0.02386
 18 Hg    0.00148    0.00086    0.03641
 19 Hg    0.00000    0.00000   -0.26815
 20 Hg   -0.00938    0.02215   -0.08348
 21 Hg    0.00000   -0.01882    0.02386
 22 Hg    0.04327   -0.02498    0.07802
 23 Hg   -0.04799   -0.04361    0.01827
 24 Hg    0.02388   -0.00295   -0.08348
 25 Hg   -0.00000    0.00963    0.01075
 26 Hg    0.00840   -0.00485    0.04452
 27 Hg   -0.01378    0.06337    0.01827
 28 Hg    0.01449   -0.01920   -0.08348
 29 Hg   -0.01630    0.00941    0.02386
 30 Hg   -0.00000    0.04996    0.07802
 31 Hg   -0.06176   -0.01975    0.01827
 32 Hg    0.00000    0.00000   -0.08476
 33 Hg   -0.00834   -0.00482    0.01075
 34 Hg   -0.04327   -0.02498    0.07802
 35 Hg    0.00000    0.00000   -0.02103
 36 O     0.00000    0.00000    0.11487
 37 H     0.00000   -0.00000   -0.01283

BFGS:    6 18:19:05   -12242.928637        0.1149
System changes: positions 

Initializing position-dependent things.

Density initialized from wave functions
                                                              
                                                              
                                                              
                                                              
                                                              
                                                              
                                      H                       
                                      O                       
                                   Hg       Hg       Hg       
                                                              
                             Hg       Hg       Hg             
                                                              
                      Hg       Hg       Hg                    
                         Hg       Hg       Hg                 
                                                              
                   Hg      Hg       Hg                        
                              Hg       Hg       Hg            
            Hg       Hg       Hg                              
                        Hg       Hg      Hg                   
                                                              
                 Hg       Hg       Hg                         
                    Hg       Hg       Hg                      
             Hg       Hg       Hg                             
                                                              
       Hg       Hg       Hg                                   
                                                              
                                                              
                                                              
                                                              

Positions:
   0 Hg     0.000000    0.000000   10.000000    ( 0.0000,  0.0000,  0.0000)
   1 Hg     3.603292    2.080362   12.942076    ( 0.0000,  0.0000,  0.0000)
   2 Hg     1.809013    1.044434   15.886304    ( 0.0000,  0.0000,  0.0000)
   3 Hg     5.404939    3.120543   18.930235    ( 0.0000,  0.0000,  0.0000)
   4 Hg     1.801646    3.120543   10.000000    ( 0.0000,  0.0000,  0.0000)
   5 Hg     5.404939    5.200905   12.942076    ( 0.0000,  0.0000,  0.0000)
   6 Hg     3.616813    4.152917   15.866715    ( 0.0000,  0.0000,  0.0000)
   7 Hg     7.191366    6.267569   18.938926    ( 0.0000,  0.0000,  0.0000)
   8 Hg     3.603292    6.241086   10.000000    ( 0.0000,  0.0000,  0.0000)
   9 Hg     7.206585    8.321447   12.942076    ( 0.0000,  0.0000,  0.0000)
  10 Hg     5.404939    7.272760   15.886304    ( 0.0000,  0.0000,  0.0000)
  11 Hg     8.977686    9.361566   18.938926    ( 0.0000,  0.0000,  0.0000)
  12 Hg     3.603292    0.000000   10.000000    ( 0.0000,  0.0000,  0.0000)
  13 Hg     7.206585    2.080362   12.942076    ( 0.0000,  0.0000,  0.0000)
  14 Hg     5.404939    1.055793   15.866715    ( 0.0000,  0.0000,  0.0000)
  15 Hg     9.023557    3.094121   18.938926    ( 0.0000,  0.0000,  0.0000)
  16 Hg     5.404939    3.120543   10.000000    ( 0.0000,  0.0000,  0.0000)
  17 Hg     9.008231    5.200905   12.942076    ( 0.0000,  0.0000,  0.0000)
  18 Hg     7.193064    4.152917   15.866715    ( 0.0000,  0.0000,  0.0000)
  19 Hg    10.809877    6.241086   18.929682    ( 0.0000,  0.0000,  0.0000)
  20 Hg     7.206585    6.241086   10.000000    ( 0.0000,  0.0000,  0.0000)
  21 Hg    10.809877    8.321447   12.942076    ( 0.0000,  0.0000,  0.0000)
  22 Hg     8.994409    7.289247   15.879143    ( 0.0000,  0.0000,  0.0000)
  23 Hg    12.642068    9.361566   18.938926    ( 0.0000,  0.0000,  0.0000)
  24 Hg     7.206585    0.000000   10.000000    ( 0.0000,  0.0000,  0.0000)
  25 Hg    10.809877    2.080362   12.942076    ( 0.0000,  0.0000,  0.0000)
  26 Hg     9.000864    1.044434   15.886304    ( 0.0000,  0.0000,  0.0000)
  27 Hg    12.596197    3.094121   18.938926    ( 0.0000,  0.0000,  0.0000)
  28 Hg     9.008231    3.120543   10.000000    ( 0.0000,  0.0000,  0.0000)
  29 Hg    12.611524    5.200905   12.942076    ( 0.0000,  0.0000,  0.0000)
  30 Hg    10.809877    4.144763   15.879143    ( 0.0000,  0.0000,  0.0000)
  31 Hg    14.428388    6.267569   18.938926    ( 0.0000,  0.0000,  0.0000)
  32 Hg    10.809877    6.241086   10.000000    ( 0.0000,  0.0000,  0.0000)
  33 Hg    14.413170    8.321447   12.942076    ( 0.0000,  0.0000,  0.0000)
  34 Hg    12.625346    7.289247   15.879143    ( 0.0000,  0.0000,  0.0000)
  35 Hg    16.214816    9.361628   18.940525    ( 0.0000,  0.0000,  0.0000)
  36 O     10.809877    6.241086   21.380274    ( 0.0000,  0.0000,  0.0000)
  37 H     10.809877    6.241086   22.343786    ( 0.0000,  0.0000,  0.0000)

Unit cell:
           periodic     x           y           z      points  spacing
  1. axis:    yes   10.809877    0.000000    0.000000    52     0.1800
  2. axis:    yes    5.404939    9.361628    0.000000    52     0.1800
  3. axis:    no     0.000000    0.000000   28.826228   160     0.1802

  Lengths:  10.809877  10.809877  28.826228
  Angles:   90.000000  90.000000  60.000000

Effective grid spacing dv^(1/3) = 0.1889

     iter     time        total  log10-change:
                         energy  eigst   dens
iter:   1 18:20:28 -12246.006074  -1.49
iter:   2 18:21:16 -12243.856611  -1.48  -1.95
iter:   3 18:22:03 -12243.371386  -2.91  -2.39
iter:   4 18:22:49 -12242.914323  -2.71  -2.58
iter:   5 18:23:36 -12242.906284  -3.04  -2.98
iter:   6 18:24:24 -12243.054760c -2.95  -3.04
iter:   7 18:25:11 -12243.184869c -2.62  -2.70
iter:   8 18:25:58 -12243.074963c -3.55  -2.73
iter:   9 18:26:45 -12243.006832c -2.87  -2.86
iter:  10 18:27:32 -12242.912557c -3.28  -2.78
iter:  11 18:28:19 -12242.903647c -4.80  -3.19
iter:  12 18:29:06 -12242.920927c -4.48  -3.41
iter:  13 18:29:53 -12242.917419c -4.92  -3.17
iter:  14 18:30:40 -12242.902684c -4.66  -3.18
iter:  15 18:31:27 -12242.897999c -4.64  -3.41
iter:  16 18:32:14 -12242.906252c -4.21  -3.48
iter:  17 18:33:01 -12242.895254c -4.66  -3.36
iter:  18 18:33:48 -12242.895163c -5.57  -3.91
iter:  19 18:34:35 -12242.895032c -5.73  -4.04c
iter:  20 18:35:22 -12242.895126c -5.46  -4.06c
iter:  21 18:36:09 -12242.895020c -6.08  -4.39c
iter:  22 18:36:56 -12242.895035c -7.00  -4.56c
iter:  23 18:37:43 -12242.895028c -6.89  -4.63c
iter:  24 18:38:30 -12242.895047c -6.99  -4.86c
iter:  25 18:39:17 -12242.895047c -7.78c -4.89c

Converged after 25 iterations.

Dipole moment: (-20.753157, -11.981841, -0.719983) |e|*Ang

Energy contributions relative to reference atoms: (reference = -19195661.376652)

Kinetic:       +2042.292990
Potential:     -1824.857958
External:        +0.000000
XC:            -12373.272474
Entropy (-ST):   -0.314807
Local:          -86.900202
--------------------------
Free energy:   -12243.052450
Extrapolated:  -12242.895047

Showing only first 2 kpts
 Kpt  Band  Eigenvalues  Occupancy
  0   325     -5.44243    1.83347
  0   326     -5.42505    1.80494
  0   327     -5.32175    1.53419
  0   328     -4.30168    0.00024

  1   325     -5.44728    1.84073
  1   326     -5.42902    1.81182
  1   327     -5.33171    1.56885
  1   328     -4.37386    0.00050


Fermi level: -5.20255

Gap: 0.825 eV
Transition (v -> c):
  (s=0, k=4, n=327, [0.38, 0.12, 0.00]) -> (s=0, k=3, n=328, [0.38, -0.12, 0.00])

Forces in eV/Ang:
  0 Hg    0.00000    0.00000   -0.08170
  1 Hg   -0.01601   -0.00925    0.00290
  2 Hg   -0.01038   -0.00599    0.04719
  3 Hg    0.00000    0.00000    0.04207
  4 Hg   -0.01476   -0.01924   -0.08454
  5 Hg   -0.00000    0.01849    0.00290
  6 Hg    0.00857   -0.00495    0.03674
  7 Hg    0.05732   -0.01426    0.01797
  8 Hg    0.00928    0.02240   -0.08454
  9 Hg    0.00692   -0.00399    0.00740
 10 Hg   -0.00000    0.01198    0.04719
 11 Hg    0.04101   -0.04251    0.01797
 12 Hg   -0.02404   -0.00317   -0.08454
 13 Hg    0.01601   -0.00925    0.00290
 14 Hg   -0.00000    0.00990    0.03674
 15 Hg    0.01630    0.05677    0.01797
 16 Hg   -0.00000    0.00000   -0.07946
 17 Hg    0.01557    0.00899    0.01760
 18 Hg   -0.00857   -0.00495    0.03674
 19 Hg    0.00000    0.00000   -0.00653
 20 Hg   -0.00928    0.02240   -0.08454
 21 Hg    0.00000   -0.01798    0.01760
 22 Hg    0.02542   -0.01468    0.06117
 23 Hg   -0.04101   -0.04251    0.01797
 24 Hg    0.02404   -0.00317   -0.08454
 25 Hg   -0.00000    0.00799    0.00740
 26 Hg    0.01038   -0.00599    0.04719
 27 Hg   -0.01630    0.05677    0.01797
 28 Hg    0.01476   -0.01924   -0.08454
 29 Hg   -0.01557    0.00899    0.01760
 30 Hg   -0.00000    0.02936    0.06117
 31 Hg   -0.05732   -0.01426    0.01797
 32 Hg    0.00000    0.00000   -0.08701
 33 Hg   -0.00692   -0.00399    0.00740
 34 Hg   -0.02542   -0.01468    0.06117
 35 Hg    0.00000    0.00000   -0.03165
 36 O     0.00000   -0.00000   -0.27991
 37 H     0.00000    0.00000    0.10699

BFGS:    7 18:39:30   -12242.895047        0.2799
System changes: positions 

Initializing position-dependent things.

Density initialized from wave functions
                                                              
                                                              
                                                              
                                                              
                                                              
                                                              
                                      H                       
                                      O                       
                                   Hg       Hg       Hg       
                                                              
                             Hg       Hg       Hg             
                      Hg       Hg       Hg                    
                                                              
                         Hg       Hg       Hg                 
                                                              
                   Hg      Hg       Hg                        
            Hg       Hg       Hg       Hg       Hg            
                                                              
                        Hg       Hg      Hg                   
                 Hg       Hg       Hg                         
                                                              
                    Hg       Hg       Hg                      
             Hg       Hg       Hg                             
                                                              
       Hg       Hg       Hg                                   
                                                              
                                                              
                                                              
                                                              

Positions:
   0 Hg     0.000000    0.000000   10.000000    ( 0.0000,  0.0000,  0.0000)
   1 Hg     3.603292    2.080362   12.942076    ( 0.0000,  0.0000,  0.0000)
   2 Hg     1.809013    1.044434   15.886304    ( 0.0000,  0.0000,  0.0000)
   3 Hg     5.404939    3.120543   18.930235    ( 0.0000,  0.0000,  0.0000)
   4 Hg     1.801646    3.120543   10.000000    ( 0.0000,  0.0000,  0.0000)
   5 Hg     5.404939    5.200905   12.942076    ( 0.0000,  0.0000,  0.0000)
   6 Hg     3.616813    4.152917   15.866715    ( 0.0000,  0.0000,  0.0000)
   7 Hg     7.191366    6.267569   18.938926    ( 0.0000,  0.0000,  0.0000)
   8 Hg     3.603292    6.241086   10.000000    ( 0.0000,  0.0000,  0.0000)
   9 Hg     7.206585    8.321447   12.942076    ( 0.0000,  0.0000,  0.0000)
  10 Hg     5.404939    7.272760   15.886304    ( 0.0000,  0.0000,  0.0000)
[...]
  1. axis:    yes   10.809877    0.000000    0.000000    52     0.1800
  2. axis:    yes    5.404939    9.361628    0.000000    52     0.1800
  3. axis:    no     0.000000    0.000000   28.826228   160     0.1802

  Lengths:  10.809877  10.809877  28.826228
  Angles:   90.000000  90.000000  60.000000

Effective grid spacing dv^(1/3) = 0.1889

     iter     time        total  log10-change:
                         energy  eigst   dens
iter:   1 19:46:07 -12243.205695  -1.48
iter:   2 19:46:54 -12242.975122  -2.38  -2.56
iter:   3 19:47:41 -12242.958849c -3.23  -2.98
iter:   4 19:48:28 -12242.919067c -3.28  -3.08
iter:   5 19:49:15 -12242.919257c -3.75  -3.13
iter:   6 19:50:03 -12242.930761c -3.70  -3.16
iter:   7 19:50:50 -12242.924157c -4.43  -3.33
iter:   8 19:51:37 -12242.920240c -4.51  -3.47
iter:   9 19:52:24 -12242.924212c -4.85  -3.69
iter:  10 19:53:11 -12242.922594c -5.69  -3.79
iter:  11 19:53:58 -12242.922542c -5.20  -3.88
iter:  12 19:54:45 -12242.923901c -5.41  -4.07c
iter:  13 19:55:32 -12242.923744c -6.08  -4.17c
iter:  14 19:56:19 -12242.923646c -6.32  -4.24c
iter:  15 19:57:06 -12242.923485c -6.38  -4.52c
iter:  16 19:57:53 -12242.923398c -6.75  -4.53c
iter:  17 19:58:40 -12242.923468c -7.16  -4.56c
iter:  18 19:59:27 -12242.923419c -7.10  -4.77c
iter:  19 20:00:14 -12242.923474c -7.18  -4.89c
iter:  20 20:01:01 -12242.923388c -7.23  -4.92c
iter:  21 20:01:48 -12242.923379c -7.64c -4.99c

Converged after 21 iterations.

Dipole moment: (-20.690570, -11.945706, -0.561666) |e|*Ang

Energy contributions relative to reference atoms: (reference = -19195661.376652)

Kinetic:       +2043.942778
Potential:     -1825.771687
External:        +0.000000
XC:            -12374.095858
Entropy (-ST):   -0.242416
Local:          -86.877405
--------------------------
Free energy:   -12243.044587
Extrapolated:  -12242.923379

Showing only first 2 kpts
 Kpt  Band  Eigenvalues  Occupancy
  0   325     -5.45062    1.95152
  0   326     -5.39234    1.91480
  0   327     -5.12172    1.20032
  0   328     -4.21104    0.00033

  1   325     -5.45012    1.95128
  1   326     -5.44540    1.94899
  1   327     -5.12866    1.23340
  1   328     -4.27949    0.00066


Fermi level: -5.08110

Gap: 0.711 eV
Transition (v -> c):
  (s=0, k=4, n=327, [0.38, 0.12, 0.00]) -> (s=0, k=3, n=328, [0.38, -0.12, 0.00])

Forces in eV/Ang:
  0 Hg   -0.00000    0.00000   -0.07976
  1 Hg   -0.01609   -0.00929    0.00821
  2 Hg   -0.00751   -0.00434    0.04643
  3 Hg    0.00000    0.00000    0.06110
  4 Hg   -0.01446   -0.01849   -0.08373
  5 Hg   -0.00000    0.01858    0.00821
  6 Hg   -0.00656    0.00379    0.03882
  7 Hg    0.05771   -0.02329    0.02033
  8 Hg    0.00878    0.02176   -0.08373
  9 Hg    0.00957   -0.00552    0.01355
 10 Hg   -0.00000    0.00867    0.04643
 11 Hg    0.04903   -0.03833    0.02033
 12 Hg   -0.02324   -0.00328   -0.08373
 13 Hg    0.01609   -0.00929    0.00821
 14 Hg    0.00000   -0.00757    0.03882
 15 Hg    0.00868    0.06162    0.02033
 16 Hg    0.00000    0.00000   -0.07743
 17 Hg    0.01740    0.01004    0.02862
 18 Hg    0.00656    0.00379    0.03882
 19 Hg    0.00000    0.00000   -0.66009
 20 Hg   -0.00878    0.02176   -0.08373
 21 Hg    0.00000   -0.02009    0.02862
 22 Hg    0.04999   -0.02886    0.08835
 23 Hg   -0.04903   -0.03833    0.02033
 24 Hg    0.02324   -0.00328   -0.08373
 25 Hg   -0.00000    0.01105    0.01355
 26 Hg    0.00751   -0.00434    0.04643
 27 Hg   -0.00868    0.06162    0.02033
 28 Hg    0.01446   -0.01849   -0.08373
 29 Hg   -0.01740    0.01004    0.02862
 30 Hg   -0.00000    0.05772    0.08835
 31 Hg   -0.05771   -0.02329    0.02033
 32 Hg    0.00000    0.00000   -0.08254
 33 Hg   -0.00957   -0.00552    0.01355
 34 Hg   -0.04999   -0.02886    0.08835
 35 Hg   -0.00000    0.00000   -0.01264
 36 O     0.00000   -0.00000    0.40663
 37 H     0.00000   -0.00000    0.00276

BFGS:   13 20:02:01   -12242.923379        0.4066
System changes: positions 

Initializing position-dependent things.

Density initialized from wave functions
                                                              
                                                              
                                                              
                                                              
                                                              
                                                              
                                      H                       
                                      O                       
                                   Hg       Hg       Hg       
                                                              
                             Hg       Hg       Hg             
                      Hg       Hg       Hg                    
                                                              
                         Hg       Hg       Hg                 
                                                              
                   Hg      Hg       Hg                        
            Hg       Hg       Hg       Hg       Hg            
                                                              
                        Hg       Hg      Hg                   
                 Hg       Hg       Hg                         
                                                              
                    Hg       Hg       Hg                      
             Hg       Hg       Hg                             
                                                              
       Hg       Hg       Hg                                   
                                                              
                                                              
                                                              
                                                              

Positions:
   0 Hg     0.000000    0.000000   10.000000    ( 0.0000,  0.0000,  0.0000)
   1 Hg     3.603292    2.080362   12.942076    ( 0.0000,  0.0000,  0.0000)
   2 Hg     1.809013    1.044434   15.886304    ( 0.0000,  0.0000,  0.0000)
   3 Hg     5.404939    3.120543   18.930235    ( 0.0000,  0.0000,  0.0000)
   4 Hg     1.801646    3.120543   10.000000    ( 0.0000,  0.0000,  0.0000)
   5 Hg     5.404939    5.200905   12.942076    ( 0.0000,  0.0000,  0.0000)
   6 Hg     3.616813    4.152917   15.866715    ( 0.0000,  0.0000,  0.0000)
   7 Hg     7.191366    6.267569   18.938926    ( 0.0000,  0.0000,  0.0000)
   8 Hg     3.603292    6.241086   10.000000    ( 0.0000,  0.0000,  0.0000)
   9 Hg     7.206585    8.321447   12.942076    ( 0.0000,  0.0000,  0.0000)
  10 Hg     5.404939    7.272760   15.886304    ( 0.0000,  0.0000,  0.0000)
  11 Hg     8.977686    9.361566   18.938926    ( 0.0000,  0.0000,  0.0000)
  12 Hg     3.603292    0.000000   10.000000    ( 0.0000,  0.0000,  0.0000)
  13 Hg     7.206585    2.080362   12.942076    ( 0.0000,  0.0000,  0.0000)
  14 Hg     5.404939    1.055793   15.866715    ( 0.0000,  0.0000,  0.0000)
  15 Hg     9.023557    3.094121   18.938926    ( 0.0000,  0.0000,  0.0000)
  16 Hg     5.404939    3.120543   10.000000    ( 0.0000,  0.0000,  0.0000)
  17 Hg     9.008231    5.200905   12.942076    ( 0.0000,  0.0000,  0.0000)
  18 Hg     7.193064    4.152917   15.866715    ( 0.0000,  0.0000,  0.0000)
  19 Hg    10.809877    6.241086   18.929682    ( 0.0000,  0.0000,  0.0000)
  20 Hg     7.206585    6.241086   10.000000    ( 0.0000,  0.0000,  0.0000)
  21 Hg    10.809877    8.321447   12.942076    ( 0.0000,  0.0000,  0.0000)
  22 Hg     8.994409    7.289247   15.879143    ( 0.0000,  0.0000,  0.0000)
  23 Hg    12.642068    9.361566   18.938926    ( 0.0000,  0.0000,  0.0000)
  24 Hg     7.206585    0.000000   10.000000    ( 0.0000,  0.0000,  0.0000)
  25 Hg    10.809877    2.080362   12.942076    ( 0.0000,  0.0000,  0.0000)
  26 Hg     9.000864    1.044434   15.886304    ( 0.0000,  0.0000,  0.0000)
  27 Hg    12.596197    3.094121   18.938926    ( 0.0000,  0.0000,  0.0000)
  28 Hg     9.008231    3.120543   10.000000    ( 0.0000,  0.0000,  0.0000)
  29 Hg    12.611524    5.200905   12.942076    ( 0.0000,  0.0000,  0.0000)
  30 Hg    10.809877    4.144763   15.879143    ( 0.0000,  0.0000,  0.0000)
  31 Hg    14.428388    6.267569   18.938926    ( 0.0000,  0.0000,  0.0000)
  32 Hg    10.809877    6.241086   10.000000    ( 0.0000,  0.0000,  0.0000)
  33 Hg    14.413170    8.321447   12.942076    ( 0.0000,  0.0000,  0.0000)
  34 Hg    12.625346    7.289247   15.879143    ( 0.0000,  0.0000,  0.0000)
  35 Hg    16.214816    9.361628   18.940525    ( 0.0000,  0.0000,  0.0000)
  36 O     10.809877    6.241086   21.204052    ( 0.0000,  0.0000,  0.0000)
  37 H     10.809877    6.241086   22.167254    ( 0.0000,  0.0000,  0.0000)

Unit cell:
           periodic     x           y           z      points  spacing
  1. axis:    yes   10.809877    0.000000    0.000000    52     0.1800
  2. axis:    yes    5.404939    9.361628    0.000000    52     0.1800
  3. axis:    no     0.000000    0.000000   28.826228   160     0.1802

  Lengths:  10.809877  10.809877  28.826228
  Angles:   90.000000  90.000000  60.000000

Effective grid spacing dv^(1/3) = 0.1889

     iter     time        total  log10-change:
                         energy  eigst   dens
iter:   1 20:03:25 -12243.329841  -1.66
iter:   2 20:04:12 -12242.956471  -2.34  -2.50
iter:   3 20:04:59 -12242.936809  -3.44  -3.04
iter:   4 20:05:46 -12242.927300c -3.73  -3.23
iter:   5 20:06:33 -12242.942231c -3.56  -3.29
iter:   6 20:07:20 -12242.925042c -3.81  -3.28
iter:   7 20:08:07 -12242.926148c -4.01  -3.44
iter:   8 20:08:54 -12242.928894c -4.68  -3.44
iter:   9 20:09:41 -12242.927184c -5.31  -3.83
iter:  10 20:10:28 -12242.928110c -5.27  -3.83
iter:  11 20:11:15 -12242.926678c -5.21  -4.05c
iter:  12 20:12:02 -12242.926563c -5.58  -4.16c
iter:  13 20:12:49 -12242.926506c -6.20  -4.22c
iter:  14 20:13:35 -12242.926640c -6.05  -4.33c
iter:  15 20:14:22 -12242.926659c -6.67  -4.86c
iter:  16 20:15:09 -12242.926662c -7.28  -4.81c
iter:  17 20:15:56 -12242.926673c -7.75c -5.06c

Converged after 17 iterations.

Dipole moment: (-20.730625, -11.968832, -0.639710) |e|*Ang

Energy contributions relative to reference atoms: (reference = -19195661.376652)

Kinetic:       +2042.486948
Potential:     -1824.738814
External:        +0.000000
XC:            -12373.642673
Entropy (-ST):   -0.285267
Local:          -86.889501
--------------------------
Free energy:   -12243.069306
Extrapolated:  -12242.926673

Showing only first 2 kpts
 Kpt  Band  Eigenvalues  Occupancy
  0   325     -5.42979    1.89285
  0   326     -5.40630    1.86637
  0   327     -5.21865    1.36278
  0   328     -4.25542    0.00028

  1   325     -5.43626    1.89923
  1   326     -5.42024    1.88274
  1   327     -5.22603    1.39442
  1   328     -4.32593    0.00057


Fermi level: -5.14263

Gap: 0.767 eV
Transition (v -> c):
  (s=0, k=4, n=327, [0.38, 0.12, 0.00]) -> (s=0, k=3, n=328, [0.38, -0.12, 0.00])

Forces in eV/Ang:
  0 Hg    0.00000    0.00000   -0.07958
  1 Hg   -0.01567   -0.00905    0.00665
  2 Hg   -0.00918   -0.00530    0.04604
  3 Hg   -0.00000    0.00000    0.05079
  4 Hg   -0.01477   -0.01858   -0.08315
  5 Hg   -0.00000    0.01809    0.00665
  6 Hg    0.00142   -0.00082    0.03803
  7 Hg    0.05955   -0.01897    0.01867
  8 Hg    0.00870    0.02208   -0.08315
  9 Hg    0.00883   -0.00510    0.01186
 10 Hg   -0.00000    0.01060    0.04604
 11 Hg    0.04620   -0.04209    0.01867
 12 Hg   -0.02347   -0.00350   -0.08315
 13 Hg    0.01567   -0.00905    0.00665
 14 Hg   -0.00000    0.00164    0.03803
 15 Hg    0.01335    0.06105    0.01867
 16 Hg   -0.00000    0.00000   -0.07751
 17 Hg    0.01648    0.00951    0.02257
 18 Hg   -0.00142   -0.00082    0.03803
 19 Hg   -0.00000    0.00000   -0.21380
 20 Hg   -0.00870    0.02208   -0.08315
 21 Hg    0.00000   -0.01903    0.02257
 22 Hg    0.04021   -0.02322    0.07773
 23 Hg   -0.04620   -0.04209    0.01867
 24 Hg    0.02347   -0.00350   -0.08315
 25 Hg   -0.00000    0.01019    0.01186
 26 Hg    0.00918   -0.00530    0.04604
 27 Hg   -0.01335    0.06105    0.01867
 28 Hg    0.01477   -0.01858   -0.08315
 29 Hg   -0.01648    0.00951    0.02257
 30 Hg   -0.00000    0.04643    0.07773
 31 Hg   -0.05955   -0.01897    0.01867
 32 Hg    0.00000    0.00000   -0.08404
 33 Hg   -0.00883   -0.00510    0.01186
 34 Hg   -0.04021   -0.02322    0.07773
 35 Hg    0.00000    0.00000   -0.02233
 36 O    -0.00000    0.00000   -0.00294
 37 H     0.00000    0.00000    0.01336

BFGS:   14 20:16:09   -12242.926673        0.0134
Timing:                                      incl.     excl.
-------------------------------------------------------------------
Density initialized from wave functions:     6.455     4.360   0.0% |
 Symmetrize density:                         2.095     2.095   0.0% |
Forces:                                    196.866   196.866   1.5% ||
Hamiltonian:                                73.096     0.002   0.0% |
 Atomic:                                     0.004     0.004   0.0% |
  XC Correction:                             0.000     0.000   0.0% |
 Calculate atomic Hamiltonians:              0.005     0.005   0.0% |
 Communicate:                                2.851     2.851   0.0% |
 Hartree integrate/restrict:                 0.071     0.071   0.0% |
 Initialize Hamiltonian:                     0.000     0.000   0.0% |
 Poisson:                                    1.456     0.057   0.0% |
  Communicate from 1D:                       0.264     0.264   0.0% |
  Communicate from 2D:                       0.213     0.213   0.0% |
  Communicate to 1D:                         0.206     0.206   0.0% |
  Communicate to 2D:                         0.279     0.279   0.0% |
  FFT 1D:                                    0.156     0.156   0.0% |
  FFT 2D:                                    0.281     0.281   0.0% |
 XC 3D grid:                                68.555     6.186   0.0% |
  VdW-DF integral:                          62.369     0.694   0.0% |
   Convolution:                              7.471     7.471   0.1% |
   FFT:                                      4.405     4.405   0.0% |
   gather:                                  17.105    17.105   0.1% |
   hmm1:                                     1.219     1.219   0.0% |
   hmm2:                                     2.502     2.502   0.0% |
   iFFT:                                     4.497     4.497   0.0% |
   potential:                               20.006     0.311   0.0% |
    collect:                                 1.966     1.966   0.0% |
    p1:                                     11.628    11.628   0.1% |
    p2:                                      3.870     3.870   0.0% |
    sum:                                     2.230     2.230   0.0% |
   splines:                                  4.470     4.470   0.0% |
 vbar:                                       0.151     0.151   0.0% |
LCAO initialization:                        24.105     1.430   0.0% |
 LCAO eigensolver:                           4.541     0.014   0.0% |
  Calculate projections:                     0.000     0.000   0.0% |
  DenseAtomicCorrection:                     0.000     0.000   0.0% |
  Distribute overlap matrix:                 1.893     1.893   0.0% |
  Orbital Layouts:                           2.131     2.131   0.0% |
  Potential matrix:                          0.013     0.013   0.0% |
  Sum over cells:                            0.490     0.490   0.0% |
 LCAO to grid:                              17.146    17.146   0.1% |
 Set positions (LCAO WFS):                   0.988     0.779   0.0% |
  Basic WFS set positions:                   0.007     0.007   0.0% |
  Basis functions set positions:             0.000     0.000   0.0% |
  P tci:                                     0.001     0.001   0.0% |
  ST tci:                                    0.139     0.139   0.0% |
  mktci:                                     0.063     0.063   0.0% |
Redistribute:                                0.012     0.012   0.0% |
SCF-cycle:                               12180.656   290.369   2.2% ||
 Davidson:                               10654.606  2059.595  15.9% |-----|
  Apply hamiltonian:                       360.663   360.663   2.8% ||
  Subspace diag:                          1594.656     0.106   0.0% |
   calc_h_matrix:                          761.265   431.955   3.3% ||
    Apply hamiltonian:                     329.310   329.310   2.5% ||
   diagonalize:                             69.120    69.120   0.5% |
   rotate_psi:                             764.164   764.164   5.9% |-|
  calc. matrices:                         4508.354  2983.085  23.1% |--------|
   Apply hamiltonian:                     1525.269  1525.269  11.8% |----|
  diagonalize:                             558.320   558.320   4.3% |-|
  rotate_psi:                             1573.017  1573.017  12.2% |----|
 Density:                                   59.452     0.006   0.0% |
  Atomic density matrices:                   3.911     3.911   0.0% |
  Mix:                                       1.976     1.976   0.0% |
  Multipole moments:                         0.051     0.051   0.0% |
  Pseudo density:                           53.508    16.904   0.1% |
   Symmetrize density:                      36.604    36.604   0.3% |
 Hamiltonian:                             1113.213     0.034   0.0% |
  Atomic:                                    0.067     0.066   0.0% |
   XC Correction:                            0.001     0.001   0.0% |
  Calculate atomic Hamiltonians:             0.086     0.086   0.0% |
  Communicate:                              46.386    46.386   0.4% |
  Hartree integrate/restrict:                1.133     1.133   0.0% |
  Poisson:                                  23.625     0.883   0.0% |
   Communicate from 1D:                      4.281     4.281   0.0% |
   Communicate from 2D:                      3.464     3.464   0.0% |
   Communicate to 1D:                        3.330     3.330   0.0% |
   Communicate to 2D:                        4.532     4.532   0.0% |
   FFT 1D:                                   2.546     2.546   0.0% |
   FFT 2D:                                   4.589     4.589   0.0% |
  XC 3D grid:                             1041.584    98.698   0.8% |
   VdW-DF integral:                        942.886    11.260   0.1% |
    Convolution:                           121.600   121.600   0.9% |
    FFT:                                    71.882    71.882   0.6% |
    gather:                                278.160   278.160   2.2% ||
    hmm1:                                   19.910    19.910   0.2% |
    hmm2:                                   40.595    40.595   0.3% |
    iFFT:                                   73.409    73.409   0.6% |
    potential:                             326.069     5.051   0.0% |
     collect:                               31.123    31.123   0.2% |
     p1:                                   189.514   189.514   1.5% ||
     p2:                                    63.022    63.022   0.5% |
     sum:                                   37.359    37.359   0.3% |
    splines:                                 0.001     0.001   0.0% |
  vbar:                                      0.297     0.297   0.0% |
 Orthonormalize:                            63.015     0.012   0.0% |
  calc_s_matrix:                            11.782    11.782   0.1% |
  inverse-cholesky:                         28.767    28.767   0.2% |
  projections:                               0.003     0.003   0.0% |
  rotate_psi_s:                             22.452    22.452   0.2% |
Set symmetry:                                0.004     0.004   0.0% |
Other:                                     446.107   446.107   3.5% ||
-------------------------------------------------------------------
Total:                                             12927.301 100.0%

Memory usage: 1.92 GiB
Date: Tue Oct  3 20:16:11 2023
