
  ___ ___ ___ _ _ _  
 |   |   |_  | | | | 
 | | | | | . | | | | 
 |__ |  _|___|_____|  22.8.0
 |___|_|             

User:   s204775@a073.nifl.fysik.dtu.dk
Date:   Tue Sep 26 11:36:58 2023
Arch:   x86_64
Pid:    215034
CWD:    /home/cat/s204775/projects/Bachelor_project/OH_missing_features
Python: 3.10.4
gpaw:   /home/modules/software/GPAW/22.8.0-intel-2022a/lib/python3.10/site-packages/gpaw
_gpaw:  /home/modules/software/GPAW/22.8.0-intel-2022a/lib/python3.10/site-packages/
        _gpaw.cpython-310-x86_64-linux-gnu.so
ase:    /home/modules/software/ASE/3.22.1-intel-2022a/lib/python3.10/site-packages/ase (version 3.22.1)
numpy:  /home/modules/software/SciPy-bundle/2022.05-intel-2022a/lib/python3.10/site-packages/numpy (version 1.22.3)
scipy:  /home/modules/software/SciPy-bundle/2022.05-intel-2022a/lib/python3.10/site-packages/scipy (version 1.8.1)
libxc:  5.2.3
units:  Angstrom and eV
cores: 40
OpenMP: False
OMP_NUM_THREADS: 1

Input parameters:
  basis: dzp
  h: 0.18
  kpts: {size: (4, 4, 1)}
  xc: BEEF-vdW

System changes: positions, numbers, cell, pbc, initial_charges, initial_magmoms 

Initialize ...

species:
  In:
    name: Indium
    id: 4115a36869ad701825fde81bee9eb9d4
    Z: 49.0
    valence: 13
    core: 36
    charge: 0.0
    file: /home/modules/software/GPAW-setups/0.9.20000/In.PBE.gz
    compensation charges: {type: gauss,
                           rc: 0.36,
                           lmax: 2}
    cutoffs: {filter: 2.09,
              core: 2.48}
    valence states:
      #              energy  rcut
      - 5s(2.00)    -8.203   1.185
      - 5p(1.00)    -2.521   1.244
      - 4d(10.00)   -18.629   1.148
      -  s          19.008   1.185
      -  p          24.691   1.244
      -  d           8.583   1.148
  
    # LCAO basis set for In:
    #   Name: dzp
    #   File: /home/modules/software/GPAW-setups/0.9.20000/In.dzp.basis.gz
    #   Number of radial functions: 7
    #   Number of spherical harmonics: 23
    #     l=0, rc=7.7188 Bohr: 5s-sz confined orbital
    #     l=1, rc=10.7500 Bohr: 5p-sz confined orbital
    #     l=2, rc=4.4219 Bohr: 4d-sz confined orbital
    #     l=0, rc=4.5312 Bohr: 5s-dz split-valence wave
    #     l=1, rc=6.4688 Bohr: 5p-dz split-valence wave
    #     l=2, rc=2.7344 Bohr: 4d-dz split-valence wave
    #     l=2, rc=10.7500 Bohr: d-type Gaussian polarization
    #   Number of RI-basis functions 0

  O:
    name: Oxygen
    id: 32ecd46bf208036f09c70b0ec9a88b78
    Z: 8.0
    valence: 6
    core: 2
    charge: 0.0
    file: /home/modules/software/GPAW-setups/0.9.20000/O.PBE.gz
    compensation charges: {type: gauss,
                           rc: 0.21,
                           lmax: 2}
    cutoffs: {filter: 1.17,
              core: 0.83}
    valence states:
      #              energy  rcut
      - 2s(2.00)   -23.961   0.688
      - 2p(4.00)    -9.029   0.598
      -  s           3.251   0.688
      -  p          18.182   0.598
      -  d           0.000   0.619
  
    # LCAO basis set for O:
    #   Name: dzp
    #   File: /home/modules/software/GPAW-setups/0.9.20000/O.dzp.basis.gz
    #   Number of radial functions: 5
    #   Number of spherical harmonics: 13
    #     l=0, rc=4.3438 Bohr: 2s-sz confined orbital
    #     l=1, rc=5.3906 Bohr: 2p-sz confined orbital
    #     l=0, rc=2.2969 Bohr: 2s-dz split-valence wave
    #     l=1, rc=2.8906 Bohr: 2p-dz split-valence wave
    #     l=2, rc=5.3906 Bohr: d-type Gaussian polarization
    #   Number of RI-basis functions 0

  H:
    name: Hydrogen
    id: d65de229564ff8ea4db303e23b6d1ecf
    Z: 1.0
    valence: 1
    core: 0
    charge: 0.0
    file: /home/modules/software/GPAW-setups/0.9.20000/H.PBE.gz
    compensation charges: {type: gauss,
                           rc: 0.15,
                           lmax: 2}
    cutoffs: {filter: 0.85,
              core: 0.53}
    valence states:
      #              energy  rcut
      - 1s(1.00)    -6.494   0.476
      -  s          20.717   0.476
      -  p           0.000   0.476
  
    # LCAO basis set for H:
    #   Name: dzp
    #   File: /home/modules/software/GPAW-setups/0.9.20000/H.dzp.basis.gz
    #   Number of radial functions: 3
    #   Number of spherical harmonics: 5
    #     l=0, rc=6.4219 Bohr: 1s-sz confined orbital
    #     l=0, rc=3.6094 Bohr: 1s-dz split-valence wave
    #     l=1, rc=6.4219 Bohr: p-type Gaussian polarization
    #   Number of RI-basis functions 0

Reference energy: -5761168.450229  # eV

Spin-paired calculation

Convergence criteria:
 Maximum [total energy] change in last 3 cyles: 0.0005 eV / electron
 Maximum integral of absolute [dens]ity change: 0.0001 electrons / valence electron
 Maximum integral of absolute [eigenst]ate change: 4e-08 eV^2 / valence electron
 Maximum number of scf [iter]ations: 333
 (Square brackets indicate name in SCF output, whereas a 'c' in
 the SCF output indicates the quantity has converged.)

Symmetries present (total): 1

  ( 1  0  0)
  ( 0  1  0)
  ( 0  0  1)

16 k-points: 4 x 4 x 1 Monkhorst-Pack grid
8 k-points in the irreducible part of the Brillouin zone
       k-points in crystal coordinates                weights
   0:     0.12500000   -0.37500000    0.00000000          2/16
   1:     0.12500000   -0.12500000    0.00000000          2/16
   2:     0.12500000    0.12500000    0.00000000          2/16
   3:     0.12500000    0.37500000    0.00000000          2/16
   4:     0.37500000   -0.37500000    0.00000000          2/16
   5:     0.37500000   -0.12500000    0.00000000          2/16
   6:     0.37500000    0.12500000    0.00000000          2/16
   7:     0.37500000    0.37500000    0.00000000          2/16

Wave functions: Uniform real-space grid
  Kinetic energy operator: 8*3+1=25 point O(h^6) finite-difference Laplacian
  ScaLapack parameters: grid=1x1, blocksize=None
  Wavefunction extrapolation:
    Improved wavefunction reuse through dual PAW basis 

Occupation numbers: Fermi-Dirac:
  width: 0.1000  # eV
 

Eigensolver
   Davidson(niter=2) 

Densities:
  Coarse grid: 48*48*156 grid
  Fine grid: 96*96*312 grid
  Total Charge: 0.000000 

Density mixing:
  Method: separate
  Backend: pulay
  Linear mixing parameter: 0.05
  old densities: 5
  Damping of long wavelength oscillations: 50 

Hamiltonian:
  XC and Coulomb potentials evaluated on a 96*96*312 grid
  Using the BEEF-vdW Exchange-Correlation functional
  Interpolation: tri-quintic (5. degree polynomial)
  Poisson solver: FastPoissonSolver using
    Stencil: 8*3+1=25 point O(h^6) finite-difference Laplacian
    FFT axes: [0, 1]
    FST axes: [2]
 

XC parameters: BEEF-vdW with 2 nearest neighbor stencil

Memory estimate:
  Process memory now: 221.50 MiB
  Calculator: 722.15 MiB
    Density: 56.41 MiB
      Arrays: 14.17 MiB
      Localized functions: 36.79 MiB
      Mixer: 5.45 MiB
    Hamiltonian: 11.65 MiB
      Arrays: 9.26 MiB
      XC: 0.00 MiB
      Poisson: 0.00 MiB
      vbar: 2.39 MiB
    Wavefunctions: 654.09 MiB
      Arrays psit_nG: 314.96 MiB
      Eigensolver: 333.17 MiB
      Projections: 0.59 MiB
      Projectors: 5.37 MiB

Total number of cores used: 40
Parallelization over k-points: 8
Domain decomposition: 1 x 1 x 5

Number of atoms: 38
Number of atomic orbitals: 846
Number of bands in calculation: 289
Number of valence electrons: 475
Bands to converge: occupied

... initialized

Initializing position-dependent things.

Density initialized from atomic densities
Creating initial wave functions:
  289 bands from LCAO basis set

                                                  
                                                  
                                                  
                                                  
                                                  
                                                  
                                                  
                     H                            
                     O                            
           In      In      In                     
             In      In       In                  
            In      In      In                    
               In       In      In                
              In      In       In                 
                 In      In      In               
               In       In      In                
                                                  
                  In      In      In              
                    In       In      In           
           In      In      In                     
                                                  
             In      In       In                  
               In       In      In                
                                                  
                                                  
                                                  
                                                  

Positions:
   0 In    -0.000000    0.000000   10.000000    ( 0.0000,  0.0000,  0.0000)
   1 In     1.696324    0.979373   12.770085    ( 0.0000,  0.0000,  0.0000)
   2 In     0.000000    1.958746   15.501326    ( 0.0000,  0.0000,  0.0000)
   3 In     0.000000    0.000000   18.272307    ( 0.0000,  0.0000,  0.0000)
   4 In    -1.696324    2.938119   10.000000    ( 0.0000,  0.0000,  0.0000)
   5 In     0.000000    3.917492   12.770085    ( 0.0000,  0.0000,  0.0000)
   6 In    -1.696324    4.896865   15.501326    ( 0.0000,  0.0000,  0.0000)
   7 In    -1.696324    2.938119   18.272307    ( 0.0000,  0.0000,  0.0000)
   8 In    -3.392647    5.876238   10.000000    ( 0.0000,  0.0000,  0.0000)
   9 In    -1.696324    6.855611   12.770085    ( 0.0000,  0.0000,  0.0000)
  10 In    -3.392647    7.834984   15.501326    ( 0.0000,  0.0000,  0.0000)
  11 In    -3.392647    5.876238   18.272307    ( 0.0000,  0.0000,  0.0000)
  12 In     3.392647    0.000000   10.000000    ( 0.0000,  0.0000,  0.0000)
  13 In     5.088971    0.979373   12.770085    ( 0.0000,  0.0000,  0.0000)
  14 In     3.392647    1.958746   15.501326    ( 0.0000,  0.0000,  0.0000)
  15 In     3.392647   -0.000000   18.272307    ( 0.0000,  0.0000,  0.0000)
  16 In     1.696324    2.938119   10.000000    ( 0.0000,  0.0000,  0.0000)
  17 In     3.392647    3.917492   12.770085    ( 0.0000,  0.0000,  0.0000)
  18 In     1.696324    4.896865   15.501326    ( 0.0000,  0.0000,  0.0000)
  19 In     1.696324    2.938119   18.272307    ( 0.0000,  0.0000,  0.0000)
  20 In    -0.000000    5.876238   10.000000    ( 0.0000,  0.0000,  0.0000)
  21 In     1.696324    6.855611   12.770085    ( 0.0000,  0.0000,  0.0000)
  22 In     0.000000    7.834984   15.501326    ( 0.0000,  0.0000,  0.0000)
  23 In     0.000000    5.876238   18.272307    ( 0.0000,  0.0000,  0.0000)
  24 In     6.785295    0.000000   10.000000    ( 0.0000,  0.0000,  0.0000)
  25 In     8.481619    0.979373   12.770085    ( 0.0000,  0.0000,  0.0000)
  26 In     6.785295    1.958746   15.501326    ( 0.0000,  0.0000,  0.0000)
  27 In     6.785295   -0.000000   18.272307    ( 0.0000,  0.0000,  0.0000)
  28 In     5.088971    2.938119   10.000000    ( 0.0000,  0.0000,  0.0000)
  29 In     6.785295    3.917492   12.770085    ( 0.0000,  0.0000,  0.0000)
  30 In     5.088971    4.896865   15.501326    ( 0.0000,  0.0000,  0.0000)
  31 In     5.088971    2.938119   18.272307    ( 0.0000,  0.0000,  0.0000)
  32 In     3.392647    5.876238   10.000000    ( 0.0000,  0.0000,  0.0000)
  33 In     5.088971    6.855611   12.770085    ( 0.0000,  0.0000,  0.0000)
  34 In     3.392647    7.834984   15.501326    ( 0.0000,  0.0000,  0.0000)
  35 In     3.392647    5.876238   18.272307    ( 0.0000,  0.0000,  0.0000)
  36 O      1.696324    2.938119   20.272307    ( 0.0000,  0.0000,  0.0000)
  37 H      1.696324    2.938119   21.232307    ( 0.0000,  0.0000,  0.0000)

Unit cell:
           periodic     x           y           z      points  spacing
  1. axis:    yes   10.177942    0.000000    0.000000    48     0.1836
  2. axis:    yes   -5.088971    8.814357    0.000000    48     0.1836
  3. axis:    no     0.000000    0.000000   28.310255   156     0.1815

  Lengths:  10.177942  10.177942  28.310255
  Angles:   90.000000  90.000000 120.000000

Effective grid spacing dv^(1/3) = 0.1919

     iter     time        total  log10-change:
                         energy  eigst   dens
iter:   1 11:37:59 -5699.858063
iter:   2 11:38:28 -5699.733624  -0.85  -1.46
iter:   3 11:38:58 -5698.947745  -1.31  -1.48
iter:   4 11:39:27 -5698.517867  -1.35  -1.55
iter:   5 11:39:57 -5698.666079  -1.70  -1.67
iter:   6 11:40:26 -5698.712176c -1.53  -1.65
iter:   7 11:40:56 -5698.453334  -1.94  -2.20
iter:   8 11:41:25 -5698.465978  -2.51  -2.42
iter:   9 11:41:54 -5698.458122c -2.87  -2.66
iter:  10 11:42:24 -5698.452586c -2.95  -2.73
iter:  11 11:42:53 -5698.451068c -3.32  -2.91
iter:  12 11:43:23 -5698.451328c -3.68  -2.95
iter:  13 11:43:52 -5698.452675c -3.80  -3.01
iter:  14 11:44:22 -5698.453727c -3.88  -3.16
iter:  15 11:44:51 -5698.453166c -4.30  -3.26
iter:  16 11:45:20 -5698.453048c -4.68  -3.40
iter:  17 11:45:50 -5698.452666c -4.70  -3.47
iter:  18 11:46:19 -5698.452673c -5.18  -3.65
iter:  19 11:46:49 -5698.452625c -5.43  -3.85
iter:  20 11:47:18 -5698.452605c -6.23  -4.00c
iter:  21 11:47:48 -5698.452580c -6.00  -4.10c
iter:  22 11:48:17 -5698.452600c -6.33  -4.35c
iter:  23 11:48:46 -5698.452603c -6.92  -4.48c
iter:  24 11:49:16 -5698.452596c -7.16  -4.52c
iter:  25 11:49:45 -5698.452595c -7.28  -4.67c
iter:  26 11:50:15 -5698.452597c -7.34  -4.77c
iter:  27 11:50:44 -5698.452592c -8.06c -4.92c

Converged after 27 iterations.

Dipole moment: (-7.599876, -13.147236, -0.136239) |e|*Ang

Energy contributions relative to reference atoms: (reference = -5761168.450229)

Kinetic:       +1221.500598
Potential:     -1139.996252
External:        +0.000000
XC:            -5783.314026
Entropy (-ST):   -0.587932
Local:           +3.651054
--------------------------
Free energy:   -5698.746558
Extrapolated:  -5698.452592

Showing only first 2 kpts
 Kpt  Band  Eigenvalues  Occupancy
  0   235     -4.31955    1.86438
  0   236     -4.22036    1.67207
  0   237     -4.07861    1.10533
  0   238     -3.91187    0.37818

  1   235     -4.28836    1.81923
  1   236     -4.22584    1.68681
  1   237     -4.21533    1.65802
  1   238     -4.01258    0.77928


Fermi level: -4.05746

No gap

Forces in eV/Ang:
  0 In    0.01650    0.02883    0.03519
  1 In    0.00593    0.00798   -0.00459
  2 In   -0.02607   -0.00449   -0.04794
  3 In    0.01115    0.00174   -0.00320
  4 In    0.02865   -0.00827    0.04569
  5 In    0.00976   -0.00563    0.00565
  6 In    0.01116   -0.00644   -0.01556
  7 In   -0.00434    0.01336   -0.00387
  8 In   -0.00326    0.00188    0.06655
  9 In   -0.00382   -0.00348    0.05480
 10 In   -0.00039    0.00882   -0.01334
 11 In    0.01326   -0.00766    0.00197
 12 In   -0.01783    0.03640    0.03786
 13 In   -0.01628    0.00940    0.03133
 14 In    0.02133   -0.01231   -0.05062
 15 In    0.00165   -0.01043   -0.00232
 16 In    0.00182   -0.00105    0.03675
 17 In   -0.00395   -0.00913   -0.00459
 18 In   -0.00915    0.02482   -0.04794
 19 In    0.00327   -0.00189   -0.56428
 20 In    0.02149   -0.02067    0.04569
 21 In    0.00047   -0.01523    0.02070
 22 In    0.00863    0.00465   -0.01311
 23 In   -0.01374   -0.00292   -0.00387
 24 In   -0.00226    0.00131    0.08280
 25 In    0.01343    0.00721    0.02070
 26 In    0.00029   -0.00980   -0.01311
 27 In   -0.00697    0.00402   -0.00374
 28 In   -0.04044   -0.00276    0.03786
 29 In    0.00110    0.00505    0.05480
 30 In   -0.00784   -0.00407   -0.01334
 31 In    0.00986    0.00378   -0.00232
 32 In   -0.01672   -0.02870    0.03519
 33 In    0.00382   -0.00220    0.05057
 34 In   -0.01434    0.00828   -0.01113
 35 In    0.00407   -0.01052   -0.00320
 36 O     0.00173   -0.00100    1.02466
 37 H    -0.00182    0.00105   -0.15546

      Step     Time          Energy         fmax
BFGS:    0 11:50:54    -5698.452592        1.0247
System changes: positions 

Initializing position-dependent things.

Density initialized from wave functions
                                                  
                                                  
                                                  
                                                  
                                                  
                                                  
                                                  
                     H                            
                     O                            
           In      In      In                     
             In      In       In                  
            In      In      In                    
               In       In      In                
              In      In       In                 
                 In      In      In               
               In       In      In                
                                                  
                  In      In      In              
                    In       In      In           
           In      In      In                     
                                                  
             In      In       In                  
               In       In      In                
                                                  
                                                  
                                                  
                                                  

Positions:
   0 In    -0.000000    0.000000   10.000000    ( 0.0000,  0.0000,  0.0000)
   1 In     1.696324    0.979373   12.770085    ( 0.0000,  0.0000,  0.0000)
   2 In    -0.000372    1.958682   15.500641    ( 0.0000,  0.0000,  0.0000)
   3 In     0.000159    0.000025   18.272261    ( 0.0000,  0.0000,  0.0000)
   4 In    -1.696324    2.938119   10.000000    ( 0.0000,  0.0000,  0.0000)
   5 In     0.000000    3.917492   12.770085    ( 0.0000,  0.0000,  0.0000)
   6 In    -1.696164    4.896773   15.501104    ( 0.0000,  0.0000,  0.0000)
   7 In    -1.696386    2.938310   18.272252    ( 0.0000,  0.0000,  0.0000)
   8 In    -3.392647    5.876238   10.000000    ( 0.0000,  0.0000,  0.0000)
   9 In    -1.696324    6.855611   12.770085    ( 0.0000,  0.0000,  0.0000)
  10 In    -3.392653    7.835110   15.501135    ( 0.0000,  0.0000,  0.0000)
  11 In    -3.392458    5.876128   18.272335    ( 0.0000,  0.0000,  0.0000)
  12 In     3.392647    0.000000   10.000000    ( 0.0000,  0.0000,  0.0000)
  13 In     5.088971    0.979373   12.770085    ( 0.0000,  0.0000,  0.0000)
  14 In     3.392952    1.958570   15.500603    ( 0.0000,  0.0000,  0.0000)
  15 In     3.392671   -0.000149   18.272274    ( 0.0000,  0.0000,  0.0000)
  16 In     1.696324    2.938119   10.000000    ( 0.0000,  0.0000,  0.0000)
  17 In     3.392647    3.917492   12.770085    ( 0.0000,  0.0000,  0.0000)
  18 In     1.696193    4.897219   15.500641    ( 0.0000,  0.0000,  0.0000)
  19 In     1.696370    2.938092   18.264246    ( 0.0000,  0.0000,  0.0000)
  20 In    -0.000000    5.876238   10.000000    ( 0.0000,  0.0000,  0.0000)
  21 In     1.696324    6.855611   12.770085    ( 0.0000,  0.0000,  0.0000)
  22 In     0.000123    7.835050   15.501139    ( 0.0000,  0.0000,  0.0000)
  23 In    -0.000196    5.876196   18.272252    ( 0.0000,  0.0000,  0.0000)
  24 In     6.785295    0.000000   10.000000    ( 0.0000,  0.0000,  0.0000)
  25 In     8.481619    0.979373   12.770085    ( 0.0000,  0.0000,  0.0000)
  26 In     6.785299    1.958606   15.501139    ( 0.0000,  0.0000,  0.0000)
  27 In     6.785195    0.000057   18.272254    ( 0.0000,  0.0000,  0.0000)
  28 In     5.088971    2.938119   10.000000    ( 0.0000,  0.0000,  0.0000)
  29 In     6.785295    3.917492   12.770085    ( 0.0000,  0.0000,  0.0000)
  30 In     5.088859    4.896807   15.501135    ( 0.0000,  0.0000,  0.0000)
  31 In     5.089112    2.938173   18.272274    ( 0.0000,  0.0000,  0.0000)
  32 In     3.392647    5.876238   10.000000    ( 0.0000,  0.0000,  0.0000)
  33 In     5.088971    6.855611   12.770085    ( 0.0000,  0.0000,  0.0000)
  34 In     3.392443    7.835102   15.501167    ( 0.0000,  0.0000,  0.0000)
  35 In     3.392706    5.876087   18.272261    ( 0.0000,  0.0000,  0.0000)
  36 O      1.696348    2.938105   20.286945    ( 0.0000,  0.0000,  0.0000)
  37 H      1.696298    2.938134   21.230086    ( 0.0000,  0.0000,  0.0000)

Unit cell:
           periodic     x           y           z      points  spacing
  1. axis:    yes   10.177942    0.000000    0.000000    48     0.1836
  2. axis:    yes   -5.088971    8.814357    0.000000    48     0.1836
  3. axis:    no     0.000000    0.000000   28.310255   156     0.1815

  Lengths:  10.177942  10.177942  28.310255
  Angles:   90.000000  90.000000 120.000000

Effective grid spacing dv^(1/3) = 0.1919

     iter     time        total  log10-change:
                         energy  eigst   dens
iter:   1 11:51:50 -5698.467983  -3.03
iter:   2 11:52:19 -5698.465715  -4.06  -3.20
iter:   3 11:52:49 -5698.464546c -4.79  -3.35
iter:   4 11:53:18 -5698.462369c -4.41  -3.56
iter:   5 11:53:48 -5698.462099c -4.86  -3.59
iter:   6 11:54:18 -5698.461924c -4.64  -3.90
iter:   7 11:54:47 -5698.461728c -4.94  -3.88
iter:   8 11:55:17 -5698.461743c -5.37  -4.27c
iter:   9 11:55:46 -5698.461741c -6.30  -4.38c
iter:  10 11:56:16 -5698.461749c -6.45  -4.52c
iter:  11 11:56:46 -5698.461756c -6.56  -4.56c
iter:  12 11:57:15 -5698.461759c -7.57c -4.66c

Converged after 12 iterations.

Dipole moment: (-7.622306, -13.129207, -0.161094) |e|*Ang

Energy contributions relative to reference atoms: (reference = -5761168.450229)

Kinetic:       +1221.670827
Potential:     -1140.088389
External:        +0.000000
XC:            -5783.427471
Entropy (-ST):   -0.587509
Local:           +3.677030
--------------------------
Free energy:   -5698.755513
Extrapolated:  -5698.461759

Showing only first 2 kpts
 Kpt  Band  Eigenvalues  Occupancy
  0   235     -4.33440    1.86478
  0   236     -4.23490    1.67208
  0   237     -4.09371    1.10814
  0   238     -3.92629    0.37784

  1   235     -4.30323    1.81978
  1   236     -4.24074    1.68776
  1   237     -4.23030    1.65928
  1   238     -4.02519    0.77012


Fermi level: -4.07200

No gap

Forces in eV/Ang:
  0 In    0.01689    0.02902    0.03268
  1 In    0.00580    0.00671   -0.00211
  2 In   -0.02436   -0.00443   -0.05037
  3 In    0.01080    0.00206   -0.00178
  4 In    0.02913   -0.00803    0.04316
  5 In    0.00884   -0.00511    0.00773
  6 In    0.01274   -0.00736   -0.01449
  7 In   -0.00316    0.01228   -0.00220
  8 In   -0.00338    0.00195    0.06484
  9 In   -0.00439   -0.00372    0.05541
 10 In   -0.00091    0.01137   -0.01206
 11 In    0.01225   -0.00707    0.00491
 12 In   -0.01833    0.03655    0.03546
 13 In   -0.01551    0.00896    0.03212
 14 In    0.01969   -0.01137   -0.05304
 15 In    0.00108   -0.00918   -0.00076
 16 In    0.00175   -0.00101    0.03187
 17 In   -0.00291   -0.00838   -0.00211
 18 In   -0.00834    0.02331   -0.05037
 19 In    0.00320   -0.00185   -0.22380
 20 In    0.02152   -0.02122    0.04316
 21 In    0.00076   -0.01431    0.02141
 22 In    0.00658    0.00363   -0.01185
 23 In   -0.01221   -0.00340   -0.00220
 24 In   -0.00210    0.00121    0.08113
 25 In    0.01277    0.00650    0.02141
 26 In    0.00015   -0.00751   -0.01185
 27 In   -0.00625    0.00361   -0.00000
 28 In   -0.04082   -0.00241    0.03546
 29 In    0.00103    0.00566    0.05541
 30 In   -0.01030   -0.00490   -0.01206
 31 In    0.00849    0.00365   -0.00076
 32 In   -0.01669   -0.02914    0.03268
 33 In    0.00426   -0.00246    0.05141
 34 In   -0.01171    0.00676   -0.00970
 35 In    0.00361   -0.01038   -0.00178
 36 O     0.00179   -0.00103   -0.13604
 37 H    -0.00207    0.00119    0.76442

BFGS:    1 11:57:25    -5698.461759        0.7644
System changes: positions 

Initializing position-dependent things.

Density initialized from wave functions
                                                  
                                                  
                                                  
                                                  
                                                  
                                                  
                                                  
                     H                            
                     O                            
           In      In      In                     
             In      In       In                  
            In      In      In                    
               In       In      In                
              In      In       In                 
                 In      In      In               
               In       In      In                
                                                  
                  In      In      In              
                    In       In      In           
           In      In      In                     
                                                  
             In      In       In                  
               In       In      In                
                                                  
                                                  
                                                  
                                                  

Positions:
   0 In    -0.000000    0.000000   10.000000    ( 0.0000,  0.0000,  0.0000)
   1 In     1.696324    0.979373   12.770085    ( 0.0000,  0.0000,  0.0000)
   2 In    -0.000841    1.958598   15.499707    ( 0.0000,  0.0000,  0.0000)
   3 In     0.000365    0.000062   18.272220    ( 0.0000,  0.0000,  0.0000)
   4 In    -1.696324    2.938119   10.000000    ( 0.0000,  0.0000,  0.0000)
   5 In     0.000000    3.917492   12.770085    ( 0.0000,  0.0000,  0.0000)
   6 In    -1.695933    4.896639   15.500825    ( 0.0000,  0.0000,  0.0000)
   7 In    -1.696452    2.938547   18.272201    ( 0.0000,  0.0000,  0.0000)
   8 In    -3.392647    5.876238   10.000000    ( 0.0000,  0.0000,  0.0000)
   9 In    -1.696324    6.855611   12.770085    ( 0.0000,  0.0000,  0.0000)
  10 In    -3.392667    7.835309   15.500901    ( 0.0000,  0.0000,  0.0000)
  11 In    -3.392222    5.875992   18.272411    ( 0.0000,  0.0000,  0.0000)
  12 In     3.392647    0.000000   10.000000    ( 0.0000,  0.0000,  0.0000)
  13 In     5.088971    0.979373   12.770085    ( 0.0000,  0.0000,  0.0000)
  14 In     3.393332    1.958351   15.499618    ( 0.0000,  0.0000,  0.0000)
  15 In     3.392695   -0.000329   18.272251    ( 0.0000,  0.0000,  0.0000)
  16 In     1.696324    2.938119   10.000000    ( 0.0000,  0.0000,  0.0000)
  17 In     3.392647    3.917492   12.770085    ( 0.0000,  0.0000,  0.0000)
  18 In     1.696031    4.897667   15.499707    ( 0.0000,  0.0000,  0.0000)
  19 In     1.696431    2.938057   18.258108    ( 0.0000,  0.0000,  0.0000)
  20 In    -0.000000    5.876238   10.000000    ( 0.0000,  0.0000,  0.0000)
  21 In     1.696324    6.855611   12.770085    ( 0.0000,  0.0000,  0.0000)
  22 In     0.000259    7.835124   15.500908    ( 0.0000,  0.0000,  0.0000)
  23 In    -0.000435    5.876135   18.272201    ( 0.0000,  0.0000,  0.0000)
  24 In     6.785295    0.000000   10.000000    ( 0.0000,  0.0000,  0.0000)
  25 In     8.481619    0.979373   12.770085    ( 0.0000,  0.0000,  0.0000)
  26 In     6.785303    1.958452   15.500908    ( 0.0000,  0.0000,  0.0000)
  27 In     6.785074    0.000128   18.272232    ( 0.0000,  0.0000,  0.0000)
  28 In     5.088971    2.938119   10.000000    ( 0.0000,  0.0000,  0.0000)
  29 In     6.785295    3.917492   12.770085    ( 0.0000,  0.0000,  0.0000)
  30 In     5.088679    4.896719   15.500901    ( 0.0000,  0.0000,  0.0000)
  31 In     5.089279    2.938242   18.272251    ( 0.0000,  0.0000,  0.0000)
  32 In     3.392647    5.876238   10.000000    ( 0.0000,  0.0000,  0.0000)
  33 In     5.088971    6.855611   12.770085    ( 0.0000,  0.0000,  0.0000)
  34 In     3.392207    7.835238   15.500976    ( 0.0000,  0.0000,  0.0000)
  35 In     3.392776    5.875891   18.272220    ( 0.0000,  0.0000,  0.0000)
  36 O      1.696382    2.938085   20.290950    ( 0.0000,  0.0000,  0.0000)
  37 H      1.696260    2.938156   21.239270    ( 0.0000,  0.0000,  0.0000)

Unit cell:
           periodic     x           y           z      points  spacing
  1. axis:    yes   10.177942    0.000000    0.000000    48     0.1836
  2. axis:    yes   -5.088971    8.814357    0.000000    48     0.1836
  3. axis:    no     0.000000    0.000000   28.310255   156     0.1815

  Lengths:  10.177942  10.177942  28.310255
  Angles:   90.000000  90.000000 120.000000

Effective grid spacing dv^(1/3) = 0.1919

     iter     time        total  log10-change:
                         energy  eigst   dens
iter:   1 11:58:21 -5698.474372  -3.67
iter:   2 11:58:50 -5698.470814  -4.57  -3.08
iter:   3 11:59:20 -5698.469044c -5.14  -3.24
iter:   4 11:59:49 -5698.468561c -4.79  -3.90
iter:   5 12:00:19 -5698.468371c -5.71  -3.83
iter:   6 12:00:49 -5698.468315c -5.46  -4.20c
iter:   7 12:01:18 -5698.468327c -5.84  -4.25c
iter:   8 12:01:48 -5698.468325c -6.01  -4.43c
iter:   9 12:02:18 -5698.468311c -6.87  -4.49c
iter:  10 12:02:47 -5698.468313c -7.08  -4.74c
iter:  11 12:03:17 -5698.468314c -7.61c -4.81c

Converged after 11 iterations.

Dipole moment: (-7.655842, -13.115162, -0.170455) |e|*Ang

Energy contributions relative to reference atoms: (reference = -5761168.450229)

Kinetic:       +1220.917978
Potential:     -1139.434525
External:        +0.000000
XC:            -5783.298234
Entropy (-ST):   -0.587408
Local:           +3.640171
--------------------------
Free energy:   -5698.762018
Extrapolated:  -5698.468314

Showing only first 2 kpts
 Kpt  Band  Eigenvalues  Occupancy
  0   235     -4.33922    1.86435
  0   236     -4.24016    1.67234
  0   237     -4.09906    1.10907
  0   238     -3.93138    0.37761

  1   235     -4.30872    1.82032
  1   236     -4.24569    1.68722
  1   237     -4.23547    1.65928
  1   238     -4.02958    0.76651


Fermi level: -4.07716

No gap

Forces in eV/Ang:
  0 In    0.01707    0.02926    0.03641
  1 In    0.00555    0.00715   -0.00680
  2 In   -0.02751   -0.00691   -0.05244
  3 In    0.01192    0.00659   -0.00041
  4 In    0.02954   -0.00808    0.04712
  5 In    0.00931   -0.00537    0.00281
  6 In    0.00936   -0.00541   -0.01361
  7 In    0.00213    0.01051   -0.00080
  8 In   -0.00365    0.00211    0.06831
  9 In   -0.00395   -0.00356    0.05284
 10 In   -0.00087    0.00814   -0.01086
 11 In    0.01152   -0.00665   -0.00106
 12 In   -0.01865    0.03689    0.03929
 13 In   -0.01482    0.00856    0.02860
 14 In    0.02314   -0.01336   -0.05468
 15 In   -0.00076   -0.00403    0.00037
 16 In    0.00186   -0.00107    0.03596
 17 In   -0.00342   -0.00838   -0.00680
 18 In   -0.00777    0.02728   -0.05244
 19 In    0.00309   -0.00178   -0.07974
 20 In    0.02176   -0.02154    0.04712
 21 In    0.00094   -0.01373    0.01778
 22 In    0.00587    0.00346   -0.01097
 23 In   -0.00804   -0.00710   -0.00080
 24 In   -0.00192    0.00111    0.08457
 25 In    0.01236    0.00605    0.01778
 26 In   -0.00006   -0.00681   -0.01097
 27 In   -0.00572    0.00330   -0.00498
 28 In   -0.04127   -0.00229    0.03929
 29 In    0.00111    0.00520    0.05284
 30 In   -0.00749   -0.00332   -0.01086
 31 In    0.00311    0.00267    0.00037
 32 In   -0.01681   -0.02942    0.03641
 33 In    0.00378   -0.00218    0.04862
 34 In   -0.01099    0.00635   -0.00873
 35 In    0.00025   -0.01362   -0.00041
 36 O     0.00171   -0.00099   -0.02142
 37 H    -0.00226    0.00131    0.49633

BFGS:    2 12:03:27    -5698.468314        0.4963
System changes: positions 

Initializing position-dependent things.

Density initialized from wave functions
                                                  
                                                  
                                                  
                                                  
                                                  
                                                  
                                                  
                     H                            
                     O                            
           In      In      In                     
             In      In       In                  
            In      In      In                    
               In       In      In                
              In      In       In                 
                 In      In      In               
               In       In      In                
                                                  
                  In      In      In              
                    In       In      In           
           In      In      In                     
                                                  
             In      In       In                  
               In       In      In                
                                                  
                                                  
                                                  
                                                  

Positions:
   0 In    -0.000000    0.000000   10.000000    ( 0.0000,  0.0000,  0.0000)
   1 In     1.696324    0.979373   12.770085    ( 0.0000,  0.0000,  0.0000)
   2 In    -0.002249    1.958268   15.497038    ( 0.0000,  0.0000,  0.0000)
   3 In     0.000973    0.000346   18.272167    ( 0.0000,  0.0000,  0.0000)
   4 In    -1.696324    2.938119   10.000000    ( 0.0000,  0.0000,  0.0000)
   5 In     0.000000    3.917492   12.770085    ( 0.0000,  0.0000,  0.0000)
   6 In    -1.695425    4.896346   15.500096    ( 0.0000,  0.0000,  0.0000)
   7 In    -1.696417    2.939125   18.272124    ( 0.0000,  0.0000,  0.0000)
   8 In    -3.392647    5.876238   10.000000    ( 0.0000,  0.0000,  0.0000)
   9 In    -1.696324    6.855611   12.770085    ( 0.0000,  0.0000,  0.0000)
  10 In    -3.392707    7.835742   15.500310    ( 0.0000,  0.0000,  0.0000)
  11 In    -3.391604    5.875635   18.272394    ( 0.0000,  0.0000,  0.0000)
  12 In     3.392647    0.000000   10.000000    ( 0.0000,  0.0000,  0.0000)
  13 In     5.088971    0.979373   12.770085    ( 0.0000,  0.0000,  0.0000)
  14 In     3.394509    1.957671   15.496829    ( 0.0000,  0.0000,  0.0000)
  15 In     3.392683   -0.000612   18.272239    ( 0.0000,  0.0000,  0.0000)
  16 In     1.696324    2.938119   10.000000    ( 0.0000,  0.0000,  0.0000)
  17 In     3.392647    3.917492   12.770085    ( 0.0000,  0.0000,  0.0000)
  18 In     1.695613    4.899051   15.497038    ( 0.0000,  0.0000,  0.0000)
  19 In     1.696593    2.937963   18.248496    ( 0.0000,  0.0000,  0.0000)
  20 In    -0.000000    5.876238   10.000000    ( 0.0000,  0.0000,  0.0000)
  21 In     1.696324    6.855611   12.770085    ( 0.0000,  0.0000,  0.0000)
  22 In     0.000594    7.835317   15.500315    ( 0.0000,  0.0000,  0.0000)
  23 In    -0.000918    5.875816   18.272124    ( 0.0000,  0.0000,  0.0000)
  24 In     6.785295    0.000000   10.000000    ( 0.0000,  0.0000,  0.0000)
  25 In     8.481619    0.979373   12.770085    ( 0.0000,  0.0000,  0.0000)
  26 In     6.785304    1.958065   15.500315    ( 0.0000,  0.0000,  0.0000)
  27 In     6.784763    0.000307   18.271992    ( 0.0000,  0.0000,  0.0000)
  28 In     5.088971    2.938119   10.000000    ( 0.0000,  0.0000,  0.0000)
  29 In     6.785295    3.917492   12.770085    ( 0.0000,  0.0000,  0.0000)
  30 In     5.088285    4.896537   15.500310    ( 0.0000,  0.0000,  0.0000)
  31 In     5.089520    2.938394   18.272239    ( 0.0000,  0.0000,  0.0000)
  32 In     3.392647    5.876238   10.000000    ( 0.0000,  0.0000,  0.0000)
  33 In     5.088971    6.855611   12.770085    ( 0.0000,  0.0000,  0.0000)
  34 In     3.391600    7.835589   15.500496    ( 0.0000,  0.0000,  0.0000)
  35 In     3.392834    5.875222   18.272167    ( 0.0000,  0.0000,  0.0000)
  36 O      1.696471    2.938034   20.301332    ( 0.0000,  0.0000,  0.0000)
  37 H      1.696148    2.938220   21.258004    ( 0.0000,  0.0000,  0.0000)

Unit cell:
           periodic     x           y           z      points  spacing
  1. axis:    yes   10.177942    0.000000    0.000000    48     0.1836
  2. axis:    yes   -5.088971    8.814357    0.000000    48     0.1836
  3. axis:    no     0.000000    0.000000   28.310255   156     0.1815

  Lengths:  10.177942  10.177942  28.310255
  Angles:   90.000000  90.000000 120.000000

Effective grid spacing dv^(1/3) = 0.1919

     iter     time        total  log10-change:
                         energy  eigst   dens
iter:   1 12:04:23 -5698.490737  -3.09
iter:   2 12:04:52 -5698.481099  -4.05  -2.88
iter:   3 12:05:22 -5698.476704c -4.60  -3.02
iter:   4 12:05:52 -5698.474961c -4.25  -3.59
iter:   5 12:06:21 -5698.474468c -5.15  -3.55
iter:   6 12:06:51 -5698.474336c -4.86  -3.93
iter:   7 12:07:21 -5698.474303c -5.30  -3.96
iter:   8 12:07:50 -5698.474304c -5.50  -4.17c
iter:   9 12:08:20 -5698.474277c -6.24  -4.21c
iter:  10 12:08:50 -5698.474287c -6.48  -4.50c
iter:  11 12:09:20 -5698.474293c -6.94  -4.56c
iter:  12 12:09:50 -5698.474298c -7.29  -4.66c
iter:  13 12:10:19 -5698.474293c -7.23  -4.74c
iter:  14 12:10:49 -5698.474291c -7.77c -4.79c

Converged after 14 iterations.

Dipole moment: (-7.757271, -13.106356, -0.187129) |e|*Ang

Energy contributions relative to reference atoms: (reference = -5761168.450229)

Kinetic:       +1220.000019
Potential:     -1138.729402
External:        +0.000000
XC:            -5783.096069
Entropy (-ST):   -0.587187
Local:           +3.644754
--------------------------
Free energy:   -5698.767884
Extrapolated:  -5698.474291

Showing only first 2 kpts
 Kpt  Band  Eigenvalues  Occupancy
  0   235     -4.34815    1.86398
  0   236     -4.24961    1.67295
  0   237     -4.10861    1.11066
  0   238     -3.94048    0.37722

  1   235     -4.31840    1.82106
  1   236     -4.25486    1.68707
  1   237     -4.24493    1.65995
  1   238     -4.03732    0.75948


Fermi level: -4.08638

No gap

Forces in eV/Ang:
  0 In    0.01692    0.02877    0.03704
  1 In    0.00552    0.00440   -0.00915
  2 In   -0.02249   -0.00549   -0.04490
  3 In    0.01163    0.00757    0.00367
  4 In    0.02898   -0.00777    0.04740
  5 In    0.00696   -0.00402    0.00022
  6 In    0.00957   -0.00552   -0.01521
  7 In    0.00479    0.00881    0.00386
  8 In   -0.00349    0.00202    0.06980
  9 In   -0.00460   -0.00377    0.05175
 10 In   -0.00122    0.00904   -0.01226
 11 In    0.00981   -0.00567    0.00890
 12 In   -0.01846    0.03611    0.04008
 13 In   -0.01299    0.00750    0.02713
 14 In    0.01873   -0.01082   -0.04668
 15 In   -0.00226   -0.00107    0.00478
 16 In    0.00171   -0.00099    0.03574
 17 In   -0.00105   -0.00698   -0.00915
 18 In   -0.00649    0.02222   -0.04490
 19 In    0.00253   -0.00146    0.12472
 20 In    0.02122   -0.02121    0.04740
 21 In    0.00096   -0.01146    0.01639
 22 In    0.00456    0.00271   -0.01488
 23 In   -0.00524   -0.00856    0.00386
 24 In   -0.00192    0.00111    0.08483
 25 In    0.01041    0.00490    0.01639
 26 In   -0.00006   -0.00530   -0.01488
 27 In   -0.00467    0.00270    0.00481
 28 In   -0.04050   -0.00206    0.04008
 29 In    0.00096    0.00586    0.05175
 30 In   -0.00844   -0.00347   -0.01226
 31 In   -0.00020    0.00249    0.00478
 32 In   -0.01646   -0.02903    0.03704
 33 In    0.00436   -0.00252    0.04786
 34 In   -0.00848    0.00490   -0.01249
 35 In   -0.00074   -0.01386    0.00367
 36 O     0.00157   -0.00091    0.10594
 37 H    -0.00241    0.00139    0.06362

BFGS:    3 12:10:59    -5698.474291        0.1248
System changes: positions 

Initializing position-dependent things.

Density initialized from wave functions
                                                  
                                                  
                                                  
                                                  
                                                  
                                                  
                                                  
                     H                            
                     O                            
           In      In      In                     
             In      In       In                  
            In      In      In                    
               In       In      In                
              In      In       In                 
                 In      In      In               
               In       In      In                
                                                  
                  In      In      In              
                    In       In      In           
           In      In      In                     
                                                  
             In      In       In                  
               In       In      In                
                                                  
                                                  
                                                  
                                                  

Positions:
   0 In    -0.000000    0.000000   10.000000    ( 0.0000,  0.0000,  0.0000)
   1 In     1.696324    0.979373   12.770085    ( 0.0000,  0.0000,  0.0000)
   2 In    -0.002891    1.958118   15.495776    ( 0.0000,  0.0000,  0.0000)
   3 In     0.001284    0.000518   18.272215    ( 0.0000,  0.0000,  0.0000)
   4 In    -1.696324    2.938119   10.000000    ( 0.0000,  0.0000,  0.0000)
   5 In     0.000000    3.917492   12.770085    ( 0.0000,  0.0000,  0.0000)
   6 In    -1.695159    4.896192   15.499698    ( 0.0000,  0.0000,  0.0000)
   7 In    -1.696342    2.939389   18.272171    ( 0.0000,  0.0000,  0.0000)
   8 In    -3.392647    5.876238   10.000000    ( 0.0000,  0.0000,  0.0000)
   9 In    -1.696324    6.855611   12.770085    ( 0.0000,  0.0000,  0.0000)
  10 In    -3.392735    7.835984   15.499986    ( 0.0000,  0.0000,  0.0000)
  11 In    -3.391318    5.875470   18.272555    ( 0.0000,  0.0000,  0.0000)
  12 In     3.392647    0.000000   10.000000    ( 0.0000,  0.0000,  0.0000)
  13 In     5.088971    0.979373   12.770085    ( 0.0000,  0.0000,  0.0000)
  14 In     3.395043    1.957363   15.495512    ( 0.0000,  0.0000,  0.0000)
  15 In     3.392648   -0.000697   18.272315    ( 0.0000,  0.0000,  0.0000)
  16 In     1.696324    2.938119   10.000000    ( 0.0000,  0.0000,  0.0000)
  17 In     3.392647    3.917492   12.770085    ( 0.0000,  0.0000,  0.0000)
  18 In     1.695421    4.899683   15.495776    ( 0.0000,  0.0000,  0.0000)
  19 In     1.696667    2.937921   18.248306    ( 0.0000,  0.0000,  0.0000)
  20 In    -0.000000    5.876238   10.000000    ( 0.0000,  0.0000,  0.0000)
  21 In     1.696324    6.855611   12.770085    ( 0.0000,  0.0000,  0.0000)
  22 In     0.000738    7.835400   15.499947    ( 0.0000,  0.0000,  0.0000)
  23 In    -0.001109    5.875619   18.272171    ( 0.0000,  0.0000,  0.0000)
  24 In     6.785295    0.000000   10.000000    ( 0.0000,  0.0000,  0.0000)
  25 In     8.481619    0.979373   12.770085    ( 0.0000,  0.0000,  0.0000)
  26 In     6.785303    1.957899   15.499947    ( 0.0000,  0.0000,  0.0000)
  27 In     6.784623    0.000388   18.272038    ( 0.0000,  0.0000,  0.0000)
  28 In     5.088971    2.938119   10.000000    ( 0.0000,  0.0000,  0.0000)
  29 In     6.785295    3.917492   12.770085    ( 0.0000,  0.0000,  0.0000)
  30 In     5.088061    4.896441   15.499986    ( 0.0000,  0.0000,  0.0000)
  31 In     5.089575    2.938467   18.272315    ( 0.0000,  0.0000,  0.0000)
  32 In     3.392647    5.876238   10.000000    ( 0.0000,  0.0000,  0.0000)
  33 In     5.088971    6.855611   12.770085    ( 0.0000,  0.0000,  0.0000)
  34 In     3.391338    7.835740   15.500190    ( 0.0000,  0.0000,  0.0000)
  35 In     3.392841    5.874867   18.272215    ( 0.0000,  0.0000,  0.0000)
  36 O      1.696515    2.938009   20.305324    ( 0.0000,  0.0000,  0.0000)
  37 H      1.696086    2.938256   21.262877    ( 0.0000,  0.0000,  0.0000)

Unit cell:
           periodic     x           y           z      points  spacing
  1. axis:    yes   10.177942    0.000000    0.000000    48     0.1836
  2. axis:    yes   -5.088971    8.814357    0.000000    48     0.1836
  3. axis:    no     0.000000    0.000000   28.310255   156     0.1815

  Lengths:  10.177942  10.177942  28.310255
  Angles:   90.000000  90.000000 120.000000

Effective grid spacing dv^(1/3) = 0.1919

     iter     time        total  log10-change:
                         energy  eigst   dens
iter:   1 12:11:54 -5698.475850  -4.22
iter:   2 12:12:24 -5698.475411  -5.22  -3.48
iter:   3 12:12:54 -5698.475180c -5.95  -3.65
iter:   4 12:13:23 -5698.475124c -5.59  -4.13c
iter:   5 12:13:53 -5698.475076c -6.32  -4.29c
iter:   6 12:14:23 -5698.475058c -6.50  -4.56c
iter:   7 12:14:52 -5698.475062c -6.80  -4.61c
iter:   8 12:15:22 -5698.475057c -7.41c -4.81c

Converged after 8 iterations.

Dipole moment: (-7.809397, -13.109267, -0.190688) |e|*Ang

Energy contributions relative to reference atoms: (reference = -5761168.450229)

Kinetic:       +1219.794980
Potential:     -1138.569083
External:        +0.000000
XC:            -5783.058557
Entropy (-ST):   -0.587161
Local:           +3.651184
--------------------------
Free energy:   -5698.768637
Extrapolated:  -5698.475057

Showing only first 2 kpts
 Kpt  Band  Eigenvalues  Occupancy
  0   235     -4.35031    1.86397
  0   236     -4.25198    1.67352
  0   237     -4.11060    1.10983
  0   238     -3.94272    0.37744

  1   235     -4.32063    1.82117
  1   236     -4.25709    1.68723
  1   237     -4.24712    1.66002
  1   238     -4.03911    0.75773


Fermi level: -4.08855

No gap

Forces in eV/Ang:
  0 In    0.01652    0.03019    0.03591
  1 In    0.00522    0.00436   -0.01446
  2 In   -0.02593   -0.00711   -0.04216
  3 In    0.00677    0.00656   -0.00315
  4 In    0.03027   -0.00896    0.04729
  5 In    0.00616   -0.00356   -0.00531
  6 In    0.00190   -0.00110   -0.00976
  7 In    0.00241    0.00540   -0.00382
  8 In   -0.00373    0.00215    0.06796
  9 In   -0.00276   -0.00374    0.05285
 10 In    0.00039    0.00071   -0.00633
 11 In    0.00941   -0.00543   -0.00620
 12 In   -0.01817    0.03770    0.03932
 13 In   -0.00946    0.00546    0.02416
 14 In    0.02247   -0.01297   -0.04297
 15 In    0.00210   -0.00183   -0.00324
 16 In    0.00181   -0.00104    0.03447
 17 In   -0.00116   -0.00670   -0.01446
 18 In   -0.00681    0.02601   -0.04216
 19 In    0.00183   -0.00105    0.18321
 20 In    0.02289   -0.02173    0.04729
 21 In    0.00019   -0.00818    0.01307
 22 In    0.00379    0.00244   -0.00662
 23 In   -0.00347   -0.00479   -0.00382
 24 In   -0.00177    0.00102    0.08522
 25 In    0.00718    0.00392    0.01307
 26 In   -0.00021   -0.00451   -0.00662
 27 In   -0.00415    0.00240   -0.00734
 28 In   -0.04173   -0.00311    0.03932
 29 In    0.00186    0.00427    0.05285
 30 In   -0.00042   -0.00069   -0.00633
 31 In    0.00263   -0.00091   -0.00324
 32 In   -0.01788   -0.02940    0.03591
 33 In    0.00315   -0.00182    0.04776
 34 In   -0.00916    0.00529   -0.00432
 35 In   -0.00230   -0.00914   -0.00315
 36 O     0.00185   -0.00107    0.07463
 37 H    -0.00255    0.00147    0.01636

BFGS:    4 12:15:32    -5698.475057        0.1832
System changes: positions 

Initializing position-dependent things.

Density initialized from wave functions
                                                  
                                                  
                                                  
                                                  
                                                  
                                                  
                                                  
                     H                            
                     O                            
           In      In      In                     
             In      In       In                  
            In      In      In                    
               In       In      In                
              In      In       In                 
                 In      In      In               
               In       In      In                
                                                  
                  In      In      In              
                    In       In      In           
           In      In      In                     
                                                  
             In      In       In                  
               In       In      In                
                                                  
                                                  
                                                  
                                                  

Positions:
   0 In    -0.000000    0.000000   10.000000    ( 0.0000,  0.0000,  0.0000)
   1 In     1.696324    0.979373   12.770085    ( 0.0000,  0.0000,  0.0000)
   2 In    -0.004992    1.957595   15.491949    ( 0.0000,  0.0000,  0.0000)
   3 In     0.002093    0.001052   18.272182    ( 0.0000,  0.0000,  0.0000)
   4 In    -1.696324    2.938119   10.000000    ( 0.0000,  0.0000,  0.0000)
   5 In     0.000000    3.917492   12.770085    ( 0.0000,  0.0000,  0.0000)
   6 In    -1.694592    4.895865   15.498617    ( 0.0000,  0.0000,  0.0000)
   7 In    -1.696138    2.940075   18.272111    ( 0.0000,  0.0000,  0.0000)
   8 In    -3.392647    5.876238   10.000000    ( 0.0000,  0.0000,  0.0000)
   9 In    -1.696324    6.855611   12.770085    ( 0.0000,  0.0000,  0.0000)
  10 In    -3.392773    7.836463   15.499164    ( 0.0000,  0.0000,  0.0000)
  11 In    -3.390453    5.874971   18.272631    ( 0.0000,  0.0000,  0.0000)
  12 In     3.392647    0.000000   10.000000    ( 0.0000,  0.0000,  0.0000)
  13 In     5.088971    0.979373   12.770085    ( 0.0000,  0.0000,  0.0000)
  14 In     3.396820    1.956337   15.491555    ( 0.0000,  0.0000,  0.0000)
  15 In     3.392663   -0.000938   18.272329    ( 0.0000,  0.0000,  0.0000)
  16 In     1.696324    2.938119   10.000000    ( 0.0000,  0.0000,  0.0000)
  17 In     3.392647    3.917492   12.770085    ( 0.0000,  0.0000,  0.0000)
  18 In     1.694824    4.901764   15.491949    ( 0.0000,  0.0000,  0.0000)
  19 In     1.696870    2.937804   18.253549    ( 0.0000,  0.0000,  0.0000)
  20 In    -0.000000    5.876238   10.000000    ( 0.0000,  0.0000,  0.0000)
  21 In     1.696324    6.855611   12.770085    ( 0.0000,  0.0000,  0.0000)
  22 In     0.001142    7.835642   15.499039    ( 0.0000,  0.0000,  0.0000)
  23 In    -0.001602    5.875099   18.272111    ( 0.0000,  0.0000,  0.0000)
  24 In     6.785295    0.000000   10.000000    ( 0.0000,  0.0000,  0.0000)
  25 In     8.481619    0.979373   12.770085    ( 0.0000,  0.0000,  0.0000)
  26 In     6.785296    1.957428   15.499039    ( 0.0000,  0.0000,  0.0000)
  27 In     6.784215    0.000623   18.271859    ( 0.0000,  0.0000,  0.0000)
  28 In     5.088971    2.938119   10.000000    ( 0.0000,  0.0000,  0.0000)
  29 In     6.785295    3.917492   12.770085    ( 0.0000,  0.0000,  0.0000)
  30 In     5.087627    4.896234   15.499164    ( 0.0000,  0.0000,  0.0000)
  31 In     5.089791    2.938574   18.272329    ( 0.0000,  0.0000,  0.0000)
  32 In     3.392647    5.876238   10.000000    ( 0.0000,  0.0000,  0.0000)
  33 In     5.088971    6.855611   12.770085    ( 0.0000,  0.0000,  0.0000)
  34 In     3.390523    7.836210   15.499476    ( 0.0000,  0.0000,  0.0000)
  35 In     3.392783    5.873899   18.272182    ( 0.0000,  0.0000,  0.0000)
  36 O      1.696661    2.937924   20.314960    ( 0.0000,  0.0000,  0.0000)
  37 H      1.695884    2.938373   21.273892    ( 0.0000,  0.0000,  0.0000)

Unit cell:
           periodic     x           y           z      points  spacing
  1. axis:    yes   10.177942    0.000000    0.000000    48     0.1836
  2. axis:    yes   -5.088971    8.814357    0.000000    48     0.1836
  3. axis:    no     0.000000    0.000000   28.310255   156     0.1815

  Lengths:  10.177942  10.177942  28.310255
  Angles:   90.000000  90.000000 120.000000

Effective grid spacing dv^(1/3) = 0.1919

     iter     time        total  log10-change:
                         energy  eigst   dens
iter:   1 12:16:27 -5698.479554  -3.38
iter:   2 12:16:57 -5698.478328  -4.40  -3.23
iter:   3 12:17:27 -5698.477684c -5.18  -3.41
iter:   4 12:17:57 -5698.477481c -5.03  -3.77
iter:   5 12:18:26 -5698.477361c -5.49  -3.97
iter:   6 12:18:56 -5698.477318c -5.88  -4.22c
iter:   7 12:19:26 -5698.477336c -6.11  -4.31c
iter:   8 12:19:56 -5698.477327c -6.83  -4.42c
iter:   9 12:20:25 -5698.477335c -7.09  -4.43c
iter:  10 12:20:55 -5698.477342c -7.08  -4.60c
iter:  11 12:21:25 -5698.477355c -7.49c -4.85c

Converged after 11 iterations.

Dipole moment: (-7.955019, -13.124542, -0.196677) |e|*Ang

Energy contributions relative to reference atoms: (reference = -5761168.450229)

Kinetic:       +1219.532653
Potential:     -1138.366540
External:        +0.000000
XC:            -5783.006181
Entropy (-ST):   -0.587028
Local:           +3.656226
--------------------------
Free energy:   -5698.770869
Extrapolated:  -5698.477355

Showing only first 2 kpts
 Kpt  Band  Eigenvalues  Occupancy
  0   235     -4.35388    1.86437
  0   236     -4.25558    1.67445
  0   237     -4.11348    1.10795
  0   238     -3.94616    0.37802

  1   235     -4.32385    1.82112
  1   236     -4.26069    1.68816
  1   237     -4.25050    1.66037
  1   238     -4.04168    0.75452


Fermi level: -4.09180

No gap

Forces in eV/Ang:
  0 In    0.01777    0.02915    0.03454
  1 In    0.00453    0.00660   -0.01564
  2 In   -0.01017   -0.00188   -0.02948
  3 In    0.00524    0.00412   -0.00018
  4 In    0.03033   -0.00786    0.04516
  5 In    0.00915   -0.00528   -0.00781
  6 In    0.00123   -0.00071   -0.00837
  7 In    0.00299    0.00293   -0.00004
  8 In   -0.00435    0.00251    0.06501
  9 In   -0.00381   -0.00309    0.05206
 10 In   -0.00150    0.00192   -0.00514
 11 In    0.00570   -0.00329    0.00181
 12 In   -0.01962    0.03717    0.03768
 13 In   -0.01138    0.00657    0.02128
 14 In    0.00727   -0.00420   -0.02901
 15 In    0.00070   -0.00064    0.00019
 16 In    0.00231   -0.00133    0.03585
 17 In   -0.00345   -0.00722   -0.01564
 18 In   -0.00346    0.00975   -0.02948
 19 In    0.00209   -0.00121    0.22329
 20 In    0.02197   -0.02233    0.04516
 21 In    0.00164   -0.01007    0.01110
 22 In    0.00044    0.00039   -0.00619
 23 In   -0.00105   -0.00405   -0.00004
 24 In   -0.00155    0.00090    0.08097
 25 In    0.00954    0.00361    0.01110
 26 In   -0.00012   -0.00058   -0.00619
 27 In   -0.00181    0.00104    0.00075
 28 In   -0.04200   -0.00159    0.03768
 29 In    0.00077    0.00484    0.05206
 30 In   -0.00241    0.00034   -0.00514
 31 In    0.00091   -0.00029    0.00019
 32 In   -0.01636   -0.02997    0.03453
 33 In    0.00242   -0.00139    0.04849
 34 In   -0.00327    0.00189   -0.00444
 35 In   -0.00095   -0.00660   -0.00018
 36 O     0.00319   -0.00184    0.12090
 37 H    -0.00308    0.00178   -0.05302

BFGS:    5 12:21:35    -5698.477355        0.2233
System changes: positions 

Initializing position-dependent things.

Density initialized from wave functions
                                                  
                                                  
                                                  
                                                  
                                                  
                                                  
                                                  
                     H                            
                     O                            
           In      In      In                     
             In      In       In                  
            In      In      In                    
               In       In      In                
              In      In       In                 
                 In      In      In               
               In       In      In                
                                                  
                  In      In      In              
                    In       In      In           
           In      In      In                     
                                                  
             In      In       In                  
               In       In      In                
                                                  
                                                  
                                                  
                                                  

Positions:
   0 In    -0.000000    0.000000   10.000000    ( 0.0000,  0.0000,  0.0000)
   1 In     1.696324    0.979373   12.770085    ( 0.0000,  0.0000,  0.0000)
   2 In    -0.020889    1.953763   15.461361    ( 0.0000,  0.0000,  0.0000)
   3 In     0.008727    0.005299   18.272319    ( 0.0000,  0.0000,  0.0000)
   4 In    -1.696324    2.938119   10.000000    ( 0.0000,  0.0000,  0.0000)
   5 In     0.000000    3.917492   12.770085    ( 0.0000,  0.0000,  0.0000)
   6 In    -1.689854    4.893130   15.489688    ( 0.0000,  0.0000,  0.0000)
   7 In    -1.694313    2.945553   18.272115    ( 0.0000,  0.0000,  0.0000)
   8 In    -3.392647    5.876238   10.000000    ( 0.0000,  0.0000,  0.0000)
   9 In    -1.696324    6.855611   12.770085    ( 0.0000,  0.0000,  0.0000)
  10 In    -3.393286    7.840664   15.492368    ( 0.0000,  0.0000,  0.0000)
  11 In    -3.383629    5.871031   18.274313    ( 0.0000,  0.0000,  0.0000)
  12 In     3.392647    0.000000   10.000000    ( 0.0000,  0.0000,  0.0000)
  13 In     5.088971    0.979373   12.770085    ( 0.0000,  0.0000,  0.0000)
  14 In     3.410079    1.948682   15.459998    ( 0.0000,  0.0000,  0.0000)
  15 In     3.392595   -0.002766   18.272919    ( 0.0000,  0.0000,  0.0000)
  16 In     1.696324    2.938119   10.000000    ( 0.0000,  0.0000,  0.0000)
  17 In     3.392647    3.917492   12.770085    ( 0.0000,  0.0000,  0.0000)
  18 In     1.690194    4.917447   15.461362    ( 0.0000,  0.0000,  0.0000)
  19 In     1.698578    2.936817   18.305809    ( 0.0000,  0.0000,  0.0000)
  20 In    -0.000000    5.876238   10.000000    ( 0.0000,  0.0000,  0.0000)
  21 In     1.696324    6.855611   12.770085    ( 0.0000,  0.0000,  0.0000)
  22 In     0.004163    7.837449   15.491394    ( 0.0000,  0.0000,  0.0000)
  23 In    -0.005432    5.870780   18.272115    ( 0.0000,  0.0000,  0.0000)
  24 In     6.785295    0.000000   10.000000    ( 0.0000,  0.0000,  0.0000)
  25 In     8.481619    0.979373   12.770085    ( 0.0000,  0.0000,  0.0000)
  26 In     6.785241    1.953908   15.491394    ( 0.0000,  0.0000,  0.0000)
  27 In     6.781055    0.002448   18.271408    ( 0.0000,  0.0000,  0.0000)
  28 In     5.088971    2.938119   10.000000    ( 0.0000,  0.0000,  0.0000)
  29 In     6.785295    3.917492   12.770085    ( 0.0000,  0.0000,  0.0000)
  30 In     5.083733    4.894577   15.492368    ( 0.0000,  0.0000,  0.0000)
  31 In     5.091340    2.939547   18.272919    ( 0.0000,  0.0000,  0.0000)
  32 In     3.392647    5.876238   10.000000    ( 0.0000,  0.0000,  0.0000)
  33 In     5.088971    6.855611   12.770085    ( 0.0000,  0.0000,  0.0000)
  34 In     3.384360    7.839768   15.493402    ( 0.0000,  0.0000,  0.0000)
  35 In     3.392422    5.866030   18.272319    ( 0.0000,  0.0000,  0.0000)
  36 O      1.698001    2.937150   20.395309    ( 0.0000,  0.0000,  0.0000)
  37 H      1.694142    2.939378   21.357634    ( 0.0000,  0.0000,  0.0000)

Unit cell:
           periodic     x           y           z      points  spacing
  1. axis:    yes   10.177942    0.000000    0.000000    48     0.1836
  2. axis:    yes   -5.088971    8.814357    0.000000    48     0.1836
  3. axis:    no     0.000000    0.000000   28.310255   156     0.1815

  Lengths:  10.177942  10.177942  28.310255
  Angles:   90.000000  90.000000 120.000000

Effective grid spacing dv^(1/3) = 0.1919

     iter     time        total  log10-change:
                         energy  eigst   dens
iter:   1 12:22:30 -5698.567393  -1.57
iter:   2 12:23:00 -5698.521165  -2.60  -2.42
iter:   3 12:23:30 -5698.495554c -3.39  -2.59
iter:   4 12:23:59 -5698.483628c -3.26  -2.86
iter:   5 12:24:29 -5698.482878c -3.76  -3.20
iter:   6 12:24:59 -5698.482718c -4.26  -3.31
iter:   7 12:25:29 -5698.483697c -4.23  -3.43
iter:   8 12:25:58 -5698.483678c -4.85  -3.45
iter:   9 12:26:28 -5698.483574c -4.82  -3.53
iter:  10 12:26:58 -5698.483614c -5.42  -3.93
iter:  11 12:27:28 -5698.483610c -5.98  -3.98
iter:  12 12:27:57 -5698.483625c -6.07  -4.01c
iter:  13 12:28:27 -5698.483653c -5.78  -4.20c
iter:  14 12:28:57 -5698.483608c -6.52  -4.33c
iter:  15 12:29:27 -5698.483589c -6.70  -4.58c
iter:  16 12:29:56 -5698.483591c -6.90  -4.67c
iter:  17 12:30:26 -5698.483594c -7.42c -4.70c

Converged after 17 iterations.

Dipole moment: (-9.129498, -13.246371, -0.240965) |e|*Ang

Energy contributions relative to reference atoms: (reference = -5761168.450229)

Kinetic:       +1218.063085
Potential:     -1137.188493
External:        +0.000000
XC:            -5782.727422
Entropy (-ST):   -0.586751
Local:           +3.662611
--------------------------
Free energy:   -5698.776970
Extrapolated:  -5698.483594

Showing only first 2 kpts
 Kpt  Band  Eigenvalues  Occupancy
  0   235     -4.37825    1.86633
  0   236     -4.28199    1.68415
  0   237     -4.13136    1.08352
  0   238     -3.97148    0.38576

  1   235     -4.34588    1.81983
  1   236     -4.28527    1.69276
  1   237     -4.27364    1.66131
  1   238     -4.05978    0.73249


Fermi level: -4.11462

No gap

Forces in eV/Ang:
  0 In    0.01753    0.03206    0.04121
  1 In    0.00203    0.00259   -0.04816
  2 In    0.02986    0.02063    0.05816
  3 In   -0.01029    0.00523   -0.01212
  4 In    0.03534   -0.01046    0.05178
  5 In    0.00506   -0.00292   -0.04413
  6 In   -0.01960    0.01132    0.02569
  7 In    0.01224   -0.01993   -0.01125
  8 In   -0.00659    0.00380    0.07392
  9 In   -0.00595   -0.00394    0.04015
 10 In   -0.00137   -0.01495    0.02618
 11 In   -0.00972    0.00561   -0.01720
 12 In   -0.02113    0.04113    0.04445
 13 In    0.00044   -0.00025   -0.01041
 14 In   -0.03300    0.01905    0.06353
 15 In    0.00084    0.01702   -0.01618
 16 In    0.00325   -0.00187    0.03985
 17 In   -0.00123   -0.00306   -0.04816
 18 In   -0.00293   -0.03618    0.05816
 19 In    0.00641   -0.00370    0.34497
 20 In    0.02673   -0.02538    0.05178
 21 In    0.00226    0.00197   -0.01954
 22 In   -0.01392   -0.00771    0.02592
 23 In    0.02338   -0.00063   -0.01125
 24 In    0.00031   -0.00018    0.08752
 25 In   -0.00057   -0.00294   -0.01954
 26 In   -0.00028    0.01591    0.02592
 27 In    0.01006   -0.00581   -0.00621
 28 In   -0.04619   -0.00227    0.04445
 29 In    0.00044    0.00713    0.04015
 30 In    0.01226    0.00866    0.02618
 31 In   -0.01432   -0.00924   -0.01618
 32 In   -0.01900   -0.03121    0.04121
 33 In    0.00219   -0.00126    0.03698
 34 In    0.01823   -0.01052    0.02422
 35 In   -0.00967    0.00629   -0.01212
 36 O     0.00623   -0.00360    0.03728
 37 H    -0.00697    0.00402   -0.21569

BFGS:    6 12:30:36    -5698.483594        0.3450
System changes: positions 

Initializing position-dependent things.

Density initialized from wave functions
                                                  
                                                  
                                                  
                                                  
                                                  
                                                  
                                                  
                     H                            
                     O                            
           In      In      In                     
             In      In       In                  
            In      In      In                    
               In       In      In                
              In      In       In                 
                 In      In      In               
               In       In      In                
                                                  
                  In      In      In              
                    In       In      In           
           In      In      In                     
                                                  
             In      In       In                  
               In       In      In                
                                                  
                                                  
                                                  
                                                  

Positions:
   0 In    -0.000000    0.000000   10.000000    ( 0.0000,  0.0000,  0.0000)
   1 In     1.696324    0.979373   12.770085    ( 0.0000,  0.0000,  0.0000)
   2 In    -0.017803    1.954644   15.467372    ( 0.0000,  0.0000,  0.0000)
   3 In     0.007490    0.004648   18.272240    ( 0.0000,  0.0000,  0.0000)
   4 In    -1.696324    2.938119   10.000000    ( 0.0000,  0.0000,  0.0000)
   5 In     0.000000    3.917492   12.770085    ( 0.0000,  0.0000,  0.0000)
   6 In    -1.690834    4.893695   15.491491    ( 0.0000,  0.0000,  0.0000)
   7 In    -1.694453    2.944393   18.272075    ( 0.0000,  0.0000,  0.0000)
   8 In    -3.392647    5.876238   10.000000    ( 0.0000,  0.0000,  0.0000)
   9 In    -1.696324    6.855611   12.770085    ( 0.0000,  0.0000,  0.0000)
  10 In    -3.393209    7.839827   15.493794    ( 0.0000,  0.0000,  0.0000)
  11 In    -3.384934    5.871784   18.273971    ( 0.0000,  0.0000,  0.0000)
  12 In     3.392647    0.000000   10.000000    ( 0.0000,  0.0000,  0.0000)
  13 In     5.088971    0.979373   12.770085    ( 0.0000,  0.0000,  0.0000)
  14 In     3.407428    1.950212   15.466223    ( 0.0000,  0.0000,  0.0000)
  15 In     3.392570   -0.002219   18.272725    ( 0.0000,  0.0000,  0.0000)
  16 In     1.696324    2.938119   10.000000    ( 0.0000,  0.0000,  0.0000)
  17 In     3.392647    3.917492   12.770085    ( 0.0000,  0.0000,  0.0000)
  18 In     1.690974    4.914333   15.467372    ( 0.0000,  0.0000,  0.0000)
  19 In     1.698341    2.936954   18.302011    ( 0.0000,  0.0000,  0.0000)
  20 In    -0.000000    5.876238   10.000000    ( 0.0000,  0.0000,  0.0000)
  21 In     1.696324    6.855611   12.770085    ( 0.0000,  0.0000,  0.0000)
  22 In     0.003495    7.837055   15.492932    ( 0.0000,  0.0000,  0.0000)
  23 In    -0.004498    5.871481   18.272075    ( 0.0000,  0.0000,  0.0000)
  24 In     6.785295    0.000000   10.000000    ( 0.0000,  0.0000,  0.0000)
  25 In     8.481619    0.979373   12.770085    ( 0.0000,  0.0000,  0.0000)
  26 In     6.785248    1.954684   15.492932    ( 0.0000,  0.0000,  0.0000)
  27 In     6.781713    0.002068   18.271540    ( 0.0000,  0.0000,  0.0000)
  28 In     5.088971    2.938119   10.000000    ( 0.0000,  0.0000,  0.0000)
  29 In     6.785295    3.917492   12.770085    ( 0.0000,  0.0000,  0.0000)
  30 In     5.084496    4.894930   15.493794    ( 0.0000,  0.0000,  0.0000)
  31 In     5.090854    2.939296   18.272725    ( 0.0000,  0.0000,  0.0000)
  32 In     3.392647    5.876238   10.000000    ( 0.0000,  0.0000,  0.0000)
  33 In     5.088971    6.855611   12.770085    ( 0.0000,  0.0000,  0.0000)
  34 In     3.385639    7.839030   15.494648    ( 0.0000,  0.0000,  0.0000)
  35 In     3.392367    5.867427   18.272240    ( 0.0000,  0.0000,  0.0000)
  36 O      1.697811    2.937260   20.379523    ( 0.0000,  0.0000,  0.0000)
  37 H      1.694383    2.939239   21.339677    ( 0.0000,  0.0000,  0.0000)

Unit cell:
           periodic     x           y           z      points  spacing
  1. axis:    yes   10.177942    0.000000    0.000000    48     0.1836
  2. axis:    yes   -5.088971    8.814357    0.000000    48     0.1836
  3. axis:    no     0.000000    0.000000   28.310255   156     0.1815

  Lengths:  10.177942  10.177942  28.310255
  Angles:   90.000000  90.000000 120.000000

Effective grid spacing dv^(1/3) = 0.1919

     iter     time        total  log10-change:
                         energy  eigst   dens
iter:   1 12:31:32 -5698.499455  -2.98
iter:   2 12:32:01 -5698.491138  -3.96  -2.86
iter:   3 12:32:31 -5698.487238c -4.76  -3.06
iter:   4 12:33:01 -5698.486559c -4.52  -3.57
iter:   5 12:33:30 -5698.486612c -5.03  -3.74
iter:   6 12:34:00 -5698.486676c -5.48  -3.99
iter:   7 12:34:30 -5698.486710c -5.65  -4.06c
iter:   8 12:34:59 -5698.486751c -6.27  -4.22c
iter:   9 12:35:29 -5698.486740c -6.41  -4.23c
iter:  10 12:35:59 -5698.486726c -6.60  -4.38c
iter:  11 12:36:28 -5698.486699c -6.96  -4.55c
iter:  12 12:36:58 -5698.486699c -7.71c -4.72c

Converged after 12 iterations.

Dipole moment: (-8.909583, -13.246961, -0.227145) |e|*Ang

Energy contributions relative to reference atoms: (reference = -5761168.450229)

Kinetic:       +1218.616754
Potential:     -1137.649013
External:        +0.000000
XC:            -5782.827091
Entropy (-ST):   -0.586755
Local:           +3.666028
--------------------------
Free energy:   -5698.780076
Extrapolated:  -5698.486699

Showing only first 2 kpts
 Kpt  Band  Eigenvalues  Occupancy
  0   235     -4.37084    1.86649
  0   236     -4.27390    1.68269
  0   237     -4.12463    1.08752
  0   238     -3.96344    0.38421

  1   235     -4.33822    1.81964
  1   236     -4.27766    1.69259
  1   237     -4.26619    1.66155
  1   238     -4.05354    0.73852


Fermi level: -4.10708

No gap

Forces in eV/Ang:
  0 In    0.01620    0.03140    0.03851
  1 In    0.00296    0.00141   -0.03846
  2 In    0.02317    0.01614    0.04996
  3 In   -0.00632    0.00709   -0.01070
  4 In    0.03316   -0.01044    0.04920
  5 In    0.00325   -0.00188   -0.03309
  6 In   -0.01589    0.00918    0.01816
  7 In    0.01248   -0.01514   -0.00984
  8 In   -0.00543    0.00314    0.07150
  9 In   -0.00553   -0.00464    0.04446
 10 In   -0.00055   -0.01285    0.01919
 11 In   -0.00734    0.00424   -0.01684
 12 In   -0.01916    0.03967    0.04177
 13 In   -0.00088    0.00051   -0.00040
 14 In   -0.02568    0.01482    0.05345
 15 In   -0.00080    0.01570   -0.01358
 16 In    0.00259   -0.00149    0.03677
 17 In    0.00026   -0.00327   -0.03846
 18 In   -0.00240   -0.02814    0.04996
 19 In    0.00558   -0.00322    0.21860
 20 In    0.02562   -0.02349    0.04920
 21 In    0.00109    0.00052   -0.00977
 22 In   -0.00936   -0.00538    0.01940
 23 In    0.01935   -0.00324   -0.00984
 24 In   -0.00041    0.00024    0.08588
 25 In    0.00010   -0.00120   -0.00977
 26 In   -0.00002    0.01080    0.01940
 27 In    0.00744   -0.00430   -0.00741
 28 In   -0.04393   -0.00324    0.04177
 29 In    0.00126    0.00711    0.04446
 30 In    0.01085    0.00690    0.01919
 31 In   -0.01400   -0.00716   -0.01358
 32 In   -0.01910   -0.02973    0.03851
 33 In    0.00347   -0.00200    0.04091
 34 In    0.01239   -0.00715    0.01886
 35 In   -0.00930    0.00193   -0.01070
 36 O    -0.00176    0.00102    0.03002
 37 H    -0.00785    0.00453   -0.10930

BFGS:    7 12:37:08    -5698.486699        0.2187
System changes: positions 

Initializing position-dependent things.

Density initialized from wave functions
                                                  
                                                  
                                                  
                                                  
                                                  
                                                  
                                                  
                     H                            
                     O                            
           In      In      In                     
             In      In       In                  
            In      In      In                    
               In       In      In                
              In      In       In                 
                 In      In      In               
               In       In      In                
                                                  
                  In      In      In              
                    In       In      In           
           In      In      In                     
                                                  
             In      In       In                  
               In       In      In                
                                                  
                                                  
                                                  
                                                  

Positions:
   0 In    -0.000000    0.000000   10.000000    ( 0.0000,  0.0000,  0.0000)
   1 In     1.696324    0.979373   12.770085    ( 0.0000,  0.0000,  0.0000)
   2 In    -0.014457    1.955748   15.474104    ( 0.0000,  0.0000,  0.0000)
   3 In     0.006236    0.004200   18.272012    ( 0.0000,  0.0000,  0.0000)
   4 In    -1.696324    2.938119   10.000000    ( 0.0000,  0.0000,  0.0000)
   5 In     0.000000    3.917492   12.770085    ( 0.0000,  0.0000,  0.0000)
   6 In    -1.692013    4.894376   15.493481    ( 0.0000,  0.0000,  0.0000)
   7 In    -1.694317    2.943043   18.271905    ( 0.0000,  0.0000,  0.0000)
   8 In    -3.392647    5.876238   10.000000    ( 0.0000,  0.0000,  0.0000)
   9 In    -1.696324    6.855611   12.770085    ( 0.0000,  0.0000,  0.0000)
  10 In    -3.393132    7.838822   15.495438    ( 0.0000,  0.0000,  0.0000)
  11 In    -3.386316    5.872583   18.273380    ( 0.0000,  0.0000,  0.0000)
  12 In     3.392647    0.000000   10.000000    ( 0.0000,  0.0000,  0.0000)
  13 In     5.088971    0.979373   12.770085    ( 0.0000,  0.0000,  0.0000)
  14 In     3.404470    1.951920   15.473196    ( 0.0000,  0.0000,  0.0000)
  15 In     3.392481   -0.001375   18.272347    ( 0.0000,  0.0000,  0.0000)
  16 In     1.696324    2.938119   10.000000    ( 0.0000,  0.0000,  0.0000)
  17 In     3.392647    3.917492   12.770085    ( 0.0000,  0.0000,  0.0000)
  18 In     1.691691    4.910884   15.474104    ( 0.0000,  0.0000,  0.0000)
  19 In     1.698205    2.937033   18.301475    ( 0.0000,  0.0000,  0.0000)
  20 In    -0.000000    5.876238   10.000000    ( 0.0000,  0.0000,  0.0000)
  21 In     1.696324    6.855611   12.770085    ( 0.0000,  0.0000,  0.0000)
  22 In     0.002732    7.836604   15.494679    ( 0.0000,  0.0000,  0.0000)
  23 In    -0.003261    5.872038   18.271905    ( 0.0000,  0.0000,  0.0000)
  24 In     6.785295    0.000000   10.000000    ( 0.0000,  0.0000,  0.0000)
  25 In     8.481619    0.979373   12.770085    ( 0.0000,  0.0000,  0.0000)
  26 In     6.785257    1.955570   15.494679    ( 0.0000,  0.0000,  0.0000)
  27 In     6.782460    0.001637   18.271564    ( 0.0000,  0.0000,  0.0000)
  28 In     5.088971    2.938119   10.000000    ( 0.0000,  0.0000,  0.0000)
  29 In     6.785295    3.917492   12.770085    ( 0.0000,  0.0000,  0.0000)
  30 In     5.085405    4.895366   15.495438    ( 0.0000,  0.0000,  0.0000)
  31 In     5.090079    2.938951   18.272347    ( 0.0000,  0.0000,  0.0000)
  32 In     3.392647    5.876238   10.000000    ( 0.0000,  0.0000,  0.0000)
  33 In     5.088971    6.855611   12.770085    ( 0.0000,  0.0000,  0.0000)
  34 In     3.387043    7.838219   15.496116    ( 0.0000,  0.0000,  0.0000)
  35 In     3.392128    5.868737   18.272012    ( 0.0000,  0.0000,  0.0000)
  36 O      1.697470    2.937457   20.363589    ( 0.0000,  0.0000,  0.0000)
  37 H      1.694459    2.939195   21.321108    ( 0.0000,  0.0000,  0.0000)

Unit cell:
           periodic     x           y           z      points  spacing
  1. axis:    yes   10.177942    0.000000    0.000000    48     0.1836
  2. axis:    yes   -5.088971    8.814357    0.000000    48     0.1836
  3. axis:    no     0.000000    0.000000   28.310255   156     0.1815

  Lengths:  10.177942  10.177942  28.310255
  Angles:   90.000000  90.000000 120.000000

Effective grid spacing dv^(1/3) = 0.1919

     iter     time        total  log10-change:
                         energy  eigst   dens
iter:   1 12:38:04 -5698.502186  -2.95
iter:   2 12:38:33 -5698.493320  -3.95  -2.86
iter:   3 12:39:03 -5698.489408c -4.71  -3.04
iter:   4 12:39:32 -5698.488407c -4.43  -3.52
iter:   5 12:40:02 -5698.488436c -4.95  -3.66
iter:   6 12:40:32 -5698.488495c -5.35  -3.92
iter:   7 12:41:01 -5698.488508c -5.55  -4.00
iter:   8 12:41:31 -5698.488552c -6.15  -4.18c
iter:   9 12:42:01 -5698.488541c -6.31  -4.19c
iter:  10 12:42:30 -5698.488533c -6.55  -4.34c
iter:  11 12:43:00 -5698.488503c -6.82  -4.48c
iter:  12 12:43:29 -5698.488503c -7.62c -4.66c

Converged after 12 iterations.

Dipole moment: (-8.683388, -13.279192, -0.210591) |e|*Ang

Energy contributions relative to reference atoms: (reference = -5761168.450229)

Kinetic:       +1219.239291
Potential:     -1138.155696
External:        +0.000000
XC:            -5782.946094
Entropy (-ST):   -0.586785
Local:           +3.667387
--------------------------
Free energy:   -5698.781896
Extrapolated:  -5698.488503

Showing only first 2 kpts
 Kpt  Band  Eigenvalues  Occupancy
  0   235     -4.36196    1.86690
  0   236     -4.26417    1.68129
  0   237     -4.11619    1.09133
  0   238     -3.95374    0.38269

  1   235     -4.32873    1.81918
  1   236     -4.26849    1.69268
  1   237     -4.25706    1.66177
  1   238     -4.04587    0.74571


Fermi level: -4.09787

No gap

Forces in eV/Ang:
  0 In    0.01592    0.03122    0.03790
  1 In    0.00373    0.00135   -0.03131
  2 In    0.01844    0.01219    0.04089
  3 In   -0.00342    0.00483   -0.00798
  4 In    0.03232   -0.01035    0.04847
  5 In    0.00309   -0.00178   -0.02514
  6 In   -0.01127    0.00651    0.00994
  7 In    0.00807   -0.00893   -0.00724
  8 In   -0.00497    0.00287    0.07094
  9 In   -0.00522   -0.00463    0.04733
 10 In   -0.00016   -0.00914    0.01094
 11 In   -0.00396    0.00228   -0.01149
 12 In   -0.01851    0.03926    0.04100
 13 In   -0.00352    0.00203    0.00753
 14 In   -0.01987    0.01147    0.04333
 15 In   -0.00008    0.00942   -0.00940
 16 In    0.00242   -0.00139    0.03575
 17 In    0.00070   -0.00391   -0.03131
 18 In   -0.00134   -0.02206    0.04089
 19 In    0.00539   -0.00311    0.07538
 20 In    0.02513   -0.02282    0.04847
 21 In    0.00068   -0.00222   -0.00204
 22 In   -0.00497   -0.00282    0.01129
 23 In    0.01177   -0.00252   -0.00724
 24 In   -0.00081    0.00047    0.08560
 25 In    0.00226    0.00052   -0.00204
 26 In   -0.00004    0.00572    0.01129
 27 In    0.00435   -0.00251   -0.00543
 28 In   -0.04326   -0.00360    0.04100
 29 In    0.00140    0.00683    0.04733
 30 In    0.00784    0.00471    0.01094
 31 In   -0.00820   -0.00464   -0.00940
 32 In   -0.01908   -0.02939    0.03790
 33 In    0.00397   -0.00229    0.04351
 34 In    0.00628   -0.00362    0.01144
 35 In   -0.00589    0.00054   -0.00798
 36 O     0.00014   -0.00008    0.00180
 37 H    -0.01283    0.00740   -0.00348

BFGS:    8 12:43:39    -5698.488503        0.0756
System changes: positions 

Initializing position-dependent things.

Density initialized from wave functions
                                                  
                                                  
                                                  
                                                  
                                                  
                                                  
                                                  
                     H                            
                     O                            
           In      In      In                     
             In      In       In                  
            In      In      In                    
               In       In      In                
              In      In       In                 
                 In      In      In               
               In       In      In                
                                                  
                  In      In      In              
                    In       In      In           
           In      In      In                     
                                                  
             In      In       In                  
               In       In      In                
                                                  
[...]
  21 In     1.696324    6.855611   12.770085    ( 0.0000,  0.0000,  0.0000)
  22 In     0.000878    7.834507   15.499310    ( 0.0000,  0.0000,  0.0000)
  23 In    -0.029394    5.904294   18.282859    ( 0.0000,  0.0000,  0.0000)
  24 In     6.785295    0.000000   10.000000    ( 0.0000,  0.0000,  0.0000)
  25 In     8.481619    0.979373   12.770085    ( 0.0000,  0.0000,  0.0000)
  26 In     6.786146    1.958226   15.499313    ( 0.0000,  0.0000,  0.0000)
  27 In     6.780334    0.002865   18.267561    ( 0.0000,  0.0000,  0.0000)
  28 In     5.088971    2.938119   10.000000    ( 0.0000,  0.0000,  0.0000)
  29 In     6.785295    3.917492   12.770085    ( 0.0000,  0.0000,  0.0000)
  30 In     5.096117    4.896034   15.501619    ( 0.0000,  0.0000,  0.0000)
  31 In     5.032500    2.944097   18.290624    ( 0.0000,  0.0000,  0.0000)
  32 In     3.392647    5.876238   10.000000    ( 0.0000,  0.0000,  0.0000)
  33 In     5.088971    6.855611   12.770085    ( 0.0000,  0.0000,  0.0000)
  34 In     3.392958    7.834804   15.500467    ( 0.0000,  0.0000,  0.0000)
  35 In     3.381627    5.865751   18.265963    ( 0.0000,  0.0000,  0.0000)
  36 O      2.063259    2.726319   20.798163    ( 0.0000,  0.0000,  0.0000)
  37 H      1.438377    3.086643   21.436085    ( 0.0000,  0.0000,  0.0000)

Unit cell:
           periodic     x           y           z      points  spacing
  1. axis:    yes   10.177942    0.000000    0.000000    48     0.1836
  2. axis:    yes   -5.088971    8.814357    0.000000    48     0.1836
  3. axis:    no     0.000000    0.000000   28.310255   156     0.1815

  Lengths:  10.177942  10.177942  28.310255
  Angles:   90.000000  90.000000 120.000000

Effective grid spacing dv^(1/3) = 0.1919

     iter     time        total  log10-change:
                         energy  eigst   dens
iter:   1 17:22:07 -5698.815127  -3.44
iter:   2 17:22:36 -5698.813825  -4.38  -3.19
iter:   3 17:23:06 -5698.813114c -5.08  -3.40
iter:   4 17:23:36 -5698.813059c -5.10  -3.72
iter:   5 17:24:05 -5698.812938c -5.37  -3.97
iter:   6 17:24:35 -5698.812928c -5.88  -4.21c
iter:   7 17:25:05 -5698.812911c -6.18  -4.28c
iter:   8 17:25:35 -5698.812888c -6.32  -4.43c
iter:   9 17:26:04 -5698.812925c -6.76  -4.42c
iter:  10 17:26:34 -5698.812929c -7.21  -4.61c
iter:  11 17:27:04 -5698.812937c -7.38  -4.81c
iter:  12 17:27:34 -5698.812933c -8.06c -4.97c

Converged after 12 iterations.

Dipole moment: (-3.402143, -16.712209, -0.429536) |e|*Ang

Energy contributions relative to reference atoms: (reference = -5761168.450229)

Kinetic:       +1214.653020
Potential:     -1135.167899
External:        +0.000000
XC:            -5781.643427
Entropy (-ST):   -0.586044
Local:           +3.638394
--------------------------
Free energy:   -5699.105955
Extrapolated:  -5698.812933

Showing only first 2 kpts
 Kpt  Band  Eigenvalues  Occupancy
  0   235     -4.50224    1.88763
  0   236     -4.39987    1.71572
  0   237     -4.23063    1.05256
  0   238     -4.07778    0.38829

  1   235     -4.42174    1.76501
  1   236     -4.40340    1.72421
  1   237     -4.36233    1.61137
  1   238     -4.18529    0.82765


Fermi level: -4.22011

No gap

Forces in eV/Ang:
  0 In    0.01596    0.02633    0.04510
  1 In    0.00776    0.01178    0.01231
  2 In   -0.01190    0.00440   -0.00319
  3 In   -0.00736   -0.00737    0.00776
  4 In    0.02651   -0.01311    0.05118
  5 In    0.01706   -0.00985    0.02865
  6 In   -0.00344    0.00198   -0.00601
  7 In    0.01160    0.00085    0.00296
  8 In   -0.00721    0.00417    0.06700
  9 In   -0.00735   -0.00410    0.05515
 10 In   -0.00204    0.01579   -0.01354
 11 In    0.00386   -0.00223    0.00504
 12 In   -0.01956    0.04156    0.04149
 13 In   -0.02791    0.01611    0.04960
 14 In   -0.01199    0.00692    0.00155
 15 In    0.00690   -0.00564    0.01758
 16 In    0.00932   -0.00538    0.03548
 17 In   -0.00633   -0.01261    0.01231
 18 In   -0.00976    0.00811   -0.00319
 19 In    0.00136   -0.00078   -0.02169
 20 In    0.02461   -0.01640    0.05118
 21 In    0.00062   -0.03373    0.05681
 22 In    0.00068    0.01416   -0.00078
 23 In    0.00506   -0.01047    0.00296
 24 In   -0.00268    0.00154    0.07078
 25 In    0.02952    0.01632    0.05681
 26 In   -0.01192   -0.00767   -0.00078
 27 In   -0.00250    0.00144    0.01416
 28 In   -0.04578   -0.00385    0.04149
 29 In   -0.00012    0.00841    0.05515
 30 In   -0.01470   -0.00613   -0.01354
 31 In    0.00834   -0.00316    0.01757
 32 In   -0.01483   -0.02699    0.04511
 33 In    0.00748   -0.00432    0.04902
 34 In   -0.01286    0.00742   -0.02339
 35 In    0.00269    0.01006    0.00777
 36 O     0.06617   -0.03793   -0.05705
 37 H    -0.06314    0.03592    0.04488

BFGS:   42 17:27:43    -5698.812933        0.0952
System changes: positions 

Initializing position-dependent things.

Density initialized from wave functions
                                                  
                                                  
                                                  
                                                  
                                                  
                                                  
                     H                            
                      O                           
                                                  
           In      In      In                     
             In      In       In                  
            In      In      In                    
               In       In      In                
              In       In      In                 
                 In      In      In               
               In       In      In                
                                                  
                  In      In      In              
                    In       In      In           
           In      In      In                     
                                                  
             In      In       In                  
               In       In      In                
                                                  
                                                  
                                                  
                                                  

Positions:
   0 In    -0.000000    0.000000   10.000000    ( 0.0000,  0.0000,  0.0000)
   1 In     1.696324    0.979373   12.770085    ( 0.0000,  0.0000,  0.0000)
   2 In     0.021449    1.970244   15.530255    ( 0.0000,  0.0000,  0.0000)
   3 In     0.002799    0.015794   18.265046    ( 0.0000,  0.0000,  0.0000)
   4 In    -1.696324    2.938119   10.000000    ( 0.0000,  0.0000,  0.0000)
   5 In     0.000000    3.917492   12.770085    ( 0.0000,  0.0000,  0.0000)
   6 In    -1.691576    4.894124   15.508758    ( 0.0000,  0.0000,  0.0000)
   7 In    -1.733917    2.949561   18.284505    ( 0.0000,  0.0000,  0.0000)
   8 In    -3.392647    5.876238   10.000000    ( 0.0000,  0.0000,  0.0000)
   9 In    -1.696324    6.855611   12.770085    ( 0.0000,  0.0000,  0.0000)
  10 In    -3.389095    7.832266   15.498794    ( 0.0000,  0.0000,  0.0000)
  11 In    -3.407402    5.884755   18.279202    ( 0.0000,  0.0000,  0.0000)
  12 In     3.392647    0.000000   10.000000    ( 0.0000,  0.0000,  0.0000)
  13 In     5.088971    0.979373   12.770085    ( 0.0000,  0.0000,  0.0000)
  14 In     3.372606    1.970317   15.523177    ( 0.0000,  0.0000,  0.0000)
  15 In     3.360152    0.046834   18.293289    ( 0.0000,  0.0000,  0.0000)
  16 In     1.696324    2.938119   10.000000    ( 0.0000,  0.0000,  0.0000)
  17 In     3.392647    3.917492   12.770085    ( 0.0000,  0.0000,  0.0000)
  18 In     1.697091    4.872542   15.530253    ( 0.0000,  0.0000,  0.0000)
  19 In     1.605560    2.990523   18.771259    ( 0.0000,  0.0000,  0.0000)
  20 In    -0.000000    5.876238   10.000000    ( 0.0000,  0.0000,  0.0000)
  21 In     1.696324    6.855611   12.770085    ( 0.0000,  0.0000,  0.0000)
  22 In     0.000496    7.835709   15.497763    ( 0.0000,  0.0000,  0.0000)
  23 In    -0.028706    5.903076   18.284505    ( 0.0000,  0.0000,  0.0000)
  24 In     6.785295    0.000000   10.000000    ( 0.0000,  0.0000,  0.0000)
  25 In     8.481619    0.979373   12.770085    ( 0.0000,  0.0000,  0.0000)
  26 In     6.784915    1.957955   15.497767    ( 0.0000,  0.0000,  0.0000)
  27 In     6.780131    0.002983   18.270456    ( 0.0000,  0.0000,  0.0000)
  28 In     5.088971    2.938119   10.000000    ( 0.0000,  0.0000,  0.0000)
  29 In     6.785295    3.917492   12.770085    ( 0.0000,  0.0000,  0.0000)
  30 In     5.093101    4.895146   15.498793    ( 0.0000,  0.0000,  0.0000)
  31 In     5.032158    2.942846   18.293294    ( 0.0000,  0.0000,  0.0000)
  32 In     3.392647    5.876238   10.000000    ( 0.0000,  0.0000,  0.0000)
  33 In     5.088971    6.855611   12.770085    ( 0.0000,  0.0000,  0.0000)
  34 In     3.392539    7.835045   15.497374    ( 0.0000,  0.0000,  0.0000)
  35 In     3.380362    5.865904   18.265056    ( 0.0000,  0.0000,  0.0000)
  36 O      2.063878    2.725945   20.797026    ( 0.0000,  0.0000,  0.0000)
  37 H      1.438226    3.086689   21.435791    ( 0.0000,  0.0000,  0.0000)

Unit cell:
           periodic     x           y           z      points  spacing
  1. axis:    yes   10.177942    0.000000    0.000000    48     0.1836
  2. axis:    yes   -5.088971    8.814357    0.000000    48     0.1836
  3. axis:    no     0.000000    0.000000   28.310255   156     0.1815

  Lengths:  10.177942  10.177942  28.310255
  Angles:   90.000000  90.000000 120.000000

Effective grid spacing dv^(1/3) = 0.1919

     iter     time        total  log10-change:
                         energy  eigst   dens
iter:   1 17:28:39 -5698.818805  -3.54
iter:   2 17:29:09 -5698.815347  -4.42  -3.01
iter:   3 17:29:39 -5698.813436c -5.25  -3.24
iter:   4 17:30:08 -5698.813367c -5.17  -3.71
iter:   5 17:30:38 -5698.813221c -5.39  -3.94
iter:   6 17:31:08 -5698.813205c -5.96  -4.23c
iter:   7 17:31:37 -5698.813191c -6.53  -4.32c
iter:   8 17:32:07 -5698.813178c -6.79  -4.50c
iter:   9 17:32:37 -5698.813186c -7.09  -4.59c
iter:  10 17:33:06 -5698.813190c -7.27  -4.67c
iter:  11 17:33:36 -5698.813200c -7.54c -4.85c

Converged after 11 iterations.

Dipole moment: (-3.509160, -16.773072, -0.428332) |e|*Ang

Energy contributions relative to reference atoms: (reference = -5761168.450229)

Kinetic:       +1214.444229
Potential:     -1134.993830
External:        +0.000000
XC:            -5781.608362
Entropy (-ST):   -0.586246
Local:           +3.637886
--------------------------
Free energy:   -5699.106324
Extrapolated:  -5698.813200

Showing only first 2 kpts
 Kpt  Band  Eigenvalues  Occupancy
  0   235     -4.50229    1.88841
  0   236     -4.39998    1.71767
  0   237     -4.22848    1.04528
  0   238     -4.07744    0.38940

  1   235     -4.42195    1.76686
  1   236     -4.40107    1.72029
  1   237     -4.36152    1.61100
  1   238     -4.18477    0.82848


Fermi level: -4.21942

No gap

Forces in eV/Ang:
  0 In    0.01654    0.02607    0.04610
  1 In    0.00784    0.01251    0.00693
  2 In   -0.01725    0.00793    0.00317
  3 In   -0.00537   -0.01094    0.00738
  4 In    0.02618   -0.01242    0.05179
  5 In    0.01754   -0.01013    0.02769
  6 In   -0.00067    0.00039    0.00290
  7 In    0.00531    0.00005   -0.00782
  8 In   -0.00688    0.00397    0.06801
  9 In   -0.00808   -0.00394    0.05111
 10 In    0.00098    0.00322   -0.00074
 11 In    0.00014   -0.00008   -0.00491
 12 In   -0.01983    0.04108    0.04272
 13 In   -0.02918    0.01685    0.04619
 14 In   -0.00182    0.00105    0.01410
 15 In    0.00346   -0.00774    0.00585
 16 In    0.00943   -0.00544    0.03581
 17 In   -0.00691   -0.01304    0.00693
 18 In   -0.01549    0.01098    0.00316
 19 In   -0.00772    0.00446   -0.00943
 20 In    0.02384   -0.01646    0.05179
 21 In    0.00001   -0.03471    0.05283
 22 In    0.00060    0.01075    0.00959
 23 In    0.00260   -0.00463   -0.00781
 24 In   -0.00288    0.00166    0.07231
 25 In    0.03007    0.01734    0.05283
 26 In   -0.00902   -0.00590    0.00959
 27 In   -0.00207    0.00120    0.00019
 28 In   -0.04550   -0.00337    0.04272
 29 In   -0.00062    0.00897    0.05111
 30 In   -0.00230   -0.00246   -0.00073
 31 In    0.00844    0.00087    0.00584
 32 In   -0.01430   -0.02736    0.04610
 33 In    0.00845   -0.00488    0.04401
 34 In   -0.01227    0.00708   -0.01135
 35 In    0.00677    0.01012    0.00739
 36 O     0.02904   -0.01655   -0.01219
 37 H    -0.02477    0.01372    0.00208

BFGS:   43 17:33:46    -5698.813200        0.0356
Timing:                                      incl.     excl.
-------------------------------------------------------------------
Density initialized from wave functions:    65.258    65.257   0.3% |
 Symmetrize density:                         0.001     0.001   0.0% |
Forces:                                    438.620   438.620   2.0% ||
Hamiltonian:                               178.413     0.006   0.0% |
 Atomic:                                     0.009     0.009   0.0% |
  XC Correction:                             0.000     0.000   0.0% |
 Calculate atomic Hamiltonians:              0.013     0.013   0.0% |
 Communicate:                                6.298     6.298   0.0% |
 Hartree integrate/restrict:                 0.595     0.595   0.0% |
 Initialize Hamiltonian:                     0.000     0.000   0.0% |
 Poisson:                                    9.781     0.421   0.0% |
  Communicate from 1D:                       0.857     0.857   0.0% |
  Communicate from 2D:                       1.556     1.556   0.0% |
  Communicate to 1D:                         0.404     0.404   0.0% |
  Communicate to 2D:                         1.910     1.910   0.0% |
  FFT 1D:                                    2.134     2.134   0.0% |
  FFT 2D:                                    2.499     2.499   0.0% |
 XC 3D grid:                               161.486    41.074   0.2% |
  VdW-DF integral:                         120.412     1.639   0.0% |
   Convolution:                             16.861    16.861   0.1% |
   FFT:                                      9.434     9.434   0.0% |
   gather:                                  32.970    32.970   0.2% |
   hmm1:                                     2.505     2.505   0.0% |
   hmm2:                                     5.418     5.418   0.0% |
   iFFT:                                     9.628     9.628   0.0% |
   potential:                               38.125     0.950   0.0% |
    collect:                                 3.793     3.793   0.0% |
    p1:                                     22.310    22.310   0.1% |
    p2:                                      7.872     7.872   0.0% |
    sum:                                     3.199     3.199   0.0% |
   splines:                                  3.832     3.832   0.0% |
 vbar:                                       0.226     0.226   0.0% |
LCAO initialization:                        21.033     0.935   0.0% |
 LCAO eigensolver:                           8.162     0.002   0.0% |
  Calculate projections:                     0.000     0.000   0.0% |
  DenseAtomicCorrection:                     0.000     0.000   0.0% |
  Distribute overlap matrix:                 7.688     7.688   0.0% |
  Orbital Layouts:                           0.375     0.375   0.0% |
  Potential matrix:                          0.017     0.017   0.0% |
  Sum over cells:                            0.080     0.080   0.0% |
 LCAO to grid:                              11.106    11.106   0.1% |
 Set positions (LCAO WFS):                   0.831     0.667   0.0% |
  Basic WFS set positions:                   0.001     0.001   0.0% |
  Basis functions set positions:             0.000     0.000   0.0% |
  P tci:                                     0.000     0.000   0.0% |
  ST tci:                                    0.121     0.121   0.0% |
  mktci:                                     0.041     0.041   0.0% |
Redistribute:                                0.020     0.020   0.0% |
SCF-cycle:                               19756.941    49.496   0.2% |
 Davidson:                               17066.122  4376.734  20.4% |-------|
  Apply hamiltonian:                       571.315   571.315   2.7% ||
  Subspace diag:                          2432.379     0.072   0.0% |
   calc_h_matrix:                         1204.188   646.921   3.0% ||
    Apply hamiltonian:                     557.267   557.267   2.6% ||
   diagonalize:                             13.634    13.634   0.1% |
   rotate_psi:                            1214.484  1214.484   5.7% |-|
  calc. matrices:                         7123.770  4099.303  19.1% |-------|
   Apply hamiltonian:                     3024.467  3024.467  14.1% |-----|
  diagonalize:                             176.791   176.791   0.8% |
  rotate_psi:                             2385.134  2385.134  11.1% |---|
 Density:                                   50.705     0.014   0.0% |
  Atomic density matrices:                   2.566     2.566   0.0% |
  Mix:                                      12.685    12.685   0.1% |
  Multipole moments:                         0.217     0.217   0.0% |
  Pseudo density:                           35.223    35.208   0.2% |
   Symmetrize density:                       0.015     0.015   0.0% |
 Hamiltonian:                             2470.122     0.080   0.0% |
  Atomic:                                    0.139     0.137   0.0% |
   XC Correction:                            0.002     0.002   0.0% |
  Calculate atomic Hamiltonians:             0.179     0.179   0.0% |
  Communicate:                              90.079    90.079   0.4% |
  Hartree integrate/restrict:                8.642     8.642   0.0% |
  Poisson:                                 138.907     5.586   0.0% |
   Communicate from 1D:                     12.010    12.010   0.1% |
   Communicate from 2D:                     22.174    22.174   0.1% |
   Communicate to 1D:                        5.835     5.835   0.0% |
   Communicate to 2D:                       27.304    27.304   0.1% |
   FFT 1D:                                  30.395    30.395   0.1% |
   FFT 2D:                                  35.602    35.602   0.2% |
  XC 3D grid:                             2230.614   572.778   2.7% ||
   VdW-DF integral:                       1657.836    23.161   0.1% |
    Convolution:                           238.743   238.743   1.1% |
    FFT:                                   133.481   133.481   0.6% |
    gather:                                468.876   468.876   2.2% ||
    hmm1:                                   35.191    35.191   0.2% |
    hmm2:                                   76.927    76.927   0.4% |
    iFFT:                                  137.162   137.162   0.6% |
    potential:                             544.291    13.401   0.1% |
     collect:                               54.093    54.093   0.3% |
     p1:                                   318.181   318.181   1.5% ||
     p2:                                   111.749   111.749   0.5% |
     sum:                                   46.867    46.867   0.2% |
    splines:                                 0.004     0.004   0.0% |
  vbar:                                      1.483     1.483   0.0% |
 Orthonormalize:                           120.495     0.008   0.0% |
  calc_s_matrix:                            17.294    17.294   0.1% |
  inverse-cholesky:                         62.128    62.128   0.3% |
  projections:                               0.002     0.002   0.0% |
  rotate_psi_s:                             41.064    41.064   0.2% |
Set symmetry:                                0.001     0.001   0.0% |
Other:                                     947.521   947.521   4.4% |-|
-------------------------------------------------------------------
Total:                                             21407.807 100.0%

Memory usage: 1.94 GiB
Date: Tue Sep 26 17:33:46 2023
