
  ___ ___ ___ _ _ _  
 |   |   |_  | | | | 
 | | | | | . | | | | 
 |__ |  _|___|_____|  22.8.0
 |___|_|             

User:   s204775@c090.nifl.fysik.dtu.dk
Date:   Tue Sep 26 11:49:33 2023
Arch:   x86_64
Pid:    253515
CWD:    /home/cat/s204775/projects/Bachelor_project/OH_missing_features
Python: 3.10.4
gpaw:   /home/modules/software/GPAW/22.8.0-intel-2022a/lib/python3.10/site-packages/gpaw
_gpaw:  /home/modules/software/GPAW/22.8.0-intel-2022a/lib/python3.10/site-packages/
        _gpaw.cpython-310-x86_64-linux-gnu.so
ase:    /home/modules/software/ASE/3.22.1-intel-2022a/lib/python3.10/site-packages/ase (version 3.22.1)
numpy:  /home/modules/software/SciPy-bundle/2022.05-intel-2022a/lib/python3.10/site-packages/numpy (version 1.22.3)
scipy:  /home/modules/software/SciPy-bundle/2022.05-intel-2022a/lib/python3.10/site-packages/scipy (version 1.8.1)
libxc:  5.2.3
units:  Angstrom and eV
cores: 40
OpenMP: False
OMP_NUM_THREADS: 1

Input parameters:
  basis: dzp
  h: 0.18
  kpts: {size: (4, 4, 1)}
  xc: BEEF-vdW

System changes: positions, numbers, cell, pbc, initial_charges, initial_magmoms 

Initialize ...

species:
  Ir:
    name: Iridium
    id: fcdd1dd1ce91fa61afbba7769971f98a
    Z: 77.0
    valence: 15
    core: 62
    charge: 0.0
    file: /home/modules/software/GPAW-setups/0.9.20000/Ir.PBE.gz
    compensation charges: {type: gauss,
                           rc: 0.40,
                           lmax: 2}
    cutoffs: {filter: 2.40,
              core: 2.36}
    valence states:
      #              energy  rcut
      - 6s(2.00)    -6.307   1.296
      - 5p(6.00)   -54.741   1.328
      - 6p(0.00)    -1.224   1.328
      - 5d(7.00)    -7.169   1.286
      -  s          20.905   1.296
      -  d          20.043   1.286
  
    # LCAO basis set for Ir:
    #   Name: dzp
    #   File: /home/modules/software/GPAW-setups/0.9.20000/Ir.dzp.basis.gz
    #   Number of radial functions: 9
    #   Number of spherical harmonics: 27
    #     l=0, rc=8.4062 Bohr: 6s-sz confined orbital
    #     l=1, rc=3.6406 Bohr: 5p-sz confined orbital
    #     l=1, rc=12.7031 Bohr: 6p-sz confined orbital
    #     l=2, rc=6.0469 Bohr: 5d-sz confined orbital
    #     l=0, rc=4.9844 Bohr: 6s-dz split-valence wave
    #     l=1, rc=2.4062 Bohr: 5p-dz split-valence wave
    #     l=1, rc=7.7969 Bohr: 6p-dz split-valence wave
    #     l=2, rc=3.5938 Bohr: 5d-dz split-valence wave
    #     l=1, rc=8.4062 Bohr: p-type Gaussian polarization
    #   Number of RI-basis functions 0

  O:
    name: Oxygen
    id: 32ecd46bf208036f09c70b0ec9a88b78
    Z: 8.0
    valence: 6
    core: 2
    charge: 0.0
    file: /home/modules/software/GPAW-setups/0.9.20000/O.PBE.gz
    compensation charges: {type: gauss,
                           rc: 0.21,
                           lmax: 2}
    cutoffs: {filter: 1.17,
              core: 0.83}
    valence states:
      #              energy  rcut
      - 2s(2.00)   -23.961   0.688
      - 2p(4.00)    -9.029   0.598
      -  s           3.251   0.688
      -  p          18.182   0.598
      -  d           0.000   0.619
  
    # LCAO basis set for O:
    #   Name: dzp
    #   File: /home/modules/software/GPAW-setups/0.9.20000/O.dzp.basis.gz
    #   Number of radial functions: 5
    #   Number of spherical harmonics: 13
    #     l=0, rc=4.3438 Bohr: 2s-sz confined orbital
    #     l=1, rc=5.3906 Bohr: 2p-sz confined orbital
    #     l=0, rc=2.2969 Bohr: 2s-dz split-valence wave
    #     l=1, rc=2.8906 Bohr: 2p-dz split-valence wave
    #     l=2, rc=5.3906 Bohr: d-type Gaussian polarization
    #   Number of RI-basis functions 0

  H:
    name: Hydrogen
    id: d65de229564ff8ea4db303e23b6d1ecf
    Z: 1.0
    valence: 1
    core: 0
    charge: 0.0
    file: /home/modules/software/GPAW-setups/0.9.20000/H.PBE.gz
    compensation charges: {type: gauss,
                           rc: 0.15,
                           lmax: 2}
    cutoffs: {filter: 0.85,
              core: 0.53}
    valence states:
      #              energy  rcut
      - 1s(1.00)    -6.494   0.476
      -  s          20.717   0.476
      -  p           0.000   0.476
  
    # LCAO basis set for H:
    #   Name: dzp
    #   File: /home/modules/software/GPAW-setups/0.9.20000/H.dzp.basis.gz
    #   Number of radial functions: 3
    #   Number of spherical harmonics: 5
    #     l=0, rc=6.4219 Bohr: 1s-sz confined orbital
    #     l=0, rc=3.6094 Bohr: 1s-dz split-valence wave
    #     l=1, rc=6.4219 Bohr: p-type Gaussian polarization
    #   Number of RI-basis functions 0

Reference energy: -17443507.918545  # eV

Spin-paired calculation

Convergence criteria:
 Maximum [total energy] change in last 3 cyles: 0.0005 eV / electron
 Maximum integral of absolute [dens]ity change: 0.0001 electrons / valence electron
 Maximum integral of absolute [eigenst]ate change: 4e-08 eV^2 / valence electron
 Maximum number of scf [iter]ations: 333
 (Square brackets indicate name in SCF output, whereas a 'c' in
 the SCF output indicates the quantity has converged.)

Symmetries present (total): 1

  ( 1  0  0)
  ( 0  1  0)
  ( 0  0  1)

16 k-points: 4 x 4 x 1 Monkhorst-Pack grid
8 k-points in the irreducible part of the Brillouin zone
       k-points in crystal coordinates                weights
   0:     0.12500000   -0.37500000    0.00000000          2/16
   1:     0.12500000   -0.12500000    0.00000000          2/16
   2:     0.12500000    0.12500000    0.00000000          2/16
   3:     0.12500000    0.37500000    0.00000000          2/16
   4:     0.37500000   -0.37500000    0.00000000          2/16
   5:     0.37500000   -0.12500000    0.00000000          2/16
   6:     0.37500000    0.12500000    0.00000000          2/16
   7:     0.37500000    0.37500000    0.00000000          2/16

Wave functions: Uniform real-space grid
  Kinetic energy operator: 8*3+1=25 point O(h^6) finite-difference Laplacian
  ScaLapack parameters: grid=1x1, blocksize=None
  Wavefunction extrapolation:
    Improved wavefunction reuse through dual PAW basis 

Occupation numbers: Fermi-Dirac:
  width: 0.1000  # eV
 

Eigensolver
   Davidson(niter=2) 

Densities:
  Coarse grid: 40*40*148 grid
  Fine grid: 80*80*296 grid
  Total Charge: 0.000000 

Density mixing:
  Method: separate
  Backend: pulay
  Linear mixing parameter: 0.05
  old densities: 5
  Damping of long wavelength oscillations: 50 

Hamiltonian:
  XC and Coulomb potentials evaluated on a 80*80*296 grid
  Using the BEEF-vdW Exchange-Correlation functional
  Interpolation: tri-quintic (5. degree polynomial)
  Poisson solver: FastPoissonSolver using
    Stencil: 8*3+1=25 point O(h^6) finite-difference Laplacian
    FFT axes: [0, 1]
    FST axes: [2]
 

XC parameters: BEEF-vdW with 2 nearest neighbor stencil

Memory estimate:
  Process memory now: 212.41 MiB
  Calculator: 571.19 MiB
    Density: 60.02 MiB
      Arrays: 9.35 MiB
      Localized functions: 47.13 MiB
      Mixer: 3.54 MiB
    Hamiltonian: 9.93 MiB
      Arrays: 6.12 MiB
      XC: 0.00 MiB
      Poisson: 0.00 MiB
      vbar: 3.81 MiB
    Wavefunctions: 501.24 MiB
      Arrays psit_nG: 235.77 MiB
      Eigensolver: 256.24 MiB
      Projections: 0.68 MiB
      Projectors: 8.56 MiB

Total number of cores used: 40
Parallelization over k-points: 8
Domain decomposition: 1 x 1 x 5

Number of atoms: 38
Number of atomic orbitals: 990
Number of bands in calculation: 333
Number of valence electrons: 547
Bands to converge: occupied

... initialized

Initializing position-dependent things.

Density initialized from atomic densities
Creating initial wave functions:
  333 bands from LCAO basis set

                                            
                                            
                                            
                                            
                                            
                                            
                   H                        
                   O                        
          Ir     Ir     Ir                  
                                            
           IIr    IIr    IIr                
             IIr    IIr    IIr              
                                            
              IIr    IIr    IIr             
                                            
                Ir     Ir     Ir            
                  Ir     Ir     Ir          
          Ir     Ir     Ir                  
            Ir     Ir     Ir                
              Ir     Ir     Ir              
                                            
                                            
                                            
                                            

Positions:
   0 Ir     0.000000    0.000000    9.999999    ( 0.0000,  0.0000,  0.0000)
   1 Ir     1.378048    0.795616   12.250341    ( 0.0000,  0.0000,  0.0000)
   2 Ir     0.000000    1.592386   14.460828    ( 0.0000,  0.0000,  0.0000)
   3 Ir     0.000000   -0.000000   16.669904    ( 0.0000,  0.0000,  0.0000)
   4 Ir    -1.378048    2.386848    9.999999    ( 0.0000,  0.0000,  0.0000)
   5 Ir     0.000000    3.182464   12.250341    ( 0.0000,  0.0000,  0.0000)
   6 Ir    -1.378795    3.977649   14.461289    ( 0.0000,  0.0000,  0.0000)
   7 Ir    -1.377934    2.386749   16.674368    ( 0.0000,  0.0000,  0.0000)
   8 Ir    -2.756095    4.773697    9.999999    ( 0.0000,  0.0000,  0.0000)
   9 Ir    -1.378048    5.569313   12.250341    ( 0.0000,  0.0000,  0.0000)
  10 Ir    -2.755096    6.364352   14.460828    ( 0.0000,  0.0000,  0.0000)
  11 Ir    -2.756125    4.773845   16.674368    ( 0.0000,  0.0000,  0.0000)
  12 Ir     2.756095    0.000000    9.999999    ( 0.0000,  0.0000,  0.0000)
  13 Ir     4.134143    0.795616   12.250341    ( 0.0000,  0.0000,  0.0000)
  14 Ir     2.756900    1.591697   14.460969    ( 0.0000,  0.0000,  0.0000)
  15 Ir     2.755952   -0.000048   16.674368    ( 0.0000,  0.0000,  0.0000)
  16 Ir     1.378048    2.386848    9.999999    ( 0.0000,  0.0000,  0.0000)
  17 Ir     2.756095    3.182464   12.250341    ( 0.0000,  0.0000,  0.0000)
  18 Ir     1.378795    3.977649   14.461289    ( 0.0000,  0.0000,  0.0000)
  19 Ir     1.377934    2.386749   16.674368    ( 0.0000,  0.0000,  0.0000)
  20 Ir     0.000000    4.773697    9.999999    ( 0.0000,  0.0000,  0.0000)
  21 Ir     1.378048    5.569313   12.250341    ( 0.0000,  0.0000,  0.0000)
  22 Ir     0.000000    6.365791   14.461289    ( 0.0000,  0.0000,  0.0000)
  23 Ir     0.000000    4.773697   16.672467    ( 0.0000,  0.0000,  0.0000)
  24 Ir     5.512190    0.000000    9.999999    ( 0.0000,  0.0000,  0.0000)
  25 Ir     6.890238    0.795616   12.250341    ( 0.0000,  0.0000,  0.0000)
  26 Ir     5.511385    1.591697   14.460969    ( 0.0000,  0.0000,  0.0000)
  27 Ir     5.512333   -0.000048   16.674368    ( 0.0000,  0.0000,  0.0000)
  28 Ir     4.134143    2.386848    9.999999    ( 0.0000,  0.0000,  0.0000)
  29 Ir     5.512190    3.182464   12.250341    ( 0.0000,  0.0000,  0.0000)
  30 Ir     4.134143    3.977150   14.460969    ( 0.0000,  0.0000,  0.0000)
  31 Ir     4.134143    2.386848   16.673700    ( 0.0000,  0.0000,  0.0000)
  32 Ir     2.756095    4.773697    9.999999    ( 0.0000,  0.0000,  0.0000)
  33 Ir     4.134143    5.569313   12.250341    ( 0.0000,  0.0000,  0.0000)
  34 Ir     2.755096    6.364352   14.460828    ( 0.0000,  0.0000,  0.0000)
  35 Ir     2.756125    4.773845   16.674368    ( 0.0000,  0.0000,  0.0000)
  36 O      1.377934    2.386749   18.674368    ( 0.0000,  0.0000,  0.0000)
  37 H      1.377934    2.386749   19.634368    ( 0.0000,  0.0000,  0.0000)

Unit cell:
           periodic     x           y           z      points  spacing
  1. axis:    yes    8.268285    0.000000    0.000000    40     0.1790
  2. axis:    yes   -4.134143    7.160545    0.000000    40     0.1790
  3. axis:    no     0.000000    0.000000   26.751025   148     0.1808

  Lengths:   8.268285   8.268285  26.751025
  Angles:   90.000000  90.000000 120.000000

Effective grid spacing dv^(1/3) = 0.1884

     iter     time        total  log10-change:
                         energy  eigst   dens
iter:   1 11:51:13 -11745.046409
iter:   2 11:51:57 -11771.626256  -0.74  -1.45
iter:   3 11:52:40 -11744.319359  -1.31  -1.26
iter:   4 11:53:24 -11742.850286  -1.74  -1.48
iter:   5 11:54:07 -11744.350167  -1.55  -1.58
iter:   6 11:54:51 -11744.125006  -2.56  -1.73
iter:   7 11:55:34 -11743.214262  -2.76  -1.73
iter:   8 11:56:18 -11743.733783  -1.88  -1.82
iter:   9 11:57:02 -11743.688694  -2.39  -2.39
iter:  10 11:57:45 -11743.715998c -2.96  -2.46
iter:  11 11:58:28 -11743.642932c -3.19  -2.40
iter:  12 11:59:12 -11743.651631c -3.39  -2.55
iter:  13 11:59:55 -11743.593070c -3.11  -2.53
iter:  14 12:00:39 -11743.591631c -3.58  -2.76
iter:  15 12:01:22 -11743.594180c -4.06  -2.81
iter:  16 12:02:06 -11743.604280c -4.23  -2.88
iter:  17 12:02:49 -11743.605922c -3.99  -2.85
iter:  18 12:03:33 -11743.602473c -4.19  -2.93
iter:  19 12:04:16 -11743.604938c -4.27  -3.10
iter:  20 12:04:59 -11743.604219c -4.09  -3.19
iter:  21 12:05:43 -11743.604187c -4.50  -3.56
iter:  22 12:06:26 -11743.603613c -4.99  -3.64
iter:  23 12:07:10 -11743.603832c -5.26  -3.85
iter:  24 12:07:53 -11743.603430c -5.61  -3.96
iter:  25 12:08:37 -11743.603549c -6.05  -4.20c
iter:  26 12:09:20 -11743.603460c -6.34  -4.28c
iter:  27 12:10:03 -11743.603533c -6.63  -4.22c
iter:  28 12:10:47 -11743.603471c -6.80  -4.41c
iter:  29 12:11:30 -11743.603410c -7.14  -4.49c
iter:  30 12:12:14 -11743.603514c -7.44c -4.57c

Converged after 30 iterations.

Dipole moment: (-4.405033, -7.623435, 0.237056) |e|*Ang

Energy contributions relative to reference atoms: (reference = -17443507.918545)

Kinetic:       +1096.492910
Potential:     -1050.098845
External:        +0.000000
XC:            -11783.428249
Entropy (-ST):   -1.506526
Local:           -5.816067
--------------------------
Free energy:   -11744.356777
Extrapolated:  -11743.603514

Showing only first 2 kpts
 Kpt  Band  Eigenvalues  Occupancy
  0   271     -5.52456    1.26452
  0   272     -5.48842    1.09001
  0   273     -5.46727    0.98449
  0   274     -5.39566    0.64293

  1   271     -5.58016    1.49972
  1   272     -5.51130    1.20184
  1   273     -5.48297    1.06293
  1   274     -5.43752    0.83719


Fermi level: -5.47037

No gap

Forces in eV/Ang:
  0 Ir   -0.01353    0.01824    0.31421
  1 Ir    0.00552   -0.01560   -0.36308
  2 Ir    0.23178    0.12784    0.24059
  3 Ir   -0.19540   -0.33626   -0.13004
  4 Ir    0.00781   -0.02249    0.33420
  5 Ir   -0.03906    0.02576   -0.35139
  6 Ir    0.02490   -0.01553   -0.00691
  7 Ir   -0.37379    0.00979   -0.12742
  8 Ir    0.00805   -0.00627    0.32770
  9 Ir    0.00098    0.01096   -0.32827
 10 Ir    0.00908    0.00897   -0.00022
 11 Ir   -0.00482    0.00203    0.06200
 12 Ir    0.02965    0.01548    0.33493
 13 Ir    0.07175   -0.05439   -0.33464
 14 Ir   -0.21453    0.12884    0.24372
 15 Ir    0.18609   -0.31430   -0.12835
 16 Ir    0.00498    0.00106    0.29583
 17 Ir    0.00507    0.02853   -0.36632
 18 Ir    0.00534   -0.26700    0.23841
 19 Ir   -0.00283    0.00290    0.73213
 20 Ir    0.02664    0.00455    0.31426
 21 Ir   -0.01072    0.10270   -0.32594
 22 Ir   -0.00506   -0.02399   -0.05860
 23 Ir   -0.19414    0.31782   -0.12243
 24 Ir   -0.00452    0.00073    0.21369
 25 Ir   -0.11039   -0.03609   -0.33434
 26 Ir    0.01543    0.01893   -0.05359
 27 Ir   -0.00904    0.00568    0.08074
 28 Ir   -0.00059   -0.03060    0.31648
 29 Ir   -0.00040    0.00167   -0.34063
 30 Ir   -0.00160   -0.01764    0.00287
 31 Ir    0.36567   -0.00335   -0.13009
 32 Ir   -0.02409   -0.00060    0.34080
 33 Ir   -0.02160   -0.00657   -0.34100
 34 Ir    0.03585   -0.01853   -0.04783
 35 Ir    0.19364    0.33594   -0.13056
 36 O    -0.00242    0.00546   -0.06576
 37 H    -0.00065   -0.00474   -0.15642

      Step     Time          Energy         fmax
BFGS:    0 12:12:39   -11743.603514        0.7321
System changes: positions 

Initializing position-dependent things.

Density initialized from wave functions
                                            
                                            
                                            
                                            
                                            
                                            
                   H                        
                   O                        
          Ir     Ir     Ir                  
                                            
           IIr    IIr    IIr                
             IIr    IIr    IIr              
                                            
              IIr    IIr    IIr             
                                            
                Ir     Ir     Ir            
                  Ir     Ir     Ir          
          Ir     Ir     Ir                  
            Ir     Ir     Ir                
              Ir     Ir     Ir              
                                            
                                            
                                            
                                            

Positions:
   0 Ir     0.000000    0.000000    9.999999    ( 0.0000,  0.0000,  0.0000)
   1 Ir     1.378048    0.795616   12.250341    ( 0.0000,  0.0000,  0.0000)
   2 Ir     0.003311    1.594212   14.464265    ( 0.0000,  0.0000,  0.0000)
   3 Ir    -0.002791   -0.004804   16.668046    ( 0.0000,  0.0000,  0.0000)
   4 Ir    -1.378048    2.386848    9.999999    ( 0.0000,  0.0000,  0.0000)
   5 Ir     0.000000    3.182464   12.250341    ( 0.0000,  0.0000,  0.0000)
   6 Ir    -1.378439    3.977427   14.461190    ( 0.0000,  0.0000,  0.0000)
   7 Ir    -1.383274    2.386888   16.672548    ( 0.0000,  0.0000,  0.0000)
   8 Ir    -2.756095    4.773697    9.999999    ( 0.0000,  0.0000,  0.0000)
   9 Ir    -1.378048    5.569313   12.250341    ( 0.0000,  0.0000,  0.0000)
  10 Ir    -2.754966    6.364480   14.460825    ( 0.0000,  0.0000,  0.0000)
  11 Ir    -2.756194    4.773873   16.675254    ( 0.0000,  0.0000,  0.0000)
  12 Ir     2.756095    0.000000    9.999999    ( 0.0000,  0.0000,  0.0000)
  13 Ir     4.134143    0.795616   12.250341    ( 0.0000,  0.0000,  0.0000)
  14 Ir     2.753836    1.593538   14.464450    ( 0.0000,  0.0000,  0.0000)
  15 Ir     2.758610   -0.004538   16.672535    ( 0.0000,  0.0000,  0.0000)
  16 Ir     1.378048    2.386848    9.999999    ( 0.0000,  0.0000,  0.0000)
  17 Ir     2.756095    3.182464   12.250341    ( 0.0000,  0.0000,  0.0000)
  18 Ir     1.378871    3.973835   14.464695    ( 0.0000,  0.0000,  0.0000)
  19 Ir     1.377894    2.386790   16.684827    ( 0.0000,  0.0000,  0.0000)
  20 Ir     0.000000    4.773697    9.999999    ( 0.0000,  0.0000,  0.0000)
  21 Ir     1.378048    5.569313   12.250341    ( 0.0000,  0.0000,  0.0000)
  22 Ir    -0.000072    6.365449   14.460452    ( 0.0000,  0.0000,  0.0000)
  23 Ir    -0.002773    4.778237   16.670718    ( 0.0000,  0.0000,  0.0000)
  24 Ir     5.512190    0.000000    9.999999    ( 0.0000,  0.0000,  0.0000)
  25 Ir     6.890238    0.795616   12.250341    ( 0.0000,  0.0000,  0.0000)
  26 Ir     5.511605    1.591968   14.460203    ( 0.0000,  0.0000,  0.0000)
  27 Ir     5.512204    0.000033   16.675522    ( 0.0000,  0.0000,  0.0000)
  28 Ir     4.134143    2.386848    9.999999    ( 0.0000,  0.0000,  0.0000)
  29 Ir     5.512190    3.182464   12.250341    ( 0.0000,  0.0000,  0.0000)
  30 Ir     4.134120    3.976898   14.461010    ( 0.0000,  0.0000,  0.0000)
  31 Ir     4.139366    2.386800   16.671841    ( 0.0000,  0.0000,  0.0000)
  32 Ir     2.756095    4.773697    9.999999    ( 0.0000,  0.0000,  0.0000)
  33 Ir     4.134143    5.569313   12.250341    ( 0.0000,  0.0000,  0.0000)
  34 Ir     2.755608    6.364087   14.460145    ( 0.0000,  0.0000,  0.0000)
  35 Ir     2.758891    4.778644   16.672503    ( 0.0000,  0.0000,  0.0000)
  36 O      1.377900    2.386827   18.673429    ( 0.0000,  0.0000,  0.0000)
  37 H      1.377925    2.386681   19.632134    ( 0.0000,  0.0000,  0.0000)

Unit cell:
           periodic     x           y           z      points  spacing
  1. axis:    yes    8.268285    0.000000    0.000000    40     0.1790
  2. axis:    yes   -4.134143    7.160545    0.000000    40     0.1790
  3. axis:    no     0.000000    0.000000   26.751025   148     0.1808

  Lengths:   8.268285   8.268285  26.751025
  Angles:   90.000000  90.000000 120.000000

Effective grid spacing dv^(1/3) = 0.1884

     iter     time        total  log10-change:
                         energy  eigst   dens
iter:   1 12:14:24 -11743.643302  -2.89
iter:   2 12:15:08 -11743.695911  -3.52  -2.91
iter:   3 12:15:52 -11743.658326c -3.87  -2.64
iter:   4 12:16:37 -11743.630701c -4.52  -2.82
iter:   5 12:17:21 -11743.629714c -5.16  -3.30
iter:   6 12:18:05 -11743.629438c -5.21  -3.51
iter:   7 12:18:49 -11743.629121c -5.32  -3.67
iter:   8 12:19:33 -11743.628813c -5.35  -3.86
iter:   9 12:20:17 -11743.628948c -5.81  -4.05c
iter:  10 12:21:02 -11743.628851c -6.66  -4.25c
iter:  11 12:21:46 -11743.628968c -6.70  -4.29c
iter:  12 12:22:30 -11743.628916c -6.56  -4.11c
iter:  13 12:23:14 -11743.628851c -6.87  -4.23c
iter:  14 12:23:58 -11743.628913c -7.23  -4.57c
iter:  15 12:24:42 -11743.628896c -7.63c -4.74c

Converged after 15 iterations.

Dipole moment: (-4.076440, -7.207189, 0.247203) |e|*Ang

Energy contributions relative to reference atoms: (reference = -17443507.918545)

Kinetic:       +1095.481921
Potential:     -1049.232815
External:        +0.000000
XC:            -11783.392480
Entropy (-ST):   -1.505790
Local:           -5.732627
--------------------------
Free energy:   -11744.381791
Extrapolated:  -11743.628896

Showing only first 2 kpts
 Kpt  Band  Eigenvalues  Occupancy
  0   271     -5.51485    1.25785
  0   272     -5.48115    1.09501
  0   273     -5.45931    0.98607
  0   274     -5.38724    0.64226

  1   271     -5.57297    1.50380
  1   272     -5.50640    1.21798
  1   273     -5.47269    1.05294
  1   274     -5.43299    0.85551


Fermi level: -5.46209

No gap

Forces in eV/Ang:
  0 Ir   -0.01231    0.01777    0.30865
  1 Ir    0.00622   -0.01111   -0.36055
  2 Ir    0.19605    0.10478    0.21499
  3 Ir   -0.16605   -0.28816   -0.10442
  4 Ir    0.00823   -0.02146    0.32851
  5 Ir   -0.03459    0.02312   -0.35006
  6 Ir    0.01951   -0.01188   -0.01870
  7 Ir   -0.31382    0.01202   -0.10279
  8 Ir    0.00838   -0.00645    0.32500
  9 Ir    0.00421    0.01252   -0.33233
 10 Ir    0.00946    0.00567   -0.01275
 11 Ir   -0.00414    0.00198    0.05797
 12 Ir    0.02838    0.01498    0.32945
 13 Ir    0.06200   -0.04855   -0.32085
 14 Ir   -0.17969    0.10692    0.21315
 15 Ir    0.15582   -0.26461   -0.10536
 16 Ir    0.00525    0.00084    0.29275
 17 Ir    0.00175    0.02591   -0.36392
 18 Ir    0.00465   -0.22421    0.21361
 19 Ir   -0.00168    0.00370    0.56718
 20 Ir    0.02589    0.00364    0.30864
 21 Ir   -0.01024    0.08983   -0.31233
 22 Ir    0.00543   -0.01533   -0.07529
 23 Ir   -0.16930    0.27353   -0.09789
 24 Ir   -0.00421    0.00061    0.22073
 25 Ir   -0.09930   -0.02987   -0.32055
 26 Ir    0.01347    0.00458   -0.07037
 27 Ir   -0.00715    0.00425    0.06104
 28 Ir   -0.00075   -0.02928    0.31101
 29 Ir   -0.00035   -0.00201   -0.34475
 30 Ir    0.00090   -0.01463   -0.01047
 31 Ir    0.31610   -0.00053   -0.10520
 32 Ir   -0.02303   -0.00141    0.33516
 33 Ir   -0.02325   -0.00601   -0.34545
 34 Ir    0.02096   -0.01127   -0.06701
 35 Ir    0.16528    0.28474   -0.10684
 36 O    -0.00402    0.00355   -0.01588
 37 H    -0.00068   -0.00519   -0.09306

BFGS:    1 12:25:07   -11743.628896        0.5672
System changes: positions 

Initializing position-dependent things.

Density initialized from wave functions
                                            
                                            
                                            
                                            
                                            
                                            
                   H                        
                   O                        
          Ir     Ir     Ir                  
                                            
           IIr    IIr    IIr                
             IIr    IIr    IIr              
                                            
              IIr    IIr    IIr             
                                            
                Ir     Ir     Ir            
                  Ir     Ir     Ir          
          Ir     Ir     Ir                  
            Ir     Ir     Ir                
              Ir     Ir     Ir              
                                            
                                            
                                            
                                            

Positions:
   0 Ir     0.000000    0.000000    9.999999    ( 0.0000,  0.0000,  0.0000)
   1 Ir     1.378048    0.795616   12.250341    ( 0.0000,  0.0000,  0.0000)
   2 Ir     0.019994    1.603137   14.482530    ( 0.0000,  0.0000,  0.0000)
   3 Ir    -0.016920   -0.029315   16.659146    ( 0.0000,  0.0000,  0.0000)
   4 Ir    -1.378048    2.386848    9.999999    ( 0.0000,  0.0000,  0.0000)
   5 Ir     0.000000    3.182464   12.250341    ( 0.0000,  0.0000,  0.0000)
   6 Ir    -1.376775    3.976413   14.459633    ( 0.0000,  0.0000,  0.0000)
   7 Ir    -1.409985    2.387902   16.663788    ( 0.0000,  0.0000,  0.0000)
   8 Ir    -2.756095    4.773697    9.999999    ( 0.0000,  0.0000,  0.0000)
   9 Ir    -1.378048    5.569313   12.250341    ( 0.0000,  0.0000,  0.0000)
  10 Ir    -2.754165    6.364968   14.459772    ( 0.0000,  0.0000,  0.0000)
  11 Ir    -2.756546    4.774041   16.680173    ( 0.0000,  0.0000,  0.0000)
  12 Ir     2.756095    0.000000    9.999999    ( 0.0000,  0.0000,  0.0000)
  13 Ir     4.134143    0.795616   12.250341    ( 0.0000,  0.0000,  0.0000)
  14 Ir     2.738540    1.602641   14.482570    ( 0.0000,  0.0000,  0.0000)
  15 Ir     2.771874   -0.027058   16.663561    ( 0.0000,  0.0000,  0.0000)
  16 Ir     1.378048    2.386848    9.999999    ( 0.0000,  0.0000,  0.0000)
  17 Ir     2.756095    3.182464   12.250341    ( 0.0000,  0.0000,  0.0000)
  18 Ir     1.379266    3.954752   14.482841    ( 0.0000,  0.0000,  0.0000)
  19 Ir     1.377749    2.387101   16.733225    ( 0.0000,  0.0000,  0.0000)
  20 Ir     0.000000    4.773697    9.999999    ( 0.0000,  0.0000,  0.0000)
  21 Ir     1.378048    5.569313   12.250341    ( 0.0000,  0.0000,  0.0000)
  22 Ir     0.000365    6.364132   14.454112    ( 0.0000,  0.0000,  0.0000)
  23 Ir    -0.017167    4.801501   16.662374    ( 0.0000,  0.0000,  0.0000)
  24 Ir     5.512190    0.000000    9.999999    ( 0.0000,  0.0000,  0.0000)
  25 Ir     6.890238    0.795616   12.250341    ( 0.0000,  0.0000,  0.0000)
  26 Ir     5.512750    1.592387   14.454279    ( 0.0000,  0.0000,  0.0000)
  27 Ir     5.511594    0.000396   16.680734    ( 0.0000,  0.0000,  0.0000)
  28 Ir     4.134143    2.386848    9.999999    ( 0.0000,  0.0000,  0.0000)
  29 Ir     5.512190    3.182464   12.250341    ( 0.0000,  0.0000,  0.0000)
  30 Ir     4.134191    3.975652   14.460152    ( 0.0000,  0.0000,  0.0000)
  31 Ir     4.166247    2.386749   16.662877    ( 0.0000,  0.0000,  0.0000)
  32 Ir     2.756095    4.773697    9.999999    ( 0.0000,  0.0000,  0.0000)
  33 Ir     4.134143    5.569313   12.250341    ( 0.0000,  0.0000,  0.0000)
  34 Ir     2.757415    6.363117   14.454511    ( 0.0000,  0.0000,  0.0000)
  35 Ir     2.772951    4.802872   16.663402    ( 0.0000,  0.0000,  0.0000)
  36 O      1.377563    2.387132   18.671975    ( 0.0000,  0.0000,  0.0000)
  37 H      1.377868    2.386242   19.624114    ( 0.0000,  0.0000,  0.0000)

Unit cell:
           periodic     x           y           z      points  spacing
  1. axis:    yes    8.268285    0.000000    0.000000    40     0.1790
  2. axis:    yes   -4.134143    7.160545    0.000000    40     0.1790
  3. axis:    no     0.000000    0.000000   26.751025   148     0.1808

  Lengths:   8.268285   8.268285  26.751025
  Angles:   90.000000  90.000000 120.000000

Effective grid spacing dv^(1/3) = 0.1884

     iter     time        total  log10-change:
                         energy  eigst   dens
iter:   1 12:26:52 -11745.151653  -1.53
iter:   2 12:27:36 -11768.861237  -1.31  -1.95
iter:   3 12:28:20 -11744.088701  -1.76  -1.36
iter:   4 12:29:05 -11743.733946  -2.61  -2.29
iter:   5 12:29:49 -11743.703816  -3.43  -2.67
iter:   6 12:30:33 -11743.695777c -3.65  -2.90
iter:   7 12:31:18 -11743.689602c -3.84  -3.05
iter:   8 12:32:02 -11743.687094c -4.01  -3.19
iter:   9 12:32:46 -11743.686641c -4.67  -3.46
iter:  10 12:33:31 -11743.686865c -5.33  -3.57
iter:  11 12:34:15 -11743.687303c -5.16  -3.52
iter:  12 12:35:00 -11743.686458c -5.20  -3.57
iter:  13 12:35:44 -11743.686896c -5.88  -3.98
iter:  14 12:36:28 -11743.686612c -6.56  -3.91
iter:  15 12:37:13 -11743.686634c -6.17  -4.02c
iter:  16 12:37:57 -11743.686752c -6.01  -4.13c
iter:  17 12:38:41 -11743.686614c -6.94  -4.03c
iter:  18 12:39:26 -11743.686640c -7.31  -4.35c
iter:  19 12:40:10 -11743.686557c -7.00  -4.44c
iter:  20 12:40:54 -11743.686696c -7.19  -4.55c
iter:  21 12:41:39 -11743.686624c -7.36  -4.54c
iter:  22 12:42:23 -11743.686625c -7.87c -4.82c

Converged after 22 iterations.

Dipole moment: (-2.434922, -5.062128, 0.291645) |e|*Ang

Energy contributions relative to reference atoms: (reference = -17443507.918545)

Kinetic:       +1098.776204
Potential:     -1052.178132
External:        +0.000000
XC:            -11783.797443
Entropy (-ST):   -1.500401
Local:           -5.737054
--------------------------
Free energy:   -11744.436825
Extrapolated:  -11743.686625

Showing only first 2 kpts
 Kpt  Band  Eigenvalues  Occupancy
  0   271     -5.46845    1.23066
  0   272     -5.44656    1.12481
  0   273     -5.42033    0.99431
  0   274     -5.34485    0.63458

  1   271     -5.53616    1.51788
  1   272     -5.48959    1.32800
  1   273     -5.42353    1.01029
  1   274     -5.40802    0.93283


Fermi level: -5.42147

No gap

Forces in eV/Ang:
  0 Ir   -0.00555    0.01732    0.30637
  1 Ir    0.00843    0.00124   -0.35076
  2 Ir    0.00217   -0.01691    0.11276
  3 Ir    0.01006    0.00405    0.03714
  4 Ir    0.01130   -0.01556    0.32571
  5 Ir   -0.02072    0.01421   -0.34534
  6 Ir    0.01433   -0.00747   -0.04557
  7 Ir    0.01959    0.01550    0.01374
  8 Ir    0.00933   -0.00694    0.33591
  9 Ir    0.02021    0.02046   -0.34813
 10 Ir    0.00794    0.01418   -0.04359
 11 Ir   -0.00051    0.00166    0.02874
 12 Ir    0.02039    0.01421    0.32779
 13 Ir    0.02758   -0.02815   -0.25518
 14 Ir   -0.00694   -0.00953    0.10231
 15 Ir   -0.01336    0.01121    0.00560
 16 Ir    0.00546    0.00068    0.30442
 17 Ir   -0.00782    0.01824   -0.35418
 18 Ir    0.00068    0.00804    0.10979
 19 Ir    0.00278    0.00386   -0.21136
 20 Ir    0.02223   -0.00210    0.30599
 21 Ir   -0.00794    0.04146   -0.24660
 22 Ir    0.05414    0.02391   -0.11874
 23 Ir   -0.01366    0.00351    0.02797
 24 Ir   -0.00379    0.00053    0.26421
 25 Ir   -0.05697   -0.00691   -0.25365
 26 Ir    0.00724   -0.06121   -0.11279
 27 Ir    0.00238   -0.00261   -0.06019
 28 Ir   -0.00402   -0.02184    0.30961
 29 Ir    0.00097   -0.02040   -0.36092
 30 Ir   -0.00857   -0.01078   -0.04391
 31 Ir    0.01123    0.01055    0.02398
 32 Ir   -0.01937   -0.00684    0.33246
 33 Ir   -0.03204   -0.00176   -0.36364
 34 Ir   -0.04753    0.02407   -0.12386
 35 Ir    0.00795    0.00267   -0.00645
 36 O    -0.00872    0.00130    0.20385
 37 H     0.00007   -0.00771    0.22446

BFGS:    2 12:42:48   -11743.686625        0.2246
System changes: positions 

Initializing position-dependent things.

Density initialized from wave functions
                                            
                                            
                                            
                                            
                                            
                                            
                   H                        
                   O                        
          Ir     Ir     Ir                  
                                            
           IIr    IIr    IIr                
             IIr    IIr    IIr              
                                            
              IIr    IIr    IIr             
                                            
                Ir     Ir     Ir            
                  Ir     Ir     Ir          
          Ir     Ir     Ir                  
            Ir     Ir     Ir                
              Ir     Ir     Ir              
                                            
                                            
                                            
                                            

Positions:
   0 Ir     0.000000    0.000000    9.999999    ( 0.0000,  0.0000,  0.0000)
   1 Ir     1.378048    0.795616   12.250341    ( 0.0000,  0.0000,  0.0000)
   2 Ir     0.019755    1.602772   14.483743    ( 0.0000,  0.0000,  0.0000)
   3 Ir    -0.016555   -0.028859   16.659782    ( 0.0000,  0.0000,  0.0000)
   4 Ir    -1.378048    2.386848    9.999999    ( 0.0000,  0.0000,  0.0000)
   5 Ir     0.000000    3.182464   12.250341    ( 0.0000,  0.0000,  0.0000)
   6 Ir    -1.376604    3.976325   14.459065    ( 0.0000,  0.0000,  0.0000)
   7 Ir    -1.409295    2.388088   16.664105    ( 0.0000,  0.0000,  0.0000)
   8 Ir    -2.756095    4.773697    9.999999    ( 0.0000,  0.0000,  0.0000)
   9 Ir    -1.378048    5.569313   12.250341    ( 0.0000,  0.0000,  0.0000)
  10 Ir    -2.754074    6.365156   14.459223    ( 0.0000,  0.0000,  0.0000)
  11 Ir    -2.756547    4.774061   16.680472    ( 0.0000,  0.0000,  0.0000)
  12 Ir     2.756095    0.000000    9.999999    ( 0.0000,  0.0000,  0.0000)
  13 Ir     4.134143    0.795616   12.250341    ( 0.0000,  0.0000,  0.0000)
  14 Ir     2.738688    1.602370   14.483653    ( 0.0000,  0.0000,  0.0000)
  15 Ir     2.771483   -0.026547   16.663775    ( 0.0000,  0.0000,  0.0000)
  16 Ir     1.378048    2.386848    9.999999    ( 0.0000,  0.0000,  0.0000)
  17 Ir     2.756095    3.182464   12.250341    ( 0.0000,  0.0000,  0.0000)
  18 Ir     1.379269    3.955164   14.484015    ( 0.0000,  0.0000,  0.0000)
  19 Ir     1.377788    2.387146   16.729685    ( 0.0000,  0.0000,  0.0000)
  20 Ir     0.000000    4.773697    9.999999    ( 0.0000,  0.0000,  0.0000)
  21 Ir     1.378048    5.569313   12.250341    ( 0.0000,  0.0000,  0.0000)
  22 Ir     0.001072    6.364467   14.452655    ( 0.0000,  0.0000,  0.0000)
  23 Ir    -0.017111    4.801165   16.662876    ( 0.0000,  0.0000,  0.0000)
  24 Ir     5.512190    0.000000    9.999999    ( 0.0000,  0.0000,  0.0000)
  25 Ir     6.890238    0.795616   12.250341    ( 0.0000,  0.0000,  0.0000)
  26 Ir     5.512829    1.591573   14.452895    ( 0.0000,  0.0000,  0.0000)
  27 Ir     5.511635    0.000356   16.679849    ( 0.0000,  0.0000,  0.0000)
  28 Ir     4.134143    2.386848    9.999999    ( 0.0000,  0.0000,  0.0000)
  29 Ir     5.512190    3.182464   12.250341    ( 0.0000,  0.0000,  0.0000)
  30 Ir     4.134069    3.975525   14.459596    ( 0.0000,  0.0000,  0.0000)
  31 Ir     4.165954    2.386888   16.663337    ( 0.0000,  0.0000,  0.0000)
  32 Ir     2.756095    4.773697    9.999999    ( 0.0000,  0.0000,  0.0000)
  33 Ir     4.134143    5.569313   12.250341    ( 0.0000,  0.0000,  0.0000)
  34 Ir     2.756760    6.363450   14.452975    ( 0.0000,  0.0000,  0.0000)
  35 Ir     2.772830    4.802518   16.663454    ( 0.0000,  0.0000,  0.0000)
  36 O      1.377454    2.387146   18.674683    ( 0.0000,  0.0000,  0.0000)
  37 H      1.377870    2.386147   19.627208    ( 0.0000,  0.0000,  0.0000)

Unit cell:
           periodic     x           y           z      points  spacing
  1. axis:    yes    8.268285    0.000000    0.000000    40     0.1790
  2. axis:    yes   -4.134143    7.160545    0.000000    40     0.1790
  3. axis:    no     0.000000    0.000000   26.751025   148     0.1808

  Lengths:   8.268285   8.268285  26.751025
  Angles:   90.000000  90.000000 120.000000

Effective grid spacing dv^(1/3) = 0.1884

     iter     time        total  log10-change:
                         energy  eigst   dens
iter:   1 12:44:34 -11743.704924  -3.81
iter:   2 12:45:18 -11743.903771  -3.50  -3.01
iter:   3 12:46:03 -11743.693061c -3.82  -2.36
iter:   4 12:46:48 -11743.691012c -4.86  -3.21
iter:   5 12:47:32 -11743.689642c -5.43  -3.60
iter:   6 12:48:17 -11743.689589c -6.08  -4.05c
iter:   7 12:49:02 -11743.689537c -6.21  -4.13c
iter:   8 12:49:46 -11743.689517c -6.17  -4.25c
iter:   9 12:50:31 -11743.689544c -6.41  -4.23c
iter:  10 12:51:15 -11743.689543c -7.28  -4.67c
iter:  11 12:52:00 -11743.689547c -7.68c -4.70c

Converged after 11 iterations.

Dipole moment: (-2.486548, -5.089997, 0.286379) |e|*Ang

Energy contributions relative to reference atoms: (reference = -17443507.918545)

Kinetic:       +1098.469255
Potential:     -1051.903464
External:        +0.000000
XC:            -11783.757768
Entropy (-ST):   -1.499969
Local:           -5.747585
--------------------------
Free energy:   -11744.439531
Extrapolated:  -11743.689547

Showing only first 2 kpts
 Kpt  Band  Eigenvalues  Occupancy
  0   271     -5.47418    1.23326
  0   272     -5.45163    1.12428
  0   273     -5.42554    0.99448
  0   274     -5.35011    0.63494

  1   271     -5.54080    1.51590
  1   272     -5.49367    1.32308
  1   273     -5.42918    1.01264
  1   274     -5.41323    0.93302


Fermi level: -5.42665

No gap

Forces in eV/Ang:
  0 Ir   -0.00722    0.01719    0.30553
  1 Ir    0.00820    0.01064   -0.34646
  2 Ir   -0.00188   -0.01454    0.07755
  3 Ir   -0.00029   -0.01671    0.02322
  4 Ir    0.01009   -0.01692    0.32468
  5 Ir   -0.01222    0.00863   -0.33936
  6 Ir    0.00172   -0.00077   -0.02892
  7 Ir   -0.00322    0.01616    0.00476
  8 Ir    0.00928   -0.00690    0.33363
  9 Ir    0.01801    0.01905   -0.35380
 10 Ir    0.00594   -0.00231   -0.02676
 11 Ir   -0.00079    0.00165    0.00623
 12 Ir    0.02227    0.01398    0.32697
 13 Ir    0.01849   -0.02257   -0.26716
 14 Ir   -0.00053   -0.00846    0.06953
 15 Ir   -0.00211   -0.00798   -0.00149
 16 Ir    0.00536    0.00069    0.30286
 17 Ir   -0.01612    0.01340   -0.34884
 18 Ir   -0.00094    0.00865    0.07545
 19 Ir    0.00414    0.00530   -0.08478
 20 Ir    0.02290   -0.00037    0.30540
 21 Ir   -0.00783    0.03089   -0.25979
 22 Ir    0.03097    0.01112   -0.08264
 23 Ir   -0.02407    0.02037    0.01652
 24 Ir   -0.00380    0.00051    0.26502
 25 Ir   -0.04769   -0.00134   -0.26633
 26 Ir    0.00627   -0.03348   -0.07638
 27 Ir    0.00197   -0.00149   -0.05795
 28 Ir   -0.00285   -0.02332    0.30899
 29 Ir    0.00123   -0.01825   -0.36613
 30 Ir    0.00475   -0.00387   -0.02680
 31 Ir    0.03050    0.01118    0.01231
 32 Ir   -0.02016   -0.00517    0.33146
 33 Ir   -0.02957   -0.00316   -0.36901
 34 Ir   -0.02319    0.01212   -0.08669
 35 Ir    0.01952    0.01880   -0.01187
 36 O    -0.00389    0.00941    0.14780
 37 H     0.00059   -0.00803    0.21198

BFGS:    3 12:52:25   -11743.689547        0.2121
System changes: positions 

Initializing position-dependent things.

Density initialized from wave functions
                                            
                                            
                                            
                                            
                                            
                                            
                   H                        
                   O                        
          Ir     Ir     Ir                  
                                            
           IIr    IIr    IIr                
             IIr    IIr    IIr              
                                            
              IIr    IIr    IIr             
                                            
                Ir     Ir     Ir            
                  Ir     Ir     Ir          
          Ir     Ir     Ir                  
            Ir     Ir     Ir                
              Ir     Ir     Ir              
                                            
                                            
                                            
                                            

Positions:
   0 Ir     0.000000    0.000000    9.999999    ( 0.0000,  0.0000,  0.0000)
   1 Ir     1.378048    0.795616   12.250341    ( 0.0000,  0.0000,  0.0000)
   2 Ir     0.020921    1.602588   14.489882    ( 0.0000,  0.0000,  0.0000)
   3 Ir    -0.017444   -0.031260   16.660609    ( 0.0000,  0.0000,  0.0000)
   4 Ir    -1.378048    2.386848    9.999999    ( 0.0000,  0.0000,  0.0000)
   5 Ir     0.000000    3.182464   12.250341    ( 0.0000,  0.0000,  0.0000)
   6 Ir    -1.376194    3.976103   14.457164    ( 0.0000,  0.0000,  0.0000)
   7 Ir    -1.411105    2.389040   16.663833    ( 0.0000,  0.0000,  0.0000)
   8 Ir    -2.756095    4.773697    9.999999    ( 0.0000,  0.0000,  0.0000)
   9 Ir    -1.378048    5.569313   12.250341    ( 0.0000,  0.0000,  0.0000)
  10 Ir    -2.753663    6.365312   14.457476    ( 0.0000,  0.0000,  0.0000)
  11 Ir    -2.756613    4.774164   16.681471    ( 0.0000,  0.0000,  0.0000)
  12 Ir     2.756095    0.000000    9.999999    ( 0.0000,  0.0000,  0.0000)
  13 Ir     4.134143    0.795616   12.250341    ( 0.0000,  0.0000,  0.0000)
  14 Ir     2.737441    1.602553   14.489323    ( 0.0000,  0.0000,  0.0000)
  15 Ir     2.772177   -0.028366   16.663119    ( 0.0000,  0.0000,  0.0000)
  16 Ir     1.378048    2.386848    9.999999    ( 0.0000,  0.0000,  0.0000)
  17 Ir     2.756095    3.182464   12.250341    ( 0.0000,  0.0000,  0.0000)
  18 Ir     1.379267    3.954245   14.490011    ( 0.0000,  0.0000,  0.0000)
  19 Ir     1.377987    2.387439   16.726933    ( 0.0000,  0.0000,  0.0000)
  20 Ir     0.000000    4.773697    9.999999    ( 0.0000,  0.0000,  0.0000)
  21 Ir     1.378048    5.569313   12.250341    ( 0.0000,  0.0000,  0.0000)
  22 Ir     0.003123    6.365151   14.447177    ( 0.0000,  0.0000,  0.0000)
  23 Ir    -0.019332    4.803732   16.663329    ( 0.0000,  0.0000,  0.0000)
  24 Ir     5.512190    0.000000    9.999999    ( 0.0000,  0.0000,  0.0000)
  25 Ir     6.890238    0.795616   12.250341    ( 0.0000,  0.0000,  0.0000)
  26 Ir     5.513278    1.589388   14.447792    ( 0.0000,  0.0000,  0.0000)
  27 Ir     5.511704    0.000285   16.676973    ( 0.0000,  0.0000,  0.0000)
  28 Ir     4.134143    2.386848    9.999999    ( 0.0000,  0.0000,  0.0000)
  29 Ir     5.512190    3.182464   12.250341    ( 0.0000,  0.0000,  0.0000)
  30 Ir     4.134135    3.975115   14.457858    ( 0.0000,  0.0000,  0.0000)
  31 Ir     4.169307    2.387491   16.663517    ( 0.0000,  0.0000,  0.0000)
  32 Ir     2.756095    4.773697    9.999999    ( 0.0000,  0.0000,  0.0000)
  33 Ir     4.134143    5.569313   12.250341    ( 0.0000,  0.0000,  0.0000)
  34 Ir     2.755292    6.364207   14.447310    ( 0.0000,  0.0000,  0.0000)
  35 Ir     2.774778    4.805104   16.662177    ( 0.0000,  0.0000,  0.0000)
  36 O      1.377153    2.387589   18.683468    ( 0.0000,  0.0000,  0.0000)
  37 H      1.377892    2.385674   19.638509    ( 0.0000,  0.0000,  0.0000)

Unit cell:
           periodic     x           y           z      points  spacing
  1. axis:    yes    8.268285    0.000000    0.000000    40     0.1790
  2. axis:    yes   -4.134143    7.160545    0.000000    40     0.1790
  3. axis:    no     0.000000    0.000000   26.751025   148     0.1808

  Lengths:   8.268285   8.268285  26.751025
  Angles:   90.000000  90.000000 120.000000

Effective grid spacing dv^(1/3) = 0.1884

     iter     time        total  log10-change:
                         energy  eigst   dens
iter:   1 12:54:10 -11743.714407  -2.94
iter:   2 12:54:54 -11743.698822  -3.76  -3.06
iter:   3 12:55:38 -11743.730168c -4.06  -3.21
iter:   4 12:56:23 -11743.698118c -4.63  -2.75
iter:   5 12:57:07 -11743.695591c -5.08  -3.44
iter:   6 12:57:51 -11743.695284c -5.27  -3.57
iter:   7 12:58:36 -11743.695055c -5.28  -3.73
iter:   8 12:59:20 -11743.695010c -5.53  -3.92
iter:   9 13:00:04 -11743.695070c -5.84  -4.09c
iter:  10 13:00:49 -11743.694977c -6.48  -4.16c
iter:  11 13:01:33 -11743.694990c -7.05  -4.18c
iter:  12 13:02:17 -11743.695023c -7.00  -4.31c
iter:  13 13:03:02 -11743.694886c -6.77  -4.29c
iter:  14 13:03:46 -11743.694991c -7.08  -4.60c
iter:  15 13:04:30 -11743.694987c -7.67c -4.76c

Converged after 15 iterations.

Dipole moment: (-2.421583, -4.855735, 0.276665) |e|*Ang

Energy contributions relative to reference atoms: (reference = -17443507.918545)

Kinetic:       +1098.074311
Potential:     -1051.585646
External:        +0.000000
XC:            -11783.693815
Entropy (-ST):   -1.498037
Local:           -5.740818
--------------------------
Free energy:   -11744.444006
Extrapolated:  -11743.694987

Showing only first 2 kpts
 Kpt  Band  Eigenvalues  Occupancy
  0   271     -5.48436    1.23758
  0   272     -5.46154    1.12740
  0   273     -5.43495    0.99514
  0   274     -5.35936    0.63488

  1   271     -5.54939    1.51343
  1   272     -5.50367    1.32639
  1   273     -5.43910    1.01590
  1   274     -5.42456    0.94329


Fermi level: -5.43592

No gap

Forces in eV/Ang:
  0 Ir   -0.00736    0.01736    0.30323
  1 Ir    0.00856    0.01864   -0.33805
  2 Ir   -0.02113   -0.01662    0.01035
  3 Ir    0.01578    0.00899    0.01247
  4 Ir    0.00956   -0.01710    0.32148
  5 Ir   -0.00406    0.00228   -0.32934
  6 Ir   -0.00215    0.00142   -0.00753
  7 Ir    0.02224    0.01411    0.00655
  8 Ir    0.00922   -0.00691    0.32918
  9 Ir    0.01488    0.01623   -0.36491
 10 Ir    0.00175   -0.00726   -0.00558
 11 Ir   -0.00009    0.00148    0.00873
 12 Ir    0.02302    0.01406    0.32469
 13 Ir    0.00818   -0.01638   -0.27350
 14 Ir    0.01958   -0.01311    0.01089
 15 Ir   -0.01492    0.01377    0.00335
 16 Ir    0.00511    0.00084    0.30373
 17 Ir   -0.02402    0.00880   -0.33905
 18 Ir   -0.00369    0.02552    0.01161
 19 Ir    0.00558    0.00320    0.14255
 20 Ir    0.02307    0.00020    0.30400
 21 Ir   -0.00735    0.01717   -0.26857
 22 Ir    0.00422   -0.00268   -0.01959
 23 Ir   -0.00510   -0.00759    0.00830
 24 Ir   -0.00359    0.00065    0.26177
 25 Ir   -0.03611    0.00587   -0.27372
 26 Ir    0.00609   -0.00310   -0.01554
 27 Ir    0.00305   -0.00051   -0.04383
 28 Ir   -0.00236   -0.02365    0.30787
 29 Ir    0.00286   -0.01501   -0.37718
 30 Ir    0.00665   -0.00038   -0.00537
 31 Ir   -0.00291    0.01163    0.00602
 32 Ir   -0.02052   -0.00459    0.32852
 33 Ir   -0.02428   -0.00682   -0.38031
 34 Ir    0.00152    0.00009   -0.02388
 35 Ir    0.00476   -0.00949   -0.00340
 36 O     0.00196    0.02035    0.04752
 37 H     0.00263   -0.00858    0.08010

BFGS:    4 13:04:55   -11743.694987        0.1427
System changes: positions 

Initializing position-dependent things.

Density initialized from wave functions
                                            
                                            
                                            
                                            
                                            
                                            
                   H                        
                   O                        
          Ir     Ir     Ir                  
                                            
           IIr    IIr    IIr                
             IIr    IIr    IIr              
                                            
              IIr    IIr    IIr             
                                            
                Ir     Ir     Ir            
                  Ir     Ir     Ir          
          Ir     Ir     Ir                  
            Ir     Ir     Ir                
              Ir     Ir     Ir              
                                            
                                            
                                            
                                            

Positions:
   0 Ir     0.000000    0.000000    9.999999    ( 0.0000,  0.0000,  0.0000)
   1 Ir     1.378048    0.795616   12.250341    ( 0.0000,  0.0000,  0.0000)
   2 Ir     0.021184    1.602412   14.492123    ( 0.0000,  0.0000,  0.0000)
   3 Ir    -0.017620   -0.032094   16.660925    ( 0.0000,  0.0000,  0.0000)
   4 Ir    -1.378048    2.386848    9.999999    ( 0.0000,  0.0000,  0.0000)
   5 Ir     0.000000    3.182464   12.250341    ( 0.0000,  0.0000,  0.0000)
   6 Ir    -1.376040    3.976023   14.456450    ( 0.0000,  0.0000,  0.0000)
   7 Ir    -1.411591    2.389546   16.663748    ( 0.0000,  0.0000,  0.0000)
   8 Ir    -2.756095    4.773697    9.999999    ( 0.0000,  0.0000,  0.0000)
   9 Ir    -1.378048    5.569313   12.250341    ( 0.0000,  0.0000,  0.0000)
  10 Ir    -2.753505    6.365304   14.456845    ( 0.0000,  0.0000,  0.0000)
  11 Ir    -2.756637    4.774220   16.682070    ( 0.0000,  0.0000,  0.0000)
  12 Ir     2.756095    0.000000    9.999999    ( 0.0000,  0.0000,  0.0000)
  13 Ir     4.134143    0.795616   12.250341    ( 0.0000,  0.0000,  0.0000)
  14 Ir     2.737147    1.602540   14.491443    ( 0.0000,  0.0000,  0.0000)
  15 Ir     2.772298   -0.028938   16.662868    ( 0.0000,  0.0000,  0.0000)
  16 Ir     1.378048    2.386848    9.999999    ( 0.0000,  0.0000,  0.0000)
  17 Ir     2.756095    3.182464   12.250341    ( 0.0000,  0.0000,  0.0000)
  18 Ir     1.379216    3.954089   14.492232    ( 0.0000,  0.0000,  0.0000)
  19 Ir     1.378127    2.387569   16.729176    ( 0.0000,  0.0000,  0.0000)
  20 Ir     0.000000    4.773697    9.999999    ( 0.0000,  0.0000,  0.0000)
  21 Ir     1.378048    5.569313   12.250341    ( 0.0000,  0.0000,  0.0000)
  22 Ir     0.003823    6.365305   14.445172    ( 0.0000,  0.0000,  0.0000)
  23 Ir    -0.020219    4.804626   16.663476    ( 0.0000,  0.0000,  0.0000)
  24 Ir     5.512190    0.000000    9.999999    ( 0.0000,  0.0000,  0.0000)
  25 Ir     6.890238    0.795616   12.250341    ( 0.0000,  0.0000,  0.0000)
  26 Ir     5.513525    1.588672   14.445960    ( 0.0000,  0.0000,  0.0000)
  27 Ir     5.511766    0.000261   16.675563    ( 0.0000,  0.0000,  0.0000)
  28 Ir     4.134143    2.386848    9.999999    ( 0.0000,  0.0000,  0.0000)
  29 Ir     5.512190    3.182464   12.250341    ( 0.0000,  0.0000,  0.0000)
  30 Ir     4.134212    3.974950   14.457237    ( 0.0000,  0.0000,  0.0000)
  31 Ir     4.170542    2.387846   16.663543    ( 0.0000,  0.0000,  0.0000)
  32 Ir     2.756095    4.773697    9.999999    ( 0.0000,  0.0000,  0.0000)
  33 Ir     4.134143    5.569313   12.250341    ( 0.0000,  0.0000,  0.0000)
  34 Ir     2.754880    6.364432   14.445191    ( 0.0000,  0.0000,  0.0000)
  35 Ir     2.775578    4.805992   16.661639    ( 0.0000,  0.0000,  0.0000)
  36 O      1.377085    2.388033   18.686734    ( 0.0000,  0.0000,  0.0000)
  37 H      1.377941    2.385396   19.642673    ( 0.0000,  0.0000,  0.0000)

Unit cell:
           periodic     x           y           z      points  spacing
  1. axis:    yes    8.268285    0.000000    0.000000    40     0.1790
  2. axis:    yes   -4.134143    7.160545    0.000000    40     0.1790
  3. axis:    no     0.000000    0.000000   26.751025   148     0.1808

  Lengths:   8.268285   8.268285  26.751025
  Angles:   90.000000  90.000000 120.000000

Effective grid spacing dv^(1/3) = 0.1884

     iter     time        total  log10-change:
                         energy  eigst   dens
iter:   1 13:06:40 -11743.698165  -3.78
iter:   2 13:07:24 -11743.709750  -4.39  -3.42
iter:   3 13:08:09 -11743.697488c -4.75  -2.96
iter:   4 13:08:53 -11743.696322c -5.91  -3.41
iter:   5 13:09:38 -11743.696035c -6.27  -4.00c
iter:   6 13:10:22 -11743.696123c -6.38  -4.04c
iter:   7 13:11:07 -11743.696009c -6.29  -4.22c
iter:   8 13:11:51 -11743.696021c -6.70  -4.47c
iter:   9 13:12:36 -11743.696047c -6.93  -4.58c
iter:  10 13:13:20 -11743.696062c -7.29  -4.62c
iter:  11 13:14:05 -11743.696076c -7.69c -4.39c

Converged after 11 iterations.

Dipole moment: (-2.417295, -4.781547, 0.276215) |e|*Ang

Energy contributions relative to reference atoms: (reference = -17443507.918545)

Kinetic:       +1098.054289
Potential:     -1051.580639
External:        +0.000000
XC:            -11783.676979
Entropy (-ST):   -1.497303
Local:           -5.744096
--------------------------
Free energy:   -11744.444728
Extrapolated:  -11743.696076

Showing only first 2 kpts
 Kpt  Band  Eigenvalues  Occupancy
  0   271     -5.48459    1.23890
  0   272     -5.46169    1.12840
  0   273     -5.43504    0.99588
  0   274     -5.35920    0.63438

  1   271     -5.54964    1.51451
  1   272     -5.50401    1.32811
  1   273     -5.43927    1.01702
  1   274     -5.42508    0.94610


Fermi level: -5.43587

No gap

Forces in eV/Ang:
  0 Ir   -0.00973    0.01773    0.30528
  1 Ir    0.00843    0.03196   -0.32984
  2 Ir   -0.02095   -0.01183   -0.01965
  3 Ir    0.01659    0.01766    0.00259
  4 Ir    0.00838   -0.01952    0.32312
  5 Ir    0.00808   -0.00586   -0.32029
  6 Ir   -0.00552    0.00296    0.00728
  7 Ir    0.02759    0.00846    0.00060
  8 Ir    0.00928   -0.00678    0.32984
  9 Ir    0.01263    0.01516   -0.37247
 10 Ir   -0.00045   -0.01126    0.00839
 11 Ir    0.00037    0.00174   -0.01704
 12 Ir    0.02551    0.01410    0.32672
 13 Ir   -0.01080   -0.00425   -0.28196
 14 Ir    0.02206   -0.00865   -0.01641
 15 Ir   -0.01334    0.02067   -0.00006
 16 Ir    0.00490    0.00079    0.30774
 17 Ir   -0.03530    0.00181   -0.32895
 18 Ir   -0.00355    0.02080   -0.01726
 19 Ir    0.00649    0.00321    0.14804
 20 Ir    0.02465    0.00248    0.30622
 21 Ir   -0.00664   -0.00575   -0.28022
 22 Ir   -0.01717   -0.01140    0.01874
 23 Ir    0.00509   -0.01415    0.00002
 24 Ir   -0.00338    0.00056    0.26263
 25 Ir   -0.01603    0.01770   -0.28421
 26 Ir    0.00321    0.02060    0.02017
 27 Ir    0.00270    0.00075   -0.04280
 28 Ir   -0.00104   -0.02590    0.31015
 29 Ir    0.00271   -0.01377   -0.38365
 30 Ir    0.00854    0.00050    0.00774
 31 Ir   -0.01450    0.00705   -0.00169
 32 Ir   -0.02218   -0.00233    0.33034
 33 Ir   -0.02151   -0.00869   -0.38749
 34 Ir    0.02209   -0.00953    0.01417
 35 Ir   -0.00353   -0.01784   -0.00457
 36 O     0.00203    0.02066    0.05992
 37 H     0.00306   -0.01097    0.03402

BFGS:    5 13:14:29   -11743.696076        0.1482
System changes: positions 

Initializing position-dependent things.

Density initialized from wave functions
                                            
                                            
                                            
                                            
                                            
                                            
                   H                        
                   O                        
          Ir     Ir     Ir                  
                                            
           IIr    IIr    IIr                
             IIr    IIr    IIr              
                                            
              IIr    IIr    IIr             
                                            
                Ir     Ir     Ir            
                  Ir     Ir     Ir          
          Ir     Ir     Ir                  
            Ir     Ir     Ir                
              Ir     Ir     Ir              
                                            
                                            
                                            
                                            

Positions:
   0 Ir     0.000000    0.000000    9.999999    ( 0.0000,  0.0000,  0.0000)
   1 Ir     1.378048    0.795616   12.250341    ( 0.0000,  0.0000,  0.0000)
   2 Ir     0.020853    1.601993   14.493236    ( 0.0000,  0.0000,  0.0000)
   3 Ir    -0.017299   -0.032128   16.661270    ( 0.0000,  0.0000,  0.0000)
   4 Ir    -1.378048    2.386848    9.999999    ( 0.0000,  0.0000,  0.0000)
   5 Ir     0.000000    3.182464   12.250341    ( 0.0000,  0.0000,  0.0000)
   6 Ir    -1.376033    3.976021   14.456083    ( 0.0000,  0.0000,  0.0000)
   7 Ir    -1.411160    2.390066   16.663763    ( 0.0000,  0.0000,  0.0000)
   8 Ir    -2.756095    4.773697    9.999999    ( 0.0000,  0.0000,  0.0000)
   9 Ir    -1.378048    5.569313   12.250341    ( 0.0000,  0.0000,  0.0000)
  10 Ir    -2.753405    6.365095   14.456555    ( 0.0000,  0.0000,  0.0000)
  11 Ir    -2.756643    4.774294   16.682142    ( 0.0000,  0.0000,  0.0000)
  12 Ir     2.756095    0.000000    9.999999    ( 0.0000,  0.0000,  0.0000)
  13 Ir     4.134143    0.795616   12.250341    ( 0.0000,  0.0000,  0.0000)
  14 Ir     2.737469    1.602304   14.492536    ( 0.0000,  0.0000,  0.0000)
  15 Ir     2.772010   -0.028740   16.662753    ( 0.0000,  0.0000,  0.0000)
  16 Ir     1.378048    2.386848    9.999999    ( 0.0000,  0.0000,  0.0000)
  17 Ir     2.756095    3.182464   12.250341    ( 0.0000,  0.0000,  0.0000)
  18 Ir     1.379108    3.954510   14.493381    ( 0.0000,  0.0000,  0.0000)
  19 Ir     1.378358    2.387722   16.733291    ( 0.0000,  0.0000,  0.0000)
  20 Ir     0.000000    4.773697    9.999999    ( 0.0000,  0.0000,  0.0000)
  21 Ir     1.378048    5.569313   12.250341    ( 0.0000,  0.0000,  0.0000)
  22 Ir     0.003988    6.365205   14.444141    ( 0.0000,  0.0000,  0.0000)
  23 Ir    -0.020625    4.804791   16.663644    ( 0.0000,  0.0000,  0.0000)
  24 Ir     5.512190    0.000000    9.999999    ( 0.0000,  0.0000,  0.0000)
  25 Ir     6.890238    0.795616   12.250341    ( 0.0000,  0.0000,  0.0000)
  26 Ir     5.513759    1.588553   14.445074    ( 0.0000,  0.0000,  0.0000)
  27 Ir     5.511869    0.000256   16.673658    ( 0.0000,  0.0000,  0.0000)
  28 Ir     4.134143    2.386848    9.999999    ( 0.0000,  0.0000,  0.0000)
  29 Ir     5.512190    3.182464   12.250341    ( 0.0000,  0.0000,  0.0000)
  30 Ir     4.134416    3.974837   14.456937    ( 0.0000,  0.0000,  0.0000)
  31 Ir     4.170911    2.388236   16.663595    ( 0.0000,  0.0000,  0.0000)
  32 Ir     2.756095    4.773697    9.999999    ( 0.0000,  0.0000,  0.0000)
  33 Ir     4.134143    5.569313   12.250341    ( 0.0000,  0.0000,  0.0000)
  34 Ir     2.755003    6.364415   14.443978    ( 0.0000,  0.0000,  0.0000)
  35 Ir     2.775957    4.806070   16.661229    ( 0.0000,  0.0000,  0.0000)
  36 O      1.377071    2.388753   18.690402    ( 0.0000,  0.0000,  0.0000)
  37 H      1.378039    2.384974   19.646320    ( 0.0000,  0.0000,  0.0000)

Unit cell:
           periodic     x           y           z      points  spacing
  1. axis:    yes    8.268285    0.000000    0.000000    40     0.1790
  2. axis:    yes   -4.134143    7.160545    0.000000    40     0.1790
  3. axis:    no     0.000000    0.000000   26.751025   148     0.1808

  Lengths:   8.268285   8.268285  26.751025
  Angles:   90.000000  90.000000 120.000000

Effective grid spacing dv^(1/3) = 0.1884

     iter     time        total  log10-change:
                         energy  eigst   dens
iter:   1 13:16:14 -11743.697845  -3.85
iter:   2 13:16:58 -11743.714917  -4.34  -3.42
iter:   3 13:17:43 -11743.699231c -4.70  -2.91
iter:   4 13:18:27 -11743.696704c -5.68  -3.42
iter:   5 13:19:12 -11743.696991c -6.16  -4.06c
iter:   6 13:19:56 -11743.696976c -6.50  -4.21c
iter:   7 13:20:40 -11743.696979c -6.15  -4.21c
iter:   8 13:21:25 -11743.697012c -6.24  -4.41c
iter:   9 13:22:09 -11743.696942c -7.17  -4.45c
iter:  10 13:22:54 -11743.696949c -7.96c -4.74c

Converged after 10 iterations.

Dipole moment: (-2.465284, -4.794362, 0.276190) |e|*Ang

Energy contributions relative to reference atoms: (reference = -17443507.918545)

Kinetic:       +1097.959263
Potential:     -1051.505669
External:        +0.000000
XC:            -11783.659185
Entropy (-ST):   -1.497193
Local:           -5.742762
--------------------------
Free energy:   -11744.445545
Extrapolated:  -11743.696949

Showing only first 2 kpts
 Kpt  Band  Eigenvalues  Occupancy
  0   271     -5.48469    1.23946
  0   272     -5.46156    1.12783
  0   273     -5.43519    0.99672
  0   274     -5.35915    0.63425

  1   271     -5.55011    1.51633
  1   272     -5.50393    1.32782
  1   273     -5.43938    1.01767
  1   274     -5.42497    0.94565


Fermi level: -5.43585

No gap

Forces in eV/Ang:
  0 Ir   -0.01046    0.01758    0.30465
  1 Ir    0.00888    0.03527   -0.32825
  2 Ir   -0.00037    0.00148   -0.01996
  3 Ir    0.01122    0.00957   -0.00277
  4 Ir    0.00775   -0.02032    0.32221
  5 Ir    0.01119   -0.00812   -0.31959
  6 Ir   -0.00162    0.00093    0.01062
  7 Ir    0.01587    0.00667    0.00002
  8 Ir    0.00920   -0.00666    0.32683
  9 Ir    0.01159    0.01445   -0.37606
 10 Ir   -0.00053   -0.00413    0.01071
 11 Ir    0.00089    0.00160   -0.01390
 12 Ir    0.02629    0.01385    0.32613
 13 Ir   -0.01275   -0.00281   -0.28221
 14 Ir    0.00312    0.00266   -0.01676
 15 Ir   -0.00697    0.01120    0.00011
 16 Ir    0.00475    0.00078    0.30958
 17 Ir   -0.03835   -0.00016   -0.32730
 18 Ir   -0.00162   -0.00168   -0.01828
 19 Ir    0.00481    0.00049    0.10162
 20 Ir    0.02505    0.00339    0.30590
 21 Ir   -0.00643   -0.00854   -0.28196
 22 Ir   -0.01810   -0.00968    0.02978
 23 Ir    0.00253   -0.00719   -0.00310
 24 Ir   -0.00305    0.00060    0.26259
 25 Ir   -0.01347    0.01932   -0.28598
 26 Ir    0.00176    0.02092    0.02932
 27 Ir    0.00283    0.00107   -0.02693
 28 Ir   -0.00025   -0.02644    0.30973
 29 Ir    0.00307   -0.01297   -0.38739
 30 Ir    0.00269   -0.00060    0.00993
 31 Ir   -0.00670    0.00560   -0.00364
 32 Ir   -0.02245   -0.00135    0.32948
 33 Ir   -0.01961   -0.01015   -0.39163
 34 Ir    0.02073   -0.00998    0.02741
 35 Ir    0.00046   -0.00972   -0.00290
 36 O    -0.00243    0.02121    0.03758
 37 H     0.00376   -0.01511    0.03557

BFGS:    6 13:23:18   -11743.696949        0.1017
System changes: positions 

Initializing position-dependent things.

Density initialized from wave functions
                                            
                                            
                                            
                                            
                                            
                                            
                   H                        
                   O                        
          Ir     Ir     Ir                  
                                            
           IIr    IIr    IIr                
             IIr    IIr    IIr              
                                            
              IIr    IIr    IIr             
                                            
                Ir     Ir     Ir            
                  Ir     Ir     Ir          
          Ir     Ir     Ir                  
            Ir     Ir     Ir                
              Ir     Ir     Ir              
                                            
                                            
                                            
                                            

Positions:
   0 Ir     0.000000    0.000000    9.999999    ( 0.0000,  0.0000,  0.0000)
   1 Ir     1.378048    0.795616   12.250341    ( 0.0000,  0.0000,  0.0000)
   2 Ir     0.020845    1.601662   14.494900    ( 0.0000,  0.0000,  0.0000)
   3 Ir    -0.016771   -0.032345   16.661625    ( 0.0000,  0.0000,  0.0000)
   4 Ir    -1.378048    2.386848    9.999999    ( 0.0000,  0.0000,  0.0000)
   5 Ir     0.000000    3.182464   12.250341    ( 0.0000,  0.0000,  0.0000)
   6 Ir    -1.375932    3.975972   14.455691    ( 0.0000,  0.0000,  0.0000)
   7 Ir    -1.410581    2.391019   16.663726    ( 0.0000,  0.0000,  0.0000)
   8 Ir    -2.756095    4.773697    9.999999    ( 0.0000,  0.0000,  0.0000)
   9 Ir    -1.378048    5.569313   12.250341    ( 0.0000,  0.0000,  0.0000)
  10 Ir    -2.753242    6.364853   14.456277    ( 0.0000,  0.0000,  0.0000)
  11 Ir    -2.756629    4.774443   16.682218    ( 0.0000,  0.0000,  0.0000)
  12 Ir     2.756095    0.000000    9.999999    ( 0.0000,  0.0000,  0.0000)
  13 Ir     4.134143    0.795616   12.250341    ( 0.0000,  0.0000,  0.0000)
  14 Ir     2.737551    1.602255   14.494222    ( 0.0000,  0.0000,  0.0000)
  15 Ir     2.771622   -0.028559   16.662512    ( 0.0000,  0.0000,  0.0000)
  16 Ir     1.378048    2.386848    9.999999    ( 0.0000,  0.0000,  0.0000)
  17 Ir     2.756095    3.182464   12.250341    ( 0.0000,  0.0000,  0.0000)
  18 Ir     1.378942    3.954579   14.495119    ( 0.0000,  0.0000,  0.0000)
  19 Ir     1.378788    2.387926   16.741500    ( 0.0000,  0.0000,  0.0000)
  20 Ir     0.000000    4.773697    9.999999    ( 0.0000,  0.0000,  0.0000)
  21 Ir     1.378048    5.569313   12.250341    ( 0.0000,  0.0000,  0.0000)
  22 Ir     0.003968    6.364909   14.443085    ( 0.0000,  0.0000,  0.0000)
  23 Ir    -0.021407    4.805231   16.663747    ( 0.0000,  0.0000,  0.0000)
  24 Ir     5.512190    0.000000    9.999999    ( 0.0000,  0.0000,  0.0000)
  25 Ir     6.890238    0.795616   12.250341    ( 0.0000,  0.0000,  0.0000)
  26 Ir     5.514163    1.588688   14.444217    ( 0.0000,  0.0000,  0.0000)
  27 Ir     5.512089    0.000273   16.670426    ( 0.0000,  0.0000,  0.0000)
  28 Ir     4.134143    2.386848    9.999999    ( 0.0000,  0.0000,  0.0000)
  29 Ir     5.512190    3.182464   12.250341    ( 0.0000,  0.0000,  0.0000)
  30 Ir     4.134659    3.974598   14.456629    ( 0.0000,  0.0000,  0.0000)
  31 Ir     4.171741    2.388955   16.663518    ( 0.0000,  0.0000,  0.0000)
  32 Ir     2.756095    4.773697    9.999999    ( 0.0000,  0.0000,  0.0000)
  33 Ir     4.134143    5.569313   12.250341    ( 0.0000,  0.0000,  0.0000)
  34 Ir     2.755515    6.364216   14.442630    ( 0.0000,  0.0000,  0.0000)
  35 Ir     2.776771    4.806358   16.660478    ( 0.0000,  0.0000,  0.0000)
  36 O      1.376912    2.390328   18.696585    ( 0.0000,  0.0000,  0.0000)
  37 H      1.378280    2.383932   19.652806    ( 0.0000,  0.0000,  0.0000)

Unit cell:
           periodic     x           y           z      points  spacing
  1. axis:    yes    8.268285    0.000000    0.000000    40     0.1790
  2. axis:    yes   -4.134143    7.160545    0.000000    40     0.1790
  3. axis:    no     0.000000    0.000000   26.751025   148     0.1808

  Lengths:   8.268285   8.268285  26.751025
  Angles:   90.000000  90.000000 120.000000

Effective grid spacing dv^(1/3) = 0.1884

     iter     time        total  log10-change:
                         energy  eigst   dens
iter:   1 13:25:03 -11743.701668  -3.38
iter:   2 13:25:48 -11743.754782  -3.88  -3.19
iter:   3 13:26:32 -11743.701146c -4.28  -2.65
iter:   4 13:27:17 -11743.697613c -5.26  -3.32
iter:   5 13:28:01 -11743.698005c -5.78  -3.87
iter:   6 13:28:46 -11743.697949c -6.16  -4.03c
iter:   7 13:29:30 -11743.697953c -5.83  -4.01c
iter:   8 13:30:15 -11743.698022c -5.90  -4.19c
iter:   9 13:30:59 -11743.697871c -6.56  -4.14c
iter:  10 13:31:44 -11743.697891c -7.56c -4.55c

Converged after 10 iterations.

Dipole moment: (-2.531931, -4.805288, 0.277850) |e|*Ang

Energy contributions relative to reference atoms: (reference = -17443507.918545)

Kinetic:       +1097.780149
Potential:     -1051.357302
External:        +0.000000
XC:            -11783.626251
Entropy (-ST):   -1.497122
Local:           -5.745926
--------------------------
Free energy:   -11744.446452
Extrapolated:  -11743.697891

Showing only first 2 kpts
 Kpt  Band  Eigenvalues  Occupancy
  0   271     -5.48290    1.23886
  0   272     -5.45980    1.12737
  0   273     -5.43380    0.99809
  0   274     -5.35735    0.63365

  1   271     -5.54933    1.51956
  1   272     -5.50267    1.32964
  1   273     -5.43775    1.01783
  1   274     -5.42314    0.94484


Fermi level: -5.43419

No gap

Forces in eV/Ang:
  0 Ir   -0.01080    0.01674    0.30400
  1 Ir    0.00974    0.04280   -0.31990
  2 Ir    0.02056    0.01559   -0.02316
  3 Ir    0.00528    0.01264   -0.00884
  4 Ir    0.00671   -0.02058    0.32108
  5 Ir    0.01839   -0.01307   -0.31252
  6 Ir    0.00337   -0.00141    0.01240
  7 Ir    0.01052   -0.00275   -0.00024
  8 Ir    0.00909   -0.00650    0.32256
  9 Ir    0.00922    0.01328   -0.38167
 10 Ir   -0.00084    0.00492    0.01077
 11 Ir    0.00210    0.00186   -0.01273
 12 Ir    0.02684    0.01300    0.32555
 13 Ir   -0.02028    0.00229   -0.27877
 14 Ir   -0.01449    0.01452   -0.02073
 15 Ir    0.00054    0.01087    0.00259
 16 Ir    0.00463    0.00086    0.31191
 17 Ir   -0.04521   -0.00422   -0.31834
 18 Ir    0.00112   -0.02487   -0.02201
 19 Ir    0.00383   -0.00407    0.00295
 20 Ir    0.02489    0.00436    0.30586
 21 Ir   -0.00604   -0.01839   -0.28225
 22 Ir   -0.01812   -0.00500    0.03986
 23 Ir    0.01130   -0.00531   -0.00655
 24 Ir   -0.00259    0.00074    0.26672
 25 Ir   -0.00481    0.02487   -0.28621
 26 Ir   -0.00197    0.01957    0.03651
 27 Ir    0.00280    0.00223    0.00535
 28 Ir    0.00097   -0.02629    0.30930
 29 Ir    0.00355   -0.01121   -0.39300
 30 Ir   -0.00476   -0.00219    0.00866
 31 Ir   -0.00914   -0.00195   -0.00405
 32 Ir   -0.02192   -0.00028    0.32858
 33 Ir   -0.01566   -0.01312   -0.39796
 34 Ir    0.01743   -0.00887    0.04082
 35 Ir   -0.00633   -0.00783    0.00242
 36 O    -0.01493    0.02873    0.06770
 37 H     0.00524   -0.02432    0.01968

BFGS:    7 13:32:08   -11743.697891        0.0750
System changes: positions 

Initializing position-dependent things.

Density initialized from wave functions
                                            
                                            
                                            
                                            
                                            
                                            
                   H                        
                   O                        
          Ir     Ir     Ir                  
                                            
           IIr    IIr    IIr                
             IIr    IIr    IIr              
                                            
              IIr    IIr    IIr             
                                            
                Ir     Ir     Ir            
                  Ir     Ir     Ir          
          Ir     Ir     Ir                  
            Ir     Ir     Ir                
              Ir     Ir     Ir              
                                            
                                            
                                            
                                            

Positions:
   0 Ir     0.000000    0.000000    9.999999    ( 0.0000,  0.0000,  0.0000)
   1 Ir     1.378048    0.795616   12.250341    ( 0.0000,  0.0000,  0.0000)
   2 Ir     0.020903    1.601599   14.495051    ( 0.0000,  0.0000,  0.0000)
   3 Ir    -0.016152   -0.031820   16.661816    ( 0.0000,  0.0000,  0.0000)
   4 Ir    -1.378048    2.386848    9.999999    ( 0.0000,  0.0000,  0.0000)
   5 Ir     0.000000    3.182464   12.250341    ( 0.0000,  0.0000,  0.0000)
   6 Ir    -1.375852    3.975943   14.455717    ( 0.0000,  0.0000,  0.0000)
   7 Ir    -1.409632    2.391464   16.663865    ( 0.0000,  0.0000,  0.0000)
   8 Ir    -2.756095    4.773697    9.999999    ( 0.0000,  0.0000,  0.0000)
   9 Ir    -1.378048    5.569313   12.250341    ( 0.0000,  0.0000,  0.0000)
  10 Ir    -2.753183    6.364796   14.456327    ( 0.0000,  0.0000,  0.0000)
  11 Ir    -2.756578    4.774553   16.681994    ( 0.0000,  0.0000,  0.0000)
  12 Ir     2.756095    0.000000    9.999999    ( 0.0000,  0.0000,  0.0000)
  13 Ir     4.134143    0.795616   12.250341    ( 0.0000,  0.0000,  0.0000)
  14 Ir     2.737616    1.602318   14.494430    ( 0.0000,  0.0000,  0.0000)
  15 Ir     2.771195   -0.027887   16.662596    ( 0.0000,  0.0000,  0.0000)
  16 Ir     1.378048    2.386848    9.999999    ( 0.0000,  0.0000,  0.0000)
  17 Ir     2.756095    3.182464   12.250341    ( 0.0000,  0.0000,  0.0000)
  18 Ir     1.378864    3.954526   14.495333    ( 0.0000,  0.0000,  0.0000)
  19 Ir     1.379090    2.387953   16.745280    ( 0.0000,  0.0000,  0.0000)
  20 Ir     0.000000    4.773697    9.999999    ( 0.0000,  0.0000,  0.0000)
  21 Ir     1.378048    5.569313   12.250341    ( 0.0000,  0.0000,  0.0000)
  22 Ir     0.003646    6.364692   14.443314    ( 0.0000,  0.0000,  0.0000)
  23 Ir    -0.021381    4.804977   16.663836    ( 0.0000,  0.0000,  0.0000)
  24 Ir     5.512190    0.000000    9.999999    ( 0.0000,  0.0000,  0.0000)
  25 Ir     6.890238    0.795616   12.250341    ( 0.0000,  0.0000,  0.0000)
  26 Ir     5.514327    1.589082   14.444490    ( 0.0000,  0.0000,  0.0000)
  27 Ir     5.512268    0.000316   16.668744    ( 0.0000,  0.0000,  0.0000)
  28 Ir     4.134143    2.386848    9.999999    ( 0.0000,  0.0000,  0.0000)
  29 Ir     5.512190    3.182464   12.250341    ( 0.0000,  0.0000,  0.0000)
  30 Ir     4.134711    3.974460   14.456623    ( 0.0000,  0.0000,  0.0000)
  31 Ir     4.171569    2.389309   16.663568    ( 0.0000,  0.0000,  0.0000)
  32 Ir     2.756095    4.773697    9.999999    ( 0.0000,  0.0000,  0.0000)
  33 Ir     4.134143    5.569313   12.250341    ( 0.0000,  0.0000,  0.0000)
  34 Ir     2.756049    6.363976   14.442713    ( 0.0000,  0.0000,  0.0000)
  35 Ir     2.776857    4.805962   16.660289    ( 0.0000,  0.0000,  0.0000)
  36 O      1.376559    2.391708   18.701052    ( 0.0000,  0.0000,  0.0000)
  37 H      1.378506    2.382943   19.656768    ( 0.0000,  0.0000,  0.0000)

Unit cell:
           periodic     x           y           z      points  spacing
  1. axis:    yes    8.268285    0.000000    0.000000    40     0.1790
  2. axis:    yes   -4.134143    7.160545    0.000000    40     0.1790
  3. axis:    no     0.000000    0.000000   26.751025   148     0.1808

  Lengths:   8.268285   8.268285  26.751025
  Angles:   90.000000  90.000000 120.000000

Effective grid spacing dv^(1/3) = 0.1884

     iter     time        total  log10-change:
                         energy  eigst   dens
iter:   1 13:33:53 -11743.704557  -3.89
iter:   2 13:34:37 -11743.854757  -3.66  -3.10
iter:   3 13:35:21 -11743.698880c -4.07  -2.43
iter:   4 13:36:05 -11743.698089c -5.05  -3.80
iter:   5 13:36:49 -11743.698179c -5.82  -4.10c
iter:   6 13:37:33 -11743.698227c -6.26  -4.29c
iter:   7 13:38:17 -11743.698198c -6.13  -4.25c
iter:   8 13:39:01 -11743.698207c -6.68  -4.55c
iter:   9 13:39:44 -11743.698175c -7.25  -4.48c
iter:  10 13:40:29 -11743.698166c -7.68c -4.82c

Converged after 10 iterations.

Dipole moment: (-2.593478, -4.870641, 0.276928) |e|*Ang

Energy contributions relative to reference atoms: (reference = -17443507.918545)

Kinetic:       +1097.577179
Potential:     -1051.185819
External:        +0.000000
XC:            -11783.599519
Entropy (-ST):   -1.497495
Local:           -5.741259
--------------------------
Free energy:   -11744.446913
Extrapolated:  -11743.698166

Showing only first 2 kpts
 Kpt  Band  Eigenvalues  Occupancy
  0   271     -5.48378    1.23782
  0   272     -5.46074    1.12662
  0   273     -5.43499    0.99853
  0   274     -5.35845    0.63367

  1   271     -5.55067    1.52045
  1   272     -5.50348    1.32836
  1   273     -5.43882    1.01767
  1   274     -5.42373    0.94231


Fermi level: -5.43528

No gap

Forces in eV/Ang:
  0 Ir   -0.00960    0.01635    0.30352
  1 Ir    0.00996    0.03832   -0.32257
  2 Ir    0.01123    0.01099   -0.02229
  3 Ir    0.00190    0.00269   -0.00443
  4 Ir    0.00688   -0.01949    0.32034
  5 Ir    0.01434   -0.01061   -0.31552
  6 Ir    0.00162    0.00008    0.00675
  7 Ir    0.00033   -0.00033    0.00605
  8 Ir    0.00901   -0.00649    0.32032
  9 Ir    0.00932    0.01255   -0.37864
 10 Ir   -0.00030    0.00394    0.00474
 11 Ir    0.00209    0.00099   -0.00390
 12 Ir    0.02588    0.01285    0.32508
 13 Ir   -0.01671    0.00007   -0.27292
 14 Ir   -0.00607    0.00804   -0.01923
 15 Ir    0.00369    0.00101    0.00865
 16 Ir    0.00476    0.00095    0.31204
 17 Ir   -0.04167   -0.00244   -0.32192
 18 Ir    0.00150   -0.01253   -0.02081
 19 Ir    0.00245   -0.00802    0.00543
 20 Ir    0.02417    0.00369    0.30560
 21 Ir   -0.00639   -0.01425   -0.27592
 22 Ir   -0.00815   -0.00021    0.03271
 23 Ir    0.00565   -0.00045   -0.00070
 24 Ir   -0.00252    0.00096    0.26842
 25 Ir   -0.00767    0.02267   -0.27949
 26 Ir   -0.00113    0.00904    0.02905
 27 Ir    0.00284    0.00133    0.01402
 28 Ir    0.00075   -0.02512    0.30882
 29 Ir    0.00445   -0.01070   -0.39071
 30 Ir   -0.00275    0.00103    0.00419
 31 Ir   -0.00119    0.00060    0.00195
 32 Ir   -0.02097   -0.00102    0.32804
 33 Ir   -0.01473   -0.01334   -0.39546
 34 Ir    0.00621   -0.00346    0.03502
 35 Ir    0.00059   -0.00053    0.01046
 36 O    -0.02837    0.04172    0.02484
 37 H     0.00718   -0.03255    0.04140

BFGS:    8 13:40:54   -11743.698166        0.0562
System changes: positions 

Initializing position-dependent things.

Density initialized from wave functions
                                            
                                            
                                            
                                            
                                            
                                            
                   H                        
                   O                        
          Ir     Ir     Ir                  
                                            
           IIr    IIr    IIr                
              Ir    IIr     Ir              
             Ir            Ir               
              IIr    IIr    IIr             
                                            
                Ir     Ir     Ir            
                  Ir     Ir     Ir          
          Ir     Ir     Ir                  
            Ir     Ir     Ir                
              Ir     Ir     Ir              
                                            
                                            
                                            
                                            

Positions:
   0 Ir     0.000000    0.000000    9.999999    ( 0.0000,  0.0000,  0.0000)
   1 Ir     1.378048    0.795616   12.250341    ( 0.0000,  0.0000,  0.0000)
   2 Ir     0.020894    1.601231   14.495587    ( 0.0000,  0.0000,  0.0000)
   3 Ir    -0.013432   -0.029809   16.662848    ( 0.0000,  0.0000,  0.0000)
   4 Ir    -1.378048    2.386848    9.999999    ( 0.0000,  0.0000,  0.0000)
   5 Ir     0.000000    3.182464   12.250341    ( 0.0000,  0.0000,  0.0000)
   6 Ir    -1.375530    3.975869   14.455642    ( 0.0000,  0.0000,  0.0000)
   7 Ir    -1.405699    2.393622   16.664854    ( 0.0000,  0.0000,  0.0000)
   8 Ir    -2.756095    4.773697    9.999999    ( 0.0000,  0.0000,  0.0000)
   9 Ir    -1.378048    5.569313   12.250341    ( 0.0000,  0.0000,  0.0000)
  10 Ir    -2.752885    6.364547   14.456322    ( 0.0000,  0.0000,  0.0000)
  11 Ir    -2.756317    4.775034   16.681307    ( 0.0000,  0.0000,  0.0000)
  12 Ir     2.756095    0.000000    9.999999    ( 0.0000,  0.0000,  0.0000)
  13 Ir     4.134143    0.795616   12.250341    ( 0.0000,  0.0000,  0.0000)
  14 Ir     2.738216    1.602414   14.495294    ( 0.0000,  0.0000,  0.0000)
  15 Ir     2.769415   -0.025208   16.663354    ( 0.0000,  0.0000,  0.0000)
  16 Ir     1.378048    2.386848    9.999999    ( 0.0000,  0.0000,  0.0000)
  17 Ir     2.756095    3.182464   12.250341    ( 0.0000,  0.0000,  0.0000)
  18 Ir     1.378541    3.954676   14.496195    ( 0.0000,  0.0000,  0.0000)
  19 Ir     1.380455    2.387803   16.762815    ( 0.0000,  0.0000,  0.0000)
  20 Ir     0.000000    4.773697    9.999999    ( 0.0000,  0.0000,  0.0000)
  21 Ir     1.378048    5.569313   12.250341    ( 0.0000,  0.0000,  0.0000)
  22 Ir     0.002523    6.363911   14.444399    ( 0.0000,  0.0000,  0.0000)
  23 Ir    -0.021445    4.804029   16.664501    ( 0.0000,  0.0000,  0.0000)
  24 Ir     5.512190    0.000000    9.999999    ( 0.0000,  0.0000,  0.0000)
  25 Ir     6.890238    0.795616   12.250341    ( 0.0000,  0.0000,  0.0000)
  26 Ir     5.515110    1.590521   14.445717    ( 0.0000,  0.0000,  0.0000)
[...]
  23 Ir    -0.014289    4.807526   16.664961    ( 0.0000,  0.0000,  0.0000)
  24 Ir     5.512190    0.000000    9.999999    ( 0.0000,  0.0000,  0.0000)
  25 Ir     6.890238    0.795616   12.250341    ( 0.0000,  0.0000,  0.0000)
  26 Ir     5.514176    1.594683   14.454952    ( 0.0000,  0.0000,  0.0000)
  27 Ir     5.512644    0.010553   16.681899    ( 0.0000,  0.0000,  0.0000)
  28 Ir     4.134143    2.386848    9.999999    ( 0.0000,  0.0000,  0.0000)
  29 Ir     5.512190    3.182464   12.250341    ( 0.0000,  0.0000,  0.0000)
  30 Ir     4.133782    3.978298   14.461311    ( 0.0000,  0.0000,  0.0000)
  31 Ir     4.160482    2.397869   16.679058    ( 0.0000,  0.0000,  0.0000)
  32 Ir     2.756095    4.773697    9.999999    ( 0.0000,  0.0000,  0.0000)
  33 Ir     4.134143    5.569313   12.250341    ( 0.0000,  0.0000,  0.0000)
  34 Ir     2.757141    6.371801   14.457261    ( 0.0000,  0.0000,  0.0000)
  35 Ir     2.771792    4.802204   16.666320    ( 0.0000,  0.0000,  0.0000)
  36 O      1.346885    2.567924   18.767009    ( 0.0000,  0.0000,  0.0000)
  37 H      1.599404    1.728783   19.174929    ( 0.0000,  0.0000,  0.0000)

Unit cell:
           periodic     x           y           z      points  spacing
  1. axis:    yes    8.268285    0.000000    0.000000    40     0.1790
  2. axis:    yes   -4.134143    7.160545    0.000000    40     0.1790
  3. axis:    no     0.000000    0.000000   26.751025   148     0.1808

  Lengths:   8.268285   8.268285  26.751025
  Angles:   90.000000  90.000000 120.000000

Effective grid spacing dv^(1/3) = 0.1884

     iter     time        total  log10-change:
                         energy  eigst   dens
iter:   1 22:04:52 -11744.433320  -2.38
iter:   2 22:05:36 -11744.441571  -3.11  -2.70
iter:   3 22:06:20 -11744.594954c -3.29  -2.64
iter:   4 22:07:04 -11744.373739c -3.89  -2.35
iter:   5 22:07:48 -11744.372844c -4.36  -3.18
iter:   6 22:08:32 -11744.371484c -4.50  -3.35
iter:   7 22:09:16 -11744.371013c -4.48  -3.43
iter:   8 22:10:00 -11744.370280c -4.81  -3.54
iter:   9 22:10:44 -11744.370279c -5.13  -3.70
iter:  10 22:11:28 -11744.370908c -5.43  -3.74
iter:  11 22:12:12 -11744.369931c -6.00  -3.55
iter:  12 22:12:56 -11744.370217c -5.79  -3.87
iter:  13 22:13:40 -11744.369985c -5.80  -4.13c
iter:  14 22:14:24 -11744.370091c -6.54  -4.28c
iter:  15 22:15:08 -11744.370031c -6.72  -4.36c
iter:  16 22:15:52 -11744.370030c -7.02  -4.47c
iter:  17 22:16:36 -11744.370053c -7.24  -4.40c
iter:  18 22:17:20 -11744.370003c -7.34  -4.49c
iter:  19 22:18:04 -11744.370046c -7.80c -4.75c

Converged after 19 iterations.

Dipole moment: (-2.735112, -6.253226, -0.014467) |e|*Ang

Energy contributions relative to reference atoms: (reference = -17443507.918545)

Kinetic:       +1090.584840
Potential:     -1046.111768
External:        +0.000000
XC:            -11782.355044
Entropy (-ST):   -1.498945
Local:           -5.738601
--------------------------
Free energy:   -11745.119519
Extrapolated:  -11744.370046

Showing only first 2 kpts
 Kpt  Band  Eigenvalues  Occupancy
  0   271     -5.75562    1.21824
  0   272     -5.72613    1.07424
  0   273     -5.70876    0.98751
  0   274     -5.63559    0.63876

  1   271     -5.81604    1.48072
  1   272     -5.76651    1.26946
  1   273     -5.71554    1.02141
  1   274     -5.68517    0.87031


Fermi level: -5.71125

No gap

Forces in eV/Ang:
  0 Ir   -0.00637    0.01759    0.31717
  1 Ir    0.00306    0.07153   -0.25996
  2 Ir    0.01128   -0.00744   -0.01292
  3 Ir   -0.03574    0.01587   -0.05384
  4 Ir    0.00922   -0.00438    0.31088
  5 Ir    0.00678   -0.03517   -0.27155
  6 Ir   -0.04701    0.01424    0.02003
  7 Ir    0.05220    0.02782   -0.03913
  8 Ir    0.00883   -0.01345    0.32728
  9 Ir    0.01308    0.04855   -0.30249
 10 Ir   -0.01390   -0.06125   -0.02097
 11 Ir    0.00737   -0.05274   -0.04456
 12 Ir    0.02661    0.01312    0.33037
 13 Ir   -0.00422    0.03030   -0.26711
 14 Ir    0.02804   -0.01177   -0.00464
 15 Ir    0.01407    0.00631   -0.06981
 16 Ir    0.00538    0.00397    0.31841
 17 Ir   -0.01767   -0.01407   -0.27400
 18 Ir   -0.00945   -0.01928    0.06162
 19 Ir   -0.00564    0.01757   -0.00600
 20 Ir    0.02069    0.00506    0.30585
 21 Ir    0.00995    0.04312   -0.30812
 22 Ir   -0.05608   -0.01729    0.01694
 23 Ir    0.01558   -0.02156    0.01418
 24 Ir   -0.01702   -0.02547    0.35758
 25 Ir   -0.02057    0.03735   -0.27133
 26 Ir    0.00741    0.01894   -0.00552
 27 Ir    0.00233   -0.05194   -0.03767
 28 Ir   -0.00101   -0.01154    0.29093
 29 Ir    0.00528   -0.01945   -0.33039
 30 Ir    0.02249    0.00987    0.00503
 31 Ir   -0.00584    0.00458   -0.07052
 32 Ir   -0.01783   -0.00062    0.32875
 33 Ir   -0.01567    0.02532   -0.31526
 34 Ir    0.03647   -0.00946    0.00045
 35 Ir   -0.02125    0.01282   -0.00109
 36 O    -0.04822    0.06441   -0.00217
 37 H     0.03600   -0.10249    0.04563

BFGS:   46 22:18:29   -11744.370046        0.1178
System changes: positions 

Initializing position-dependent things.

Density initialized from wave functions
                                            
                                            
                                            
                                            
                                            
                                            
                   H                        
                                            
          Ir     Ir     Ir                  
           IIr    IIr    IIr                
              Ir     Ir     Ir              
             Ir     Ir     Ir               
              IIr    IIr    IIr             
                                            
                Ir     Ir     Ir            
                  Ir     Ir     Ir          
          Ir     Ir     Ir                  
            Ir     Ir     Ir                
              Ir     Ir     Ir              
                                            
                                            
                                            
                                            

Positions:
   0 Ir     0.000000    0.000000    9.999999    ( 0.0000,  0.0000,  0.0000)
   1 Ir     1.378048    0.795616   12.250341    ( 0.0000,  0.0000,  0.0000)
   2 Ir     0.023442    1.610524   14.499908    ( 0.0000,  0.0000,  0.0000)
   3 Ir    -0.007280   -0.016972   16.671424    ( 0.0000,  0.0000,  0.0000)
   4 Ir    -1.378048    2.386848    9.999999    ( 0.0000,  0.0000,  0.0000)
   5 Ir     0.000000    3.182464   12.250341    ( 0.0000,  0.0000,  0.0000)
   6 Ir    -1.373237    3.980722   14.460024    ( 0.0000,  0.0000,  0.0000)
   7 Ir    -1.405459    2.400831   16.673399    ( 0.0000,  0.0000,  0.0000)
   8 Ir    -2.756095    4.773697    9.999999    ( 0.0000,  0.0000,  0.0000)
   9 Ir    -1.378048    5.569313   12.250341    ( 0.0000,  0.0000,  0.0000)
  10 Ir    -2.751403    6.373587   14.460211    ( 0.0000,  0.0000,  0.0000)
  11 Ir    -2.755552    4.782846   16.682240    ( 0.0000,  0.0000,  0.0000)
  12 Ir     2.756095    0.000000    9.999999    ( 0.0000,  0.0000,  0.0000)
  13 Ir     4.134143    0.795616   12.250341    ( 0.0000,  0.0000,  0.0000)
  14 Ir     2.741025    1.608782   14.493035    ( 0.0000,  0.0000,  0.0000)
  15 Ir     2.765914   -0.010545   16.676410    ( 0.0000,  0.0000,  0.0000)
  16 Ir     1.378048    2.386848    9.999999    ( 0.0000,  0.0000,  0.0000)
  17 Ir     2.756095    3.182464   12.250341    ( 0.0000,  0.0000,  0.0000)
  18 Ir     1.381176    3.973914   14.481397    ( 0.0000,  0.0000,  0.0000)
  19 Ir     1.371767    2.383384   16.779119    ( 0.0000,  0.0000,  0.0000)
  20 Ir     0.000000    4.773697    9.999999    ( 0.0000,  0.0000,  0.0000)
  21 Ir     1.378048    5.569313   12.250341    ( 0.0000,  0.0000,  0.0000)
  22 Ir     0.003323    6.372438   14.453983    ( 0.0000,  0.0000,  0.0000)
  23 Ir    -0.013773    4.808050   16.666119    ( 0.0000,  0.0000,  0.0000)
  24 Ir     5.512190    0.000000    9.999999    ( 0.0000,  0.0000,  0.0000)
  25 Ir     6.890238    0.795616   12.250341    ( 0.0000,  0.0000,  0.0000)
  26 Ir     5.514322    1.596238   14.452756    ( 0.0000,  0.0000,  0.0000)
  27 Ir     5.512537    0.009054   16.679737    ( 0.0000,  0.0000,  0.0000)
  28 Ir     4.134143    2.386848    9.999999    ( 0.0000,  0.0000,  0.0000)
  29 Ir     5.512190    3.182464   12.250341    ( 0.0000,  0.0000,  0.0000)
  30 Ir     4.134803    3.979291   14.461076    ( 0.0000,  0.0000,  0.0000)
  31 Ir     4.160363    2.400210   16.674866    ( 0.0000,  0.0000,  0.0000)
  32 Ir     2.756095    4.773697    9.999999    ( 0.0000,  0.0000,  0.0000)
  33 Ir     4.134143    5.569313   12.250341    ( 0.0000,  0.0000,  0.0000)
  34 Ir     2.758636    6.372166   14.456104    ( 0.0000,  0.0000,  0.0000)
  35 Ir     2.770104    4.804954   16.665489    ( 0.0000,  0.0000,  0.0000)
  36 O      1.346659    2.570246   18.768133    ( 0.0000,  0.0000,  0.0000)
  37 H      1.598060    1.731396   19.181366    ( 0.0000,  0.0000,  0.0000)

Unit cell:
           periodic     x           y           z      points  spacing
  1. axis:    yes    8.268285    0.000000    0.000000    40     0.1790
  2. axis:    yes   -4.134143    7.160545    0.000000    40     0.1790
  3. axis:    no     0.000000    0.000000   26.751025   148     0.1808

  Lengths:   8.268285   8.268285  26.751025
  Angles:   90.000000  90.000000 120.000000

Effective grid spacing dv^(1/3) = 0.1884

     iter     time        total  log10-change:
                         energy  eigst   dens
iter:   1 22:20:13 -11744.398024  -3.12
iter:   2 22:20:57 -11744.505092  -3.47  -2.95
iter:   3 22:21:41 -11744.388293c -3.78  -2.47
iter:   4 22:22:25 -11744.373871c -4.80  -2.91
iter:   5 22:23:09 -11744.372318c -5.19  -3.53
iter:   6 22:23:53 -11744.372009c -5.30  -3.72
iter:   7 22:24:37 -11744.371875c -5.37  -3.85
iter:   8 22:25:21 -11744.371928c -5.67  -3.97
iter:   9 22:26:05 -11744.371939c -6.08  -4.21c
iter:  10 22:26:49 -11744.371827c -6.58  -3.97
iter:  11 22:27:33 -11744.371947c -7.12  -4.34c
iter:  12 22:28:17 -11744.371858c -6.83  -4.34c
iter:  13 22:29:01 -11744.371907c -6.77  -4.50c
iter:  14 22:29:45 -11744.371872c -7.49c -4.55c

Converged after 14 iterations.

Dipole moment: (-2.838199, -6.469294, -0.011790) |e|*Ang

Energy contributions relative to reference atoms: (reference = -17443507.918545)

Kinetic:       +1091.538628
Potential:     -1046.947434
External:        +0.000000
XC:            -11782.472827
Entropy (-ST):   -1.498450
Local:           -5.741013
--------------------------
Free energy:   -11745.121097
Extrapolated:  -11744.371872

Showing only first 2 kpts
 Kpt  Band  Eigenvalues  Occupancy
  0   271     -5.75352    1.21983
  0   272     -5.72344    1.07296
  0   273     -5.70589    0.98530
  0   274     -5.63297    0.63791

  1   271     -5.81328    1.47945
  1   272     -5.76508    1.27406
  1   273     -5.71249    1.01830
  1   274     -5.68336    0.87333


Fermi level: -5.70883

No gap

Forces in eV/Ang:
  0 Ir   -0.00681    0.01750    0.31189
  1 Ir    0.00259    0.07362   -0.27020
  2 Ir    0.01982   -0.00225   -0.01413
  3 Ir   -0.01632   -0.00490   -0.02896
  4 Ir    0.00904   -0.00393    0.31009
  5 Ir    0.00943   -0.02494   -0.26878
  6 Ir    0.00062   -0.00554   -0.00101
  7 Ir    0.02019   -0.00449   -0.03029
  8 Ir    0.00840   -0.01322    0.32043
  9 Ir    0.01400    0.04378   -0.32306
 10 Ir   -0.00937   -0.00769   -0.00404
 11 Ir   -0.00474   -0.01886   -0.02320
 12 Ir    0.02728    0.01382    0.32656
 13 Ir   -0.00750    0.02733   -0.27470
 14 Ir    0.00136   -0.00602   -0.00328
 15 Ir    0.01053   -0.01117   -0.04360
 16 Ir    0.00527    0.00377    0.32207
 17 Ir   -0.02713   -0.00440   -0.27147
 18 Ir   -0.00088   -0.02243    0.00280
 19 Ir   -0.00384    0.01165   -0.00094
 20 Ir    0.01999    0.00598    0.30291
 21 Ir    0.00638    0.03315   -0.30032
 22 Ir   -0.00514   -0.00791    0.01516
 23 Ir   -0.00201   -0.00900    0.00104
 24 Ir   -0.01667   -0.02548    0.35780
 25 Ir   -0.01373    0.03810   -0.28063
 26 Ir    0.00906   -0.01352    0.02546
 27 Ir   -0.00163   -0.01711   -0.04142
 28 Ir   -0.00109   -0.01165    0.29189
 29 Ir    0.00562   -0.01109   -0.34488
 30 Ir   -0.01484   -0.00136   -0.00764
 31 Ir    0.00297   -0.01359   -0.04261
 32 Ir   -0.01748    0.00061    0.32510
 33 Ir   -0.02132    0.02226   -0.33737
 34 Ir   -0.00412   -0.00590    0.00013
 35 Ir    0.00702    0.00554    0.00188
 36 O    -0.02263   -0.01651   -0.00907
 37 H     0.01065   -0.02420    0.01009

BFGS:   47 22:30:10   -11744.371872        0.0462
Timing:                                      incl.     excl.
-------------------------------------------------------------------
Density initialized from wave functions:    30.342    30.340   0.1% |
 Symmetrize density:                         0.002     0.002   0.0% |
Forces:                                   1183.803  1183.803   3.1% ||
Hamiltonian:                               166.020     0.008   0.0% |
 Atomic:                                     0.013     0.013   0.0% |
  XC Correction:                             0.000     0.000   0.0% |
 Calculate atomic Hamiltonians:              0.018     0.018   0.0% |
 Communicate:                               12.145    12.145   0.0% |
 Hartree integrate/restrict:                 0.480     0.480   0.0% |
 Initialize Hamiltonian:                     0.001     0.001   0.0% |
 Poisson:                                    8.536     0.338   0.0% |
  Communicate from 1D:                       0.655     0.655   0.0% |
  Communicate from 2D:                       1.398     1.398   0.0% |
  Communicate to 1D:                         0.393     0.393   0.0% |
  Communicate to 2D:                         1.524     1.524   0.0% |
  FFT 1D:                                    2.176     2.176   0.0% |
  FFT 2D:                                    2.051     2.051   0.0% |
 XC 3D grid:                               144.602    36.619   0.1% |
  VdW-DF integral:                         107.983     6.143   0.0% |
   Convolution:                             10.043    10.043   0.0% |
   FFT:                                      7.245     7.245   0.0% |
   gather:                                  34.559    34.559   0.1% |
   hmm1:                                     2.059     2.059   0.0% |
   hmm2:                                     4.271     4.271   0.0% |
   iFFT:                                     6.952     6.952   0.0% |
   potential:                               32.432     0.754   0.0% |
    collect:                                 2.183     2.183   0.0% |
    p1:                                     19.485    19.485   0.1% |
    p2:                                      6.645     6.645   0.0% |
    sum:                                     3.365     3.365   0.0% |
   splines:                                  4.279     4.279   0.0% |
 vbar:                                       0.216     0.216   0.0% |
LCAO initialization:                        40.607     1.430   0.0% |
 LCAO eigensolver:                          27.617     0.004   0.0% |
  Calculate projections:                     0.000     0.000   0.0% |
  DenseAtomicCorrection:                     0.000     0.000   0.0% |
  Distribute overlap matrix:                26.690    26.690   0.1% |
  Orbital Layouts:                           0.748     0.748   0.0% |
  Potential matrix:                          0.024     0.024   0.0% |
  Sum over cells:                            0.149     0.149   0.0% |
 LCAO to grid:                               9.727     9.727   0.0% |
 Set positions (LCAO WFS):                   1.833     1.312   0.0% |
  Basic WFS set positions:                   0.001     0.001   0.0% |
  Basis functions set positions:             0.000     0.000   0.0% |
  P tci:                                     0.000     0.000   0.0% |
  ST tci:                                    0.424     0.424   0.0% |
  mktci:                                     0.095     0.095   0.0% |
Redistribute:                                0.030     0.030   0.0% |
SCF-cycle:                               34523.467   366.395   1.0% |
 Davidson:                               31306.773 10678.566  27.8% |----------|
  Apply hamiltonian:                       597.726   597.726   1.6% ||
  Subspace diag:                          2594.124     0.105   0.0% |
   calc_h_matrix:                         1286.941   720.054   1.9% ||
    Apply hamiltonian:                     566.887   566.887   1.5% ||
   diagonalize:                             60.100    60.100   0.2% |
   rotate_psi:                            1246.979  1246.979   3.2% ||
  calc. matrices:                        14710.536  4695.147  12.2% |----|
   Apply hamiltonian:                    10015.389 10015.389  26.1% |---------|
  diagonalize:                             377.917   377.917   1.0% |
  rotate_psi:                             2347.904  2347.904   6.1% |-|
 Density:                                   48.574     0.020   0.0% |
  Atomic density matrices:                   4.179     4.179   0.0% |
  Mix:                                      10.507    10.507   0.0% |
  Multipole moments:                         0.316     0.316   0.0% |
  Pseudo density:                           33.552    33.528   0.1% |
   Symmetrize density:                       0.025     0.025   0.0% |
 Hamiltonian:                             2472.995     0.103   0.0% |
  Atomic:                                    0.206     0.203   0.0% |
   XC Correction:                            0.003     0.003   0.0% |
  Calculate atomic Hamiltonians:             0.259     0.259   0.0% |
  Communicate:                             183.498   183.498   0.5% |
  Hartree integrate/restrict:                7.215     7.215   0.0% |
  Poisson:                                 130.107     5.136   0.0% |
   Communicate from 1D:                     10.006    10.006   0.0% |
   Communicate from 2D:                     21.444    21.444   0.1% |
   Communicate to 1D:                        6.079     6.079   0.0% |
   Communicate to 2D:                       23.150    23.150   0.1% |
   FFT 1D:                                  33.235    33.235   0.1% |
   FFT 2D:                                  31.057    31.057   0.1% |
  XC 3D grid:                             2149.851   557.564   1.5% ||
   VdW-DF integral:                       1592.287    94.030   0.2% |
    Convolution:                           152.479   152.479   0.4% |
    FFT:                                   110.230   110.230   0.3% |
    gather:                                538.081   538.081   1.4% ||
    hmm1:                                   30.975    30.975   0.1% |
    hmm2:                                   63.882    63.882   0.2% |
    iFFT:                                  105.746   105.746   0.3% |
    potential:                             496.858    11.556   0.0% |
     collect:                               33.078    33.078   0.1% |
     p1:                                   298.384   298.384   0.8% |
     p2:                                   101.655   101.655   0.3% |
     sum:                                   52.185    52.185   0.1% |
    splines:                                 0.005     0.005   0.0% |
  vbar:                                      1.757     1.757   0.0% |
 Orthonormalize:                           328.729     0.011   0.0% |
  calc_s_matrix:                            18.998    18.998   0.0% |
  inverse-cholesky:                        272.485   272.485   0.7% |
  projections:                               0.003     0.003   0.0% |
  rotate_psi_s:                             37.231    37.231   0.1% |
Set symmetry:                                0.001     0.001   0.0% |
Other:                                    2492.802  2492.802   6.5% |--|
-------------------------------------------------------------------
Total:                                             38437.072 100.0%

Memory usage: 1.61 GiB
Date: Tue Sep 26 22:30:10 2023
