
  ___ ___ ___ _ _ _  
 |   |   |_  | | | | 
 | | | | | . | | | | 
 |__ |  _|___|_____|  22.8.0
 |___|_|             

User:   s204775@a099.nifl.fysik.dtu.dk
Date:   Tue Oct  3 14:30:33 2023
Arch:   x86_64
Pid:    216934
CWD:    /home/cat/s204775/projects/Bachelor_project/OH_missing_features
Python: 3.10.4
gpaw:   /home/modules/software/GPAW/22.8.0-intel-2022a/lib/python3.10/site-packages/gpaw
_gpaw:  /home/modules/software/GPAW/22.8.0-intel-2022a/lib/python3.10/site-packages/
        _gpaw.cpython-310-x86_64-linux-gnu.so
ase:    /home/modules/software/ASE/3.22.1-intel-2022a/lib/python3.10/site-packages/ase (version 3.22.1)
numpy:  /home/modules/software/SciPy-bundle/2022.05-intel-2022a/lib/python3.10/site-packages/numpy (version 1.22.3)
scipy:  /home/modules/software/SciPy-bundle/2022.05-intel-2022a/lib/python3.10/site-packages/scipy (version 1.8.1)
libxc:  5.2.3
units:  Angstrom and eV
cores: 40
OpenMP: False
OMP_NUM_THREADS: 1

Input parameters:
  basis: dzp
  h: 0.18
  kpts: {size: (4, 4, 1)}
  maxiter: 3000
  xc: BEEF-vdW

System changes: positions, numbers, cell, pbc, initial_charges, initial_magmoms 

Initialize ...

species:
  Ni:
    name: Nickel
    id: 0d9f38a9d6e76a2886f07bb4381f212b
    Z: 28.0
    valence: 16
    core: 12
    charge: 0.0
    file: /home/modules/software/GPAW-setups/0.9.20000/Ni.PBE.gz
    compensation charges: {type: gauss,
                           rc: 0.36,
                           lmax: 2}
    cutoffs: {filter: 2.14,
              core: 1.98}
    valence states:
      #              energy  rcut
      - 4s(2.00)    -5.642   1.164
      - 3p(6.00)   -71.394   1.207
      - 4p(0.00)    -1.226   1.207
      - 3d(8.00)    -8.875   1.138
      -  s          21.570   1.164
      -  d          18.337   1.138
  
    # LCAO basis set for Ni:
    #   Name: dzp
    #   File: /home/modules/software/GPAW-setups/0.9.20000/Ni.dzp.basis.gz
    #   Number of radial functions: 9
    #   Number of spherical harmonics: 27
    #     l=0, rc=8.5156 Bohr: 4s-sz confined orbital
    #     l=1, rc=2.9375 Bohr: 3p-sz confined orbital
    #     l=1, rc=12.4062 Bohr: 4p-sz confined orbital
    #     l=2, rc=4.6875 Bohr: 3d-sz confined orbital
    #     l=0, rc=4.9688 Bohr: 4s-dz split-valence wave
    #     l=1, rc=2.0781 Bohr: 3p-dz split-valence wave
    #     l=1, rc=7.5469 Bohr: 4p-dz split-valence wave
    #     l=2, rc=2.9375 Bohr: 3d-dz split-valence wave
    #     l=1, rc=8.5156 Bohr: p-type Gaussian polarization
    #   Number of RI-basis functions 0

  O:
    name: Oxygen
    id: 32ecd46bf208036f09c70b0ec9a88b78
    Z: 8.0
    valence: 6
    core: 2
    charge: 0.0
    file: /home/modules/software/GPAW-setups/0.9.20000/O.PBE.gz
    compensation charges: {type: gauss,
                           rc: 0.21,
                           lmax: 2}
    cutoffs: {filter: 1.17,
              core: 0.83}
    valence states:
      #              energy  rcut
      - 2s(2.00)   -23.961   0.688
      - 2p(4.00)    -9.029   0.598
      -  s           3.251   0.688
      -  p          18.182   0.598
      -  d           0.000   0.619
  
    # LCAO basis set for O:
    #   Name: dzp
    #   File: /home/modules/software/GPAW-setups/0.9.20000/O.dzp.basis.gz
    #   Number of radial functions: 5
    #   Number of spherical harmonics: 13
    #     l=0, rc=4.3438 Bohr: 2s-sz confined orbital
    #     l=1, rc=5.3906 Bohr: 2p-sz confined orbital
    #     l=0, rc=2.2969 Bohr: 2s-dz split-valence wave
    #     l=1, rc=2.8906 Bohr: 2p-dz split-valence wave
    #     l=2, rc=5.3906 Bohr: d-type Gaussian polarization
    #   Number of RI-basis functions 0

  H:
    name: Hydrogen
    id: d65de229564ff8ea4db303e23b6d1ecf
    Z: 1.0
    valence: 1
    core: 0
    charge: 0.0
    file: /home/modules/software/GPAW-setups/0.9.20000/H.PBE.gz
    compensation charges: {type: gauss,
                           rc: 0.15,
                           lmax: 2}
    cutoffs: {filter: 0.85,
              core: 0.53}
    valence states:
      #              energy  rcut
      - 1s(1.00)    -6.494   0.476
      -  s          20.717   0.476
      -  p           0.000   0.476
  
    # LCAO basis set for H:
    #   Name: dzp
    #   File: /home/modules/software/GPAW-setups/0.9.20000/H.dzp.basis.gz
    #   Number of radial functions: 3
    #   Number of spherical harmonics: 5
    #     l=0, rc=6.4219 Bohr: 1s-sz confined orbital
    #     l=0, rc=3.6094 Bohr: 1s-dz split-valence wave
    #     l=1, rc=6.4219 Bohr: p-type Gaussian polarization
    #   Number of RI-basis functions 0

Reference energy: -1491301.286566  # eV

Spin-polarized calculation.
Magnetic moment: 24.133853

Convergence criteria:
 Maximum [total energy] change in last 3 cyles: 0.0005 eV / electron
 Maximum integral of absolute [dens]ity change: 0.0001 electrons / valence electron
 Maximum integral of absolute [eigenst]ate change: 4e-08 eV^2 / valence electron
 Maximum number of scf [iter]ations: 3000
 (Square brackets indicate name in SCF output, whereas a 'c' in
 the SCF output indicates the quantity has converged.)

Symmetries present (total): 1

  ( 1  0  0)
  ( 0  1  0)
  ( 0  0  1)

16 k-points: 4 x 4 x 1 Monkhorst-Pack grid
8 k-points in the irreducible part of the Brillouin zone
       k-points in crystal coordinates                weights
   0:     0.12500000   -0.37500000    0.00000000          2/16
   1:     0.12500000   -0.12500000    0.00000000          2/16
   2:     0.12500000    0.12500000    0.00000000          2/16
   3:     0.12500000    0.37500000    0.00000000          2/16
   4:     0.37500000   -0.37500000    0.00000000          2/16
   5:     0.37500000   -0.12500000    0.00000000          2/16
   6:     0.37500000    0.12500000    0.00000000          2/16
   7:     0.37500000    0.37500000    0.00000000          2/16

Wave functions: Uniform real-space grid
  Kinetic energy operator: 8*3+1=25 point O(h^6) finite-difference Laplacian
  ScaLapack parameters: grid=1x1, blocksize=None
  Wavefunction extrapolation:
    Improved wavefunction reuse through dual PAW basis 

Occupation numbers: Fermi-Dirac:
  width: 0.1000  # eV
 

Eigensolver
   Davidson(niter=2) 

Densities:
  Coarse grid: 36*36*144 grid
  Fine grid: 72*72*288 grid
  Total Charge: 0.000000 

Density mixing:
  Method: difference
  Backend: pulay
  Linear mixing parameter: 0.05
  old densities: 5
  Damping of long wavelength oscillations: 50 

Hamiltonian:
  XC and Coulomb potentials evaluated on a 72*72*288 grid
  Using the BEEF-vdW Exchange-Correlation functional
  Interpolation: tri-quintic (5. degree polynomial)
  Poisson solver: FastPoissonSolver using
    Stencil: 8*3+1=25 point O(h^6) finite-difference Laplacian
    FFT axes: [0, 1]
    FST axes: [2]
 

XC parameters: BEEF-vdW with 2 nearest neighbor stencil

Memory estimate:
  Process memory now: 192.18 MiB
  Calculator: 701.43 MiB
    Density: 47.64 MiB
      Arrays: 9.85 MiB
      Localized functions: 33.92 MiB
      Mixer: 3.88 MiB
    Hamiltonian: 9.92 MiB
      Arrays: 7.32 MiB
      XC: 0.00 MiB
      Poisson: 0.00 MiB
      vbar: 2.61 MiB
    Wavefunctions: 643.87 MiB
      Arrays psit_nG: 408.64 MiB
      Eigensolver: 227.88 MiB
      Projections: 1.50 MiB
      Projectors: 5.85 MiB

Total number of cores used: 40
Parallelization over k-points: 8
Domain decomposition: 1 x 1 x 5

Number of atoms: 38
Number of atomic orbitals: 990
Number of bands in calculation: 369
Number of valence electrons: 583
Bands to converge: occupied

... initialized

Initializing position-dependent things.

Density initialized from atomic densities
Creating initial wave functions:
  369 bands from LCAO basis set

                                          
                                          
                                          
                                          
                                          
                                          
                  H                       
                  O                       
          Ni    Ni    Ni                  
            Ni    Ni    Ni                
           Ni    Ni    Ni                 
             NNi   NNi   NNi              
              Ni     Ni    Ni             
             Ni     Ni    Ni              
               Ni     Ni    Ni            
                 Ni    Ni     Ni          
          Ni    Ni    Ni                  
            Ni    Ni    Ni                
              Ni    Ni    Ni              
                                          
                                          
                                          
                                          

Positions:
   0 Ni    -0.000000    0.000000   10.000000    ( 0.0000,  0.0000,  0.6703)
   1 Ni     1.261746    0.728469   12.060422    ( 0.0000,  0.0000,  0.6693)
   2 Ni    -0.000000    1.456879   14.115099    ( 0.0000,  0.0000,  0.6697)
   3 Ni    -0.000000    0.000000   16.159108    ( 0.0000,  0.0000,  0.6722)
   4 Ni    -1.261746    2.185408   10.000000    ( 0.0000,  0.0000,  0.6703)
   5 Ni    -0.000000    2.913877   12.060422    ( 0.0000,  0.0000,  0.6693)
   6 Ni    -1.261752    3.642342   14.115047    ( 0.0000,  0.0000,  0.6697)
   7 Ni    -1.261722    2.185367   16.159160    ( 0.0000,  0.0000,  0.6722)
   8 Ni    -2.523491    4.370815   10.000000    ( 0.0000,  0.0000,  0.6703)
   9 Ni    -1.261746    5.099284   12.060422    ( 0.0000,  0.0000,  0.6693)
  10 Ni    -2.523542    5.827783   14.115099    ( 0.0000,  0.0000,  0.6697)
  11 Ni    -2.523515    4.370856   16.159160    ( 0.0000,  0.0000,  0.6722)
  12 Ni     2.523491    0.000000   10.000000    ( 0.0000,  0.0000,  0.6703)
  13 Ni     3.785237    0.728469   12.060422    ( 0.0000,  0.0000,  0.6693)
  14 Ni     2.523448    1.456914   14.115068    ( 0.0000,  0.0000,  0.6697)
  15 Ni     2.523444    0.000000   16.159160    ( 0.0000,  0.0000,  0.6722)
  16 Ni     1.261746    2.185408   10.000000    ( 0.0000,  0.0000,  0.6703)
  17 Ni     2.523491    2.913877   12.060422    ( 0.0000,  0.0000,  0.6693)
  18 Ni     1.261752    3.642342   14.115047    ( 0.0000,  0.0000,  0.6697)
  19 Ni     1.261722    2.185367   16.159160    ( 0.0000,  0.0000,  0.6722)
  20 Ni    -0.000000    4.370815   10.000000    ( 0.0000,  0.0000,  0.6703)
  21 Ni     1.261746    5.099284   12.060422    ( 0.0000,  0.0000,  0.6693)
  22 Ni    -0.000000    5.827761   14.115047    ( 0.0000,  0.0000,  0.6697)
  23 Ni    -0.000000    4.370815   16.159174    ( 0.0000,  0.0000,  0.6722)
  24 Ni     5.046982    0.000000   10.000000    ( 0.0000,  0.0000,  0.6703)
  25 Ni     6.308728    0.728469   12.060422    ( 0.0000,  0.0000,  0.6693)
  26 Ni     5.047025    1.456914   14.115068    ( 0.0000,  0.0000,  0.6697)
  27 Ni     5.047030    0.000000   16.159160    ( 0.0000,  0.0000,  0.6722)
  28 Ni     3.785237    2.185408   10.000000    ( 0.0000,  0.0000,  0.6703)
  29 Ni     5.046982    2.913877   12.060422    ( 0.0000,  0.0000,  0.6693)
  30 Ni     3.785237    3.642395   14.115068    ( 0.0000,  0.0000,  0.6697)
  31 Ni     3.785237    2.185408   16.159114    ( 0.0000,  0.0000,  0.6722)
  32 Ni     2.523491    4.370815   10.000000    ( 0.0000,  0.0000,  0.6703)
  33 Ni     3.785237    5.099284   12.060422    ( 0.0000,  0.0000,  0.6693)
  34 Ni     2.523542    5.827783   14.115099    ( 0.0000,  0.0000,  0.6697)
  35 Ni     2.523515    4.370856   16.159160    ( 0.0000,  0.0000,  0.6722)
  36 O      1.261722    2.185367   18.159160    ( 0.0000,  0.0000,  0.0000)
  37 H      1.261722    2.185367   19.119160    ( 0.0000,  0.0000,  0.0000)

Unit cell:
           periodic     x           y           z      points  spacing
  1. axis:    yes    7.570474    0.000000    0.000000    36     0.1821
  2. axis:    yes   -3.785237    6.556223    0.000000    36     0.1821
  3. axis:    no     0.000000    0.000000   26.181266   144     0.1818

  Lengths:   7.570474   7.570474  26.181266
  Angles:   90.000000  90.000000 120.000000

Effective grid spacing dv^(1/3) = 0.1910

     iter     time        total  log10-change:  magmom
                         energy  eigst   dens
iter:   1 14:32:54 -2770.307403                  +23.8853
iter:   2 14:33:55 -2894.995002  +0.00  -1.40    +18.4924
iter:   3 14:34:56 -2858.430912  -0.15  -1.31    +14.2029
iter:   4 14:35:57 -2763.614918  -0.93  -1.35    +12.5642
iter:   5 14:36:58 -2756.324626  -1.52  -1.58    +11.6614
iter:   6 14:37:59 -2759.251526  -1.96  -1.58    +14.5075
iter:   7 14:39:00 -2748.460038  -1.85  -1.58    +16.4286
iter:   8 14:40:01 -2759.023476  -0.79  -1.61    +18.9204
iter:   9 14:41:02 -2788.729947  -0.93  -1.80    +16.8637
iter:  10 14:42:03 -2760.183768  -1.82  -1.54    +14.7324
iter:  11 14:43:04 -2744.812053  -1.32  -1.68    +20.8482
iter:  12 14:44:05 -2738.906928  -2.15  -1.80    +17.7199
iter:  13 14:45:06 -2741.428464  -2.25  -1.94    +18.5362
iter:  14 14:46:07 -2739.527770  -2.58  -1.88    +16.9754
iter:  15 14:47:08 -2747.467456  -1.89  -1.94    +19.0864
iter:  16 14:48:09 -2751.518663  -2.52  -1.82    +19.1152
iter:  17 14:49:09 -2741.494000  -2.39  -1.77    +22.6829
iter:  18 14:50:10 -2739.458114  -1.99  -1.94    +25.6751
iter:  19 14:51:11 -2738.395545  -2.15  -2.09    +22.8567
iter:  20 14:52:12 -2740.015162  -2.40  -2.19    +23.2999
iter:  21 14:53:13 -2737.719960  -2.91  -2.10    +23.5823
iter:  22 14:54:14 -2738.484949  -3.13  -2.24    +23.7175
iter:  23 14:55:15 -2738.059848  -2.98  -2.22    +23.8697
iter:  24 14:56:16 -2742.307670  -2.27  -2.35    +23.9015
iter:  25 14:57:17 -2738.676926  -2.55  -2.10    +24.6235
iter:  26 14:58:18 -2738.590668  -2.88  -2.59    +25.6074
iter:  27 14:59:19 -2738.576366c -2.82  -2.66    +24.6101
iter:  28 15:00:20 -2738.704579c -3.20  -2.78    +24.4657
iter:  29 15:01:21 -2739.014999  -2.87  -2.78    +24.4760
iter:  30 15:02:22 -2740.513427  -2.54  -2.62    +24.6162
iter:  31 15:03:23 -2739.203299  -2.72  -2.31    +24.3960
iter:  32 15:04:24 -2737.777807  -2.07  -2.54    +23.8801
iter:  33 15:05:25 -2739.857232  -2.62  -3.08    +23.8243
iter:  34 15:06:26 -2737.850067  -2.48  -2.36    +22.9531
iter:  35 15:07:27 -2737.050642  -1.91  -2.91    +19.3754
iter:  36 15:08:27 -2738.278683  -2.22  -2.56    +21.0051
iter:  37 15:09:28 -2738.234912  -3.08  -2.62    +19.0954
iter:  38 15:10:29 -2738.416855c -2.88  -2.65    +18.2826
iter:  39 15:11:30 -2739.019043  -3.09  -2.62    +19.7298
iter:  40 15:12:31 -2738.009003  -3.02  -2.48    +17.8233
iter:  41 15:13:32 -2738.195420  -3.65  -2.90    +19.1950
iter:  42 15:14:33 -2738.269818c -3.53  -2.67    +19.5942
iter:  43 15:15:34 -2738.817977  -3.35  -2.77    +20.4029
iter:  44 15:16:35 -2738.269750  -3.50  -2.54    +19.9436
iter:  45 15:17:36 -2737.577667  -2.31  -2.70    +17.8543
iter:  46 15:18:37 -2737.647305  -3.42  -2.96    +16.7710
iter:  47 15:19:38 -2737.635012c -3.93  -2.87    +15.9758
iter:  48 15:20:39 -2737.700524c -3.75  -2.94    +15.0608
iter:  49 15:21:40 -2738.038593  -3.24  -2.80    +15.0195
iter:  50 15:22:41 -2737.674261  -3.66  -2.71    +15.3056
iter:  51 15:23:42 -2737.689996  -3.87  -2.93    +15.6755
iter:  52 15:24:43 -2737.694980c -4.60  -3.03    +15.8105
iter:  53 15:25:44 -2737.869772c -3.57  -3.09    +16.7191
iter:  54 15:26:45 -2737.758703c -4.20  -2.90    +16.9463
iter:  55 15:27:46 -2737.898117c -3.73  -3.25    +18.1965
iter:  56 15:28:47 -2737.866725c -4.64  -3.00    +18.1906
iter:  57 15:29:47 -2737.976466c -3.76  -3.16    +19.5330
iter:  58 15:30:48 -2737.946661c -4.01  -3.14    +18.3411
iter:  59 15:31:49 -2738.012515c -3.45  -2.97    +18.5447
iter:  60 15:32:50 -2738.042374c -3.81  -2.89    +19.5335
iter:  61 15:33:51 -2738.446412  -2.97  -3.16    +22.0413
iter:  62 15:34:52 -2738.318362  -3.77  -2.88    +22.0150
iter:  63 15:35:53 -2738.441226c -3.55  -3.25    +22.9943
iter:  64 15:36:54 -2738.353059c -3.93  -3.07    +22.1398
iter:  65 15:37:55 -2738.646080  -3.16  -3.11    +23.6704
iter:  66 15:38:56 -2738.480852  -3.64  -2.82    +22.6725
iter:  67 15:39:57 -2738.765936c -3.72  -2.95    +23.1707
iter:  68 15:40:58 -2738.358608  -3.24  -2.70    +22.7761
iter:  69 15:41:59 -2737.755193  -2.23  -3.08    +22.0701
iter:  70 15:43:00 -2738.409596  -2.57  -2.74    +22.8593
iter:  71 15:44:01 -2738.441011  -3.42  -3.02    +22.9993
iter:  72 15:45:02 -2738.776152  -3.14  -3.00    +23.7074
iter:  73 15:46:03 -2738.132777  -2.75  -2.70    +22.5995
iter:  74 15:47:04 -2737.635995  -2.24  -3.25    +21.1057
iter:  75 15:48:05 -2738.399508  -2.35  -2.76    +23.0414
iter:  76 15:49:06 -2738.022005  -3.22  -2.95    +21.2534
iter:  77 15:50:07 -2737.945531  -3.68  -3.07    +21.1706
iter:  78 15:51:08 -2737.990161c -3.98  -3.05    +21.5635
iter:  79 15:52:09 -2737.852264c -3.29  -3.34    +20.9049
iter:  80 15:53:10 -2737.747097c -3.82  -2.88    +20.5122
iter:  81 15:54:11 -2737.799574c -4.06  -3.03    +20.8121
iter:  82 15:55:12 -2737.565589c -3.24  -3.34    +19.5535
iter:  83 15:56:12 -2737.480019  -3.50  -2.98    +18.0261
iter:  84 15:57:13 -2737.575214c -3.98  -3.04    +17.7093
iter:  85 15:58:14 -2737.721111c -3.43  -3.14    +17.8791
iter:  86 15:59:15 -2737.775132c -3.83  -3.30    +18.3695
iter:  87 16:00:16 -2737.768049c -4.18  -3.41    +17.5655
iter:  88 16:01:17 -2737.867198c -3.93  -3.10    +18.7780
iter:  89 16:02:18 -2737.847652c -4.37  -3.16    +19.1086
iter:  90 16:03:19 -2737.921463c -3.90  -3.36    +19.9123
iter:  91 16:04:20 -2737.779422c -3.84  -3.72    +18.9267
iter:  92 16:05:21 -2737.607437  -2.84  -3.36    +16.3130
iter:  93 16:06:22 -2737.697632c -3.80  -2.97    +17.2042
iter:  94 16:07:23 -2737.707697c -4.40  -3.07    +17.2936
iter:  95 16:08:24 -2737.750753c -3.97  -3.10    +17.6212
iter:  96 16:09:25 -2737.591767c -2.83  -3.17    +15.9017
iter:  97 16:10:26 -2737.578663c -3.89  -2.93    +15.9128
iter:  98 16:11:27 -2737.482479c -3.49  -2.94    +15.5608
iter:  99 16:12:28 -2737.491509c -3.87  -2.98    +15.4152
iter: 100 16:13:28 -2737.639617c -3.46  -3.19    +15.7346
iter: 101 16:14:29 -2737.681820c -3.77  -3.24    +16.6239
iter: 102 16:15:30 -2737.787259c -3.46  -3.40    +18.0632
iter: 103 16:16:31 -2737.777624c -4.31  -3.50    +17.7046
iter: 104 16:17:32 -2737.848434c -3.79  -3.24    +18.8239
iter: 105 16:18:33 -2737.841090c -4.17  -3.57    +19.0260
iter: 106 16:19:34 -2737.940043c -3.94  -3.35    +19.8687
iter: 107 16:20:35 -2738.121676c -3.37  -3.76    +21.2807
iter: 108 16:21:36 -2737.628921  -2.55  -3.43    +17.0112
iter: 109 16:22:37 -2737.626913  -3.55  -3.33    +16.4988
iter: 110 16:23:38 -2737.646561c -4.54  -3.38    +16.4624
iter: 111 16:24:39 -2737.654999c -4.75  -3.45    +16.7216
iter: 112 16:25:40 -2737.640822c -4.37  -3.57    +16.3035
iter: 113 16:26:41 -2737.621718c -4.13  -3.28    +16.0248
iter: 114 16:27:42 -2737.745651c -4.14  -3.16    +16.1565
iter: 115 16:28:43 -2737.613597c -4.71  -2.90    +16.1767
iter: 116 16:29:44 -2737.639808c -4.43  -3.34    +16.7308
iter: 117 16:30:45 -2737.554816c -3.83  -3.54    +15.4940
iter: 118 16:31:45 -2737.564372c -4.79  -3.29    +15.2460
iter: 119 16:32:46 -2737.572278c -4.83  -3.36    +15.4761
iter: 120 16:33:47 -2737.573197c -5.60  -3.42    +15.4735
iter: 121 16:34:48 -2737.577083c -4.74  -3.38    +15.4335
iter: 122 16:35:49 -2737.634605c -3.71  -3.36    +15.5971
iter: 123 16:36:50 -2737.618982c -3.69  -3.06    +15.6516
iter: 124 16:37:51 -2737.660374c -4.37  -3.75    +16.5046
iter: 125 16:38:52 -2737.683654c -4.11  -3.54    +16.7877
iter: 126 16:39:53 -2737.707362c -4.42  -3.75    +17.3203
iter: 127 16:40:54 -2737.763399c -3.78  -3.77    +18.0697
iter: 128 16:41:55 -2737.763163c -4.76  -3.70    +18.0225
iter: 129 16:42:56 -2737.845594c -3.94  -3.92    +18.8034
iter: 130 16:43:57 -2737.692439c -3.56  -3.76    +17.1627
iter: 131 16:44:58 -2737.606572c -3.45  -3.53    +15.8909
iter: 132 16:45:59 -2737.596419c -4.06  -3.44    +15.4784
iter: 133 16:47:00 -2737.594067c -4.47  -3.37    +15.1416
iter: 134 16:48:01 -2737.601978c -5.01  -3.32    +15.4708
iter: 135 16:49:02 -2737.562278c -4.61  -3.39    +15.0151
iter: 136 16:50:03 -2737.593416c -4.39  -3.28    +15.6177
iter: 137 16:51:04 -2737.589278c -4.94  -3.58    +15.1695
iter: 138 16:52:05 -2737.667551c -4.23  -3.61    +15.8682
iter: 139 16:53:05 -2737.607849c -4.72  -3.23    +15.2645
iter: 140 16:54:06 -2737.604770c -4.57  -3.57    +15.4478
iter: 141 16:55:07 -2737.655862c -4.34  -3.33    +16.0327
iter: 142 16:56:08 -2737.654313c -4.75  -3.64    +15.8967
iter: 143 16:57:09 -2737.731126c -4.12  -3.64    +17.0318
iter: 144 16:58:10 -2737.634468c -4.07  -3.52    +15.6063
iter: 145 16:59:11 -2737.606248c -4.05  -3.25    +14.9400
iter: 146 17:00:12 -2737.682989c -4.21  -3.32    +16.1718
iter: 147 17:01:13 -2737.657044c -4.67  -3.27    +15.6258
iter: 148 17:02:14 -2737.698235c -4.16  -3.31    +16.6002
iter: 149 17:03:15 -2737.773180c -4.05  -3.41    +16.8696
iter: 150 17:04:16 -2737.778905c -4.10  -3.13    +17.5361
iter: 151 17:05:17 -2737.885014c -3.63  -3.44    +18.8640
iter: 152 17:06:18 -2737.860579c -4.72  -3.41    +18.7037
iter: 153 17:07:19 -2737.933687c -3.95  -3.57    +19.4892
iter: 154 17:08:20 -2738.004181c -4.21  -3.54    +19.6710
iter: 155 17:09:21 -2737.981820c -3.81  -3.02    +20.4879
iter: 156 17:10:22 -2738.006300c -2.65  -3.63    +23.6212
iter: 157 17:11:23 -2738.153263c -2.81  -2.85    +20.7925
iter: 158 17:12:24 -2738.311161  -3.51  -3.08    +22.3370
iter: 159 17:13:25 -2738.176037c -2.89  -3.03    +20.0581
iter: 160 17:14:25 -2738.339731c -2.99  -2.79    +19.6238
iter: 161 17:15:26 -2738.454724c -3.27  -2.61    +20.9820
iter: 162 17:16:27 -2738.864920  -2.58  -2.69    +19.5275
iter: 163 17:17:28 -2739.574068  -3.11  -2.42    +21.0359
iter: 164 17:18:29 -2738.792358  -2.94  -2.37    +18.7539
iter: 165 17:19:30 -2737.495116  -2.58  -2.42    +16.8170
iter: 166 17:20:31 -2737.812887  -3.09  -2.55    +19.1449
iter: 167 17:21:32 -2736.823090  -2.51  -2.61    +16.4713
iter: 168 17:22:33 -2737.422329  -2.53  -2.76    +20.2661
iter: 169 17:23:34 -2738.140706  -2.67  -3.02    +21.1473
iter: 170 17:24:35 -2738.637173  -2.49  -2.83    +22.7466
iter: 171 17:25:36 -2738.862883  -2.64  -2.80    +23.8609
iter: 172 17:26:37 -2739.160840  -3.19  -2.67    +23.9022
iter: 173 17:27:38 -2738.936993  -3.37  -2.58    +24.1875
iter: 174 17:28:39 -2738.367105  -2.89  -2.64    +24.4754
iter: 175 17:29:40 -2738.352632  -3.40  -2.97    +24.3690
iter: 176 17:30:41 -2738.547196c -3.60  -3.21    +24.3402
iter: 177 17:31:42 -2738.725781  -2.93  -3.00    +24.4115
iter: 178 17:32:43 -2738.690606c -3.42  -2.88    +24.4937
iter: 179 17:33:44 -2738.825770c -3.72  -2.89    +24.5477
iter: 180 17:34:45 -2738.935621c -4.26  -2.75    +24.5410
iter: 181 17:35:46 -2739.289713  -3.72  -2.69    +24.6074
iter: 182 17:36:47 -2738.627807  -3.34  -2.56    +24.4954
iter: 183 17:37:48 -2738.643078  -4.07  -2.94    +24.5418
iter: 184 17:38:49 -2738.777370c -3.75  -2.87    +24.5803
iter: 185 17:39:50 -2738.797851c -4.37  -2.71    +24.5600
iter: 186 17:40:50 -2739.102883  -3.12  -2.73    +24.6086
iter: 187 17:41:51 -2738.642933  -2.93  -2.53    +24.5468
iter: 188 17:42:52 -2738.790503  -3.47  -2.95    +24.5550
iter: 189 17:43:53 -2738.872102c -4.09  -2.74    +24.5511
iter: 190 17:44:54 -2739.059600c -3.70  -2.69    +24.5661
iter: 191 17:45:55 -2739.046745c -4.34  -2.58    +24.5642
iter: 192 17:46:56 -2738.901900c -3.54  -2.59    +24.5856
iter: 193 17:47:57 -2739.012759c -3.42  -2.61    +24.5542
iter: 194 17:48:58 -2738.338259  -3.32  -2.54    +24.5378
iter: 195 17:49:59 -2738.483534  -3.81  -2.70    +24.4977
iter: 196 17:51:00 -2738.763178  -3.74  -2.68    +24.4097
iter: 197 17:52:01 -2738.913555  -3.95  -2.60    +24.4439
iter: 198 17:53:02 -2738.640943c -2.76  -2.54    +24.4399
iter: 199 17:54:03 -2738.911671c -2.80  -2.48    +24.4251
iter: 200 17:55:04 -2738.273444  -3.04  -2.45    +24.2621
iter: 201 17:56:05 -2738.260228  -3.61  -2.75    +24.2212
iter: 202 17:57:06 -2738.448579c -3.21  -3.08    +24.3407
iter: 203 17:58:07 -2738.557859  -3.08  -3.27    +24.4828
iter: 204 17:59:08 -2738.642820c -3.32  -3.24    +24.5350
iter: 205 18:00:09 -2738.627482c -3.77  -3.09    +24.5274
iter: 206 18:01:10 -2738.655149c -3.81  -3.16    +24.5409
iter: 207 18:02:11 -2738.608753c -4.20  -3.12    +24.5479
iter: 208 18:03:12 -2738.547662c -3.82  -3.16    +24.5522
iter: 209 18:04:13 -2738.913094  -3.57  -3.33    +24.5494
iter: 210 18:05:14 -2738.607069  -4.33  -2.58    +24.5274
iter: 211 18:06:14 -2738.592240  -4.05  -2.92    +24.5393
iter: 212 18:07:15 -2738.666496c -4.06  -3.07    +24.5447
iter: 213 18:08:16 -2738.588267c -4.31  -2.87    +24.5269
iter: 214 18:09:17 -2738.569018c -4.33  -3.20    +24.5384
iter: 215 18:10:18 -2738.589201c -4.03  -3.42    +24.5431
iter: 216 18:11:19 -2738.560506c -4.73  -3.23    +24.5453
iter: 217 18:12:20 -2738.569966c -4.69  -3.63    +24.5486
iter: 218 18:13:21 -2738.578414c -4.91  -3.46    +24.5533
iter: 219 18:14:22 -2738.566234c -5.37  -3.32    +24.5535
iter: 220 18:15:23 -2738.562743c -5.12  -3.67    +24.5620
iter: 221 18:16:24 -2738.562650c -5.40  -3.68    +24.5628
iter: 222 18:17:25 -2738.564018c -5.54  -3.83    +24.5631
iter: 223 18:18:26 -2738.562617c -5.94  -3.79    +24.5663
iter: 224 18:19:27 -2738.561397c -5.99  -3.94    +24.5669
iter: 225 18:20:28 -2738.562871c -6.06  -4.06c   +24.5687
iter: 226 18:21:29 -2738.561891c -6.15  -4.05c   +24.5673
iter: 227 18:22:29 -2738.561795c -6.49  -4.42c   +24.5684
iter: 228 18:23:30 -2738.562203c -6.01  -4.44c   +24.5648
iter: 229 18:24:31 -2738.562544c -5.66  -4.37c   +24.5637
iter: 230 18:25:32 -2738.563130c -5.74  -4.19c   +24.5637
iter: 231 18:26:33 -2738.565575c -4.98  -4.15c   +24.5639
iter: 232 18:27:34 -2738.562027c -4.70  -3.77    +24.5649
iter: 233 18:28:35 -2738.561634c -4.81  -3.97    +24.5655
iter: 234 18:29:36 -2738.559197c -5.61  -3.63    +24.5642
iter: 235 18:30:37 -2738.559376c -6.19  -3.83    +24.5649
iter: 236 18:31:38 -2738.558383c -6.21  -3.76    +24.5658
iter: 237 18:32:39 -2738.559086c -5.56  -3.79    +24.5629
iter: 238 18:33:40 -2738.546300c -4.35  -4.08c   +24.5677
iter: 239 18:34:41 -2738.567229c -4.12  -3.80    +24.5628
iter: 240 18:35:42 -2738.597595c -3.54  -3.55    +24.5669
iter: 241 18:36:44 -2738.621427c -3.74  -3.12    +24.5661
iter: 242 18:37:45 -2738.626263c -4.49  -2.97    +24.5618
iter: 243 18:38:46 -2738.677436c -4.56  -2.96    +24.5590
iter: 244 18:39:48 -2738.622253c -4.70  -2.86    +24.5560
iter: 245 18:40:49 -2738.586445c -3.73  -3.00    +24.5555
iter: 246 18:41:51 -2738.664113c -3.50  -3.29    +24.5520
iter: 247 18:42:52 -2738.772922c -4.34  -2.86    +24.5505
iter: 248 18:43:53 -2738.673213c -4.44  -2.76    +24.5388
iter: 249 18:44:55 -2738.645416c -4.24  -2.82    +24.5137
iter: 250 18:45:56 -2738.729883c -4.34  -2.83    +24.5053
iter: 251 18:46:57 -2738.474555c -3.40  -2.74    +24.5050
iter: 252 18:47:59 -2738.495593c -3.88  -2.95    +24.4934
iter: 253 18:49:00 -2738.486113c -4.34  -2.95    +24.4728
iter: 254 18:50:01 -2738.395681c -3.91  -2.92    +24.4350
iter: 255 18:51:03 -2738.388266c -3.63  -3.22    +24.4594
iter: 256 18:52:04 -2738.501585c -3.49  -2.99    +24.4241
iter: 257 18:53:06 -2738.566216c -3.14  -3.32    +24.5124
iter: 258 18:54:07 -2738.599158c -3.65  -3.19    +24.5075
iter: 259 18:55:08 -2738.667758c -3.58  -3.18    +24.5226
iter: 260 18:56:10 -2738.625750c -4.42  -2.99    +24.5128
iter: 261 18:57:11 -2738.765590c -3.02  -3.07    +24.5592
iter: 262 18:58:12 -2738.614560c -2.95  -2.78    +24.5758
iter: 263 18:59:14 -2738.614180c -3.85  -2.73    +24.5546
iter: 264 19:00:15 -2738.637401c -4.30  -2.84    +24.5375
iter: 265 19:01:16 -2738.718591c -3.93  -2.82    +24.5241
iter: 266 19:02:18 -2738.596241c -3.20  -2.75    +24.5252
iter: 267 19:03:19 -2738.456818c -3.83  -2.83    +24.5155
iter: 268 19:04:21 -2738.444767c -4.10  -2.93    +24.5209
iter: 269 19:05:22 -2738.494041c -3.96  -2.94    +24.4742
iter: 270 19:06:23 -2738.627373c -2.93  -2.95    +24.4819
iter: 271 19:07:25 -2738.490861c -3.42  -2.83    +24.4633
iter: 272 19:08:26 -2738.595103c -3.11  -3.19    +24.5050
iter: 273 19:09:27 -2738.887137  -3.08  -2.99    +24.5515
iter: 274 19:10:29 -2738.597535  -3.76  -2.67    +24.5059
iter: 275 19:11:30 -2738.619129c -4.18  -3.02    +24.5058
iter: 276 19:12:31 -2738.659382c -3.54  -3.05    +24.5375
iter: 277 19:13:33 -2738.646487c -3.55  -2.98    +24.5571
iter: 278 19:14:34 -2738.695888c -3.75  -2.95    +24.5432
iter: 279 19:15:35 -2738.549680c -3.79  -2.88    +24.5425
iter: 280 19:16:37 -2738.586991c -4.23  -3.00    +24.5309
iter: 281 19:17:38 -2738.502416c -3.85  -2.95    +24.5173
iter: 282 19:18:39 -2738.501190c -4.44  -3.04    +24.4750
iter: 283 19:19:41 -2738.513699c -3.86  -3.16    +24.4569
iter: 284 19:20:42 -2738.531141c -4.36  -3.37    +24.4663
iter: 285 19:21:44 -2738.530300c -4.50  -3.20    +24.4786
iter: 286 19:22:45 -2738.546337c -4.05  -3.40    +24.4993
iter: 287 19:23:46 -2738.558428c -3.85  -3.57    +24.5269
iter: 288 19:24:48 -2738.556715c -4.75  -3.65    +24.5235
iter: 289 19:25:49 -2738.561098c -4.71  -3.74    +24.5356
iter: 290 19:26:50 -2738.562944c -4.98  -3.68    +24.5451
iter: 291 19:27:52 -2738.568974c -5.03  -3.63    +24.5483
iter: 292 19:28:53 -2738.559563c -5.52  -3.53    +24.5498
iter: 293 19:29:54 -2738.565802c -5.47  -4.04c   +24.5506
iter: 294 19:30:56 -2738.563807c -5.58  -3.74    +24.5525
iter: 295 19:31:57 -2738.562955c -5.59  -3.79    +24.5558
iter: 296 19:32:58 -2738.562539c -6.64  -3.74    +24.5567
iter: 297 19:34:00 -2738.563647c -5.50  -3.79    +24.5583
iter: 298 19:35:01 -2738.562985c -5.91  -4.07c   +24.5582
iter: 299 19:36:03 -2738.562372c -6.74  -3.86    +24.5597
iter: 300 19:37:04 -2738.561925c -6.61  -4.06c   +24.5594
iter: 301 19:38:05 -2738.561882c -6.47  -4.36c   +24.5607
iter: 302 19:39:07 -2738.562364c -5.85  -4.25c   +24.5612
iter: 303 19:40:08 -2738.562680c -6.24  -4.30c   +24.5603
iter: 304 19:41:09 -2738.563090c -5.83  -4.34c   +24.5614
iter: 305 19:42:11 -2738.563514c -5.35  -4.48c   +24.5635
iter: 306 19:43:12 -2738.563702c -5.81  -4.26c   +24.5637
iter: 307 19:44:13 -2738.563369c -6.19  -4.23c   +24.5640
iter: 308 19:45:15 -2738.563135c -6.78  -4.23c   +24.5640
iter: 309 19:46:16 -2738.564402c -6.15  -4.26c   +24.5640
iter: 310 19:47:17 -2738.562707c -5.86  -3.92    +24.5641
iter: 311 19:48:19 -2738.562626c -6.35  -4.10c   +24.5635
iter: 312 19:49:20 -2738.562500c -6.13  -4.15c   +24.5636
iter: 313 19:50:21 -2738.563325c -5.97  -4.27c   +24.5630
iter: 314 19:51:23 -2738.563424c -6.56  -4.58c   +24.5633
iter: 315 19:52:24 -2738.563475c -7.05  -4.31c   +24.5637
iter: 316 19:53:25 -2738.563492c -6.77  -4.70c   +24.5639
iter: 317 19:54:27 -2738.563485c -6.60  -4.74c   +24.5635
iter: 318 19:55:28 -2738.563128c -7.19  -4.55c   +24.5636
iter: 319 19:56:29 -2738.563087c -7.34  -4.69c   +24.5633
iter: 320 19:57:30 -2738.563646c -6.64  -4.69c   +24.5633
iter: 321 19:58:32 -2738.563185c -7.29  -4.70c   +24.5634
iter: 322 19:59:33 -2738.563260c -7.96c -4.81c   +24.5635

Converged after 322 iterations.

Dipole moment: (-2.533288, -4.386625, 0.023268) |e|*Ang

Total magnetic moment: (0.000000, 0.000000, 24.563454)
Local magnetic moments:
   0 Ni ( 0.000000,  0.000000,  0.726258)
   1 Ni ( 0.000000,  0.000000,  0.727114)
   2 Ni ( 0.000000,  0.000000,  0.726810)
   3 Ni ( 0.000000,  0.000000,  0.749733)
   4 Ni ( 0.000000,  0.000000,  0.727182)
   5 Ni ( 0.000000,  0.000000,  0.727140)
   6 Ni ( 0.000000,  0.000000,  0.711943)
   7 Ni ( 0.000000,  0.000000,  0.753704)
   8 Ni ( 0.000000,  0.000000,  0.725192)
   9 Ni ( 0.000000,  0.000000,  0.720075)
  10 Ni ( 0.000000,  0.000000,  0.712199)
  11 Ni ( 0.000000,  0.000000,  0.736015)
  12 Ni ( 0.000000,  0.000000,  0.727023)
  13 Ni ( 0.000000,  0.000000,  0.711536)
  14 Ni ( 0.000000,  0.000000,  0.727512)
  15 Ni ( 0.000000,  0.000000,  0.750788)
  16 Ni ( 0.000000,  0.000000,  0.722239)
  17 Ni ( 0.000000,  0.000000,  0.727142)
  18 Ni ( 0.000000,  0.000000,  0.726778)
  19 Ni ( 0.000000,  0.000000,  0.817997)
  20 Ni ( 0.000000,  0.000000,  0.727198)
  21 Ni ( 0.000000,  0.000000,  0.709436)
  22 Ni ( 0.000000,  0.000000,  0.732312)
  23 Ni ( 0.000000,  0.000000,  0.753712)
  24 Ni ( 0.000000,  0.000000,  0.732282)
  25 Ni ( 0.000000,  0.000000,  0.709415)
  26 Ni ( 0.000000,  0.000000,  0.732332)
  27 Ni ( 0.000000,  0.000000,  0.739461)
  28 Ni ( 0.000000,  0.000000,  0.727044)
  29 Ni ( 0.000000,  0.000000,  0.720083)
  30 Ni ( 0.000000,  0.000000,  0.712204)
  31 Ni ( 0.000000,  0.000000,  0.750905)
  32 Ni ( 0.000000,  0.000000,  0.726314)
  33 Ni ( 0.000000,  0.000000,  0.718316)
  34 Ni ( 0.000000,  0.000000,  0.731691)
  35 Ni ( 0.000000,  0.000000,  0.749811)
  36 O  ( 0.000000,  0.000000,  0.064333)
  37 H  ( 0.000000,  0.000000,  0.003911)

Energy contributions relative to reference atoms: (reference = -1491301.286566)

Kinetic:       +944.606030
Potential:     -821.762584
External:        +0.000000
XC:            -2864.344697
Entropy (-ST):   -2.088057
Local:           +3.982020
--------------------------
Free energy:   -2739.607288
Extrapolated:  -2738.563260

Spin contamination: 2.187416 electrons
Showing only first 2 kpts
                      Up                     Down
 Kpt  Band  Eigenvalues  Occupancy  Eigenvalues  Occupancy
  0   289     -5.93726    0.99921     -5.05218    0.15318
  0   290     -5.93217    0.99917     -5.04296    0.14161
  0   291     -5.92877    0.99914     -5.03418    0.13127
  0   292     -5.92476    0.99910     -5.01360    0.10953

  1   289     -6.01599    0.99964     -5.12293    0.26848
  1   290     -6.00468    0.99960     -5.11962    0.26204
  1   291     -6.00047    0.99958     -5.11736    0.25770
  1   292     -5.98596    0.99951     -5.08502    0.20078


Fermi level: -5.22316

No gap

Forces in eV/Ang:
  0 Ni    0.00196    0.00552    0.09149
  1 Ni   -0.00355   -0.00934   -0.11213
  2 Ni    0.07898    0.04514    0.03726
  3 Ni   -0.10226   -0.15738   -0.03311
  4 Ni    0.00402    0.00441    0.09231
  5 Ni   -0.01137    0.00656   -0.11227
  6 Ni    0.01471   -0.00844    0.03063
  7 Ni   -0.18167   -0.01173   -0.03428
  8 Ni   -0.00163    0.00097    0.09485
  9 Ni   -0.00605   -0.00131   -0.11052
 10 Ni    0.00356    0.01048    0.02965
 11 Ni    0.00128   -0.00105   -0.03855
 12 Ni   -0.00630    0.00449    0.09207
 13 Ni    0.00829   -0.00460   -0.09173
 14 Ni   -0.07211    0.04219    0.03612
 15 Ni    0.10310   -0.15567   -0.03473
 16 Ni   -0.00316    0.00190    0.09265
 17 Ni    0.00647    0.00783   -0.11207
 18 Ni    0.00101   -0.09069    0.03814
 19 Ni   -0.00090    0.00095    1.29243
 20 Ni   -0.00173   -0.00562    0.09230
 21 Ni   -0.00122    0.01288   -0.09046
 22 Ni   -0.02588   -0.01974    0.07314
 23 Ni   -0.08034    0.16324   -0.03441
 24 Ni   -0.00208    0.00126    0.07403
 25 Ni   -0.01164   -0.00512   -0.09054
 26 Ni    0.00351    0.03244    0.07279
 27 Ni    0.00357   -0.00248   -0.03451
 28 Ni   -0.00698    0.00333    0.09208
 29 Ni   -0.00180    0.00593   -0.11061
 30 Ni   -0.00800   -0.00854    0.03003
 31 Ni    0.18585   -0.01119   -0.03477
 32 Ni   -0.00375   -0.00440    0.09150
 33 Ni    0.00151   -0.00078   -0.11078
 34 Ni    0.03137   -0.01899    0.07310
 35 Ni    0.08477    0.16669   -0.03373
 36 O    -0.00098    0.00108   -1.28405
 37 H     0.00056   -0.00062   -0.01747

      Step     Time          Energy         fmax
BFGS:    0 20:00:11    -2738.563260        1.2924
System changes: positions 

Initializing position-dependent things.

Density initialized from wave functions
                                          
                                          
                                          
                                          
                                          
                                          
                  H                       
                  O                       
          Ni    Ni    Ni                  
            Ni    Ni    Ni                
           Ni    Ni    Ni                 
             Ni    NNi   NNi              
              Ni     Ni    Ni             
             Ni     Ni    Ni              
               Ni     Ni    Ni            
                 Ni    Ni     Ni          
          Ni    Ni    Ni                  
            Ni    Ni    Ni                
              Ni    Ni    Ni              
                                          
                                          
                                          
                                          

Positions:
   0 Ni    -0.000000    0.000000   10.000000    ( 0.0000,  0.0000,  0.6703)
   1 Ni     1.261746    0.728469   12.060422    ( 0.0000,  0.0000,  0.6693)
   2 Ni     0.001128    1.457524   14.115632    ( 0.0000,  0.0000,  0.6697)
   3 Ni    -0.001461   -0.002248   16.158635    ( 0.0000,  0.0000,  0.6722)
   4 Ni    -1.261746    2.185408   10.000000    ( 0.0000,  0.0000,  0.6703)
   5 Ni    -0.000000    2.913877   12.060422    ( 0.0000,  0.0000,  0.6693)
   6 Ni    -1.261542    3.642222   14.115485    ( 0.0000,  0.0000,  0.6697)
   7 Ni    -1.264317    2.185199   16.158670    ( 0.0000,  0.0000,  0.6722)
   8 Ni    -2.523491    4.370815   10.000000    ( 0.0000,  0.0000,  0.6703)
   9 Ni    -1.261746    5.099284   12.060422    ( 0.0000,  0.0000,  0.6693)
  10 Ni    -2.523492    5.827933   14.115523    ( 0.0000,  0.0000,  0.6697)
  11 Ni    -2.523497    4.370841   16.158609    ( 0.0000,  0.0000,  0.6722)
  12 Ni     2.523491    0.000000   10.000000    ( 0.0000,  0.0000,  0.6703)
  13 Ni     3.785237    0.728469   12.060422    ( 0.0000,  0.0000,  0.6693)
  14 Ni     2.522418    1.457516   14.115583    ( 0.0000,  0.0000,  0.6697)
  15 Ni     2.524917   -0.002224   16.158664    ( 0.0000,  0.0000,  0.6722)
  16 Ni     1.261746    2.185408   10.000000    ( 0.0000,  0.0000,  0.6703)
  17 Ni     2.523491    2.913877   12.060422    ( 0.0000,  0.0000,  0.6693)
  18 Ni     1.261766    3.641047   14.115592    ( 0.0000,  0.0000,  0.6697)
  19 Ni     1.261709    2.185380   16.177623    ( 0.0000,  0.0000,  0.6722)
  20 Ni    -0.000000    4.370815   10.000000    ( 0.0000,  0.0000,  0.6703)
  21 Ni     1.261746    5.099284   12.060422    ( 0.0000,  0.0000,  0.6693)
  22 Ni    -0.000370    5.827478   14.116092    ( 0.0000,  0.0000,  0.6697)
  23 Ni    -0.001148    4.373147   16.158682    ( 0.0000,  0.0000,  0.6722)
  24 Ni     5.046982    0.000000   10.000000    ( 0.0000,  0.0000,  0.6703)
  25 Ni     6.308728    0.728469   12.060422    ( 0.0000,  0.0000,  0.6693)
  26 Ni     5.047075    1.457377   14.116107    ( 0.0000,  0.0000,  0.6697)
  27 Ni     5.047081   -0.000035   16.158667    ( 0.0000,  0.0000,  0.6722)
  28 Ni     3.785237    2.185408   10.000000    ( 0.0000,  0.0000,  0.6703)
  29 Ni     5.046982    2.913877   12.060422    ( 0.0000,  0.0000,  0.6693)
  30 Ni     3.785123    3.642273   14.115497    ( 0.0000,  0.0000,  0.6697)
  31 Ni     3.787892    2.185248   16.158617    ( 0.0000,  0.0000,  0.6722)
  32 Ni     2.523491    4.370815   10.000000    ( 0.0000,  0.0000,  0.6703)
  33 Ni     3.785237    5.099284   12.060422    ( 0.0000,  0.0000,  0.6693)
  34 Ni     2.523991    5.827512   14.116144    ( 0.0000,  0.0000,  0.6697)
  35 Ni     2.524726    4.373237   16.158678    ( 0.0000,  0.0000,  0.6722)
  36 O      1.261708    2.185382   18.140817    ( 0.0000,  0.0000,  0.0000)
  37 H      1.261730    2.185358   19.118910    ( 0.0000,  0.0000,  0.0000)

Unit cell:
           periodic     x           y           z      points  spacing
  1. axis:    yes    7.570474    0.000000    0.000000    36     0.1821
  2. axis:    yes   -3.785237    6.556223    0.000000    36     0.1821
  3. axis:    no     0.000000    0.000000   26.181266   144     0.1818

  Lengths:   7.570474   7.570474  26.181266
  Angles:   90.000000  90.000000 120.000000

Effective grid spacing dv^(1/3) = 0.1910

     iter     time        total  log10-change:  magmom
                         energy  eigst   dens
iter:   1 20:03:17 -2739.043266  -2.72           +24.5623
iter:   2 20:04:20 -2755.234134  -1.97  -2.58    +24.5623
iter:   3 20:05:23 -2739.178993  -2.48  -1.83    +24.1611
iter:   4 20:06:26 -2738.756791  -2.85  -2.59    +24.5853
iter:   5 20:07:29 -2738.568549  -3.20  -2.83    +24.5929
iter:   6 20:08:32 -2738.578433c -3.87  -3.18    +24.5620
iter:   7 20:09:35 -2738.621716c -4.37  -3.22    +24.5521
iter:   8 20:10:38 -2738.670141c -4.08  -3.02    +24.5444
iter:   9 20:11:41 -2738.620258c -4.58  -2.86    +24.5468
iter:  10 20:12:44 -2738.588253c -3.98  -3.01    +24.5500
iter:  11 20:13:47 -2738.592160c -4.33  -3.22    +24.5460
iter:  12 20:14:50 -2738.574851c -4.82  -3.12    +24.5449
iter:  13 20:15:52 -2738.566753c -5.12  -3.32    +24.5419
iter:  14 20:16:55 -2738.559707c -4.98  -4.05c   +24.5459
iter:  15 20:17:58 -2738.504402c -3.44  -3.63    +24.5411
iter:  16 20:19:01 -2738.659630c -2.87  -3.12    +24.5703
iter:  17 20:20:04 -2738.539942c -3.13  -3.06    +24.5165
iter:  18 20:21:07 -2738.532886c -3.16  -3.19    +24.4909
iter:  19 20:22:10 -2738.510570c -3.41  -2.85    +24.4637
iter:  20 20:23:13 -2738.488388c -3.73  -2.76    +24.5023
iter:  21 20:24:17 -2738.581720c -3.29  -3.05    +24.4232
iter:  22 20:25:20 -2738.479114c -4.49  -2.66    +24.4275
iter:  23 20:26:23 -2738.427157c -4.67  -2.75    +24.4145
iter:  24 20:27:26 -2738.489987c -4.35  -2.76    +24.4495
iter:  25 20:28:30 -2738.509402c -4.53  -2.78    +24.4241
iter:  26 20:29:33 -2738.482888c -4.56  -2.76    +24.4254
iter:  27 20:30:36 -2738.369198c -3.46  -2.78    +24.4159
iter:  28 20:31:39 -2738.273984c -4.04  -3.03    +24.4237
iter:  29 20:32:42 -2738.405242c -3.66  -3.28    +24.3646
iter:  30 20:33:45 -2738.547840c -3.42  -3.64    +24.3694
iter:  31 20:34:48 -2738.684798c -3.13  -3.45    +24.4472
iter:  32 20:35:51 -2738.851515  -2.96  -3.09    +24.5609
iter:  33 20:36:54 -2738.929111c -3.46  -2.81    +24.5675
iter:  34 20:37:57 -2738.817628c -4.15  -2.73    +24.5671
iter:  35 20:39:00 -2738.897875c -4.17  -2.85    +24.5748
iter:  36 20:40:03 -2738.897184c -4.90  -2.75    +24.5743
iter:  37 20:41:06 -2739.025190c -3.59  -2.74    +24.5838
iter:  38 20:42:08 -2738.916781c -4.23  -2.59    +24.5819
iter:  39 20:43:10 -2738.793493c -3.96  -2.66    +24.6154
iter:  40 20:44:12 -2743.320427  -2.50  -2.73    +24.6101
iter:  41 20:45:14 -2738.523662  -2.98  -2.05    +24.5099
iter:  42 20:46:16 -2738.509969  -3.83  -3.00    +24.7781
iter:  43 20:47:19 -2738.573704c -3.77  -3.06    +24.4773
iter:  44 20:48:21 -2738.601380c -3.26  -3.16    +24.3813
iter:  45 20:49:23 -2738.645263c -4.18  -3.20    +24.4572
iter:  46 20:50:25 -2738.642987c -4.29  -3.02    +24.5071
iter:  47 20:51:27 -2738.641345c -4.05  -3.02    +24.5260
iter:  48 20:52:29 -2738.700339c -3.99  -2.98    +24.5282
iter:  49 20:53:31 -2738.681067c -4.02  -2.84    +24.5215
iter:  50 20:54:34 -2738.566081c -3.81  -2.91    +24.5313
iter:  51 20:55:36 -2738.635756c -4.32  -3.14    +24.5262
iter:  52 20:56:38 -2738.564330c -4.62  -3.00    +24.5146
iter:  53 20:57:40 -2738.574580c -4.73  -3.24    +24.5106
iter:  54 20:58:43 -2738.572159c -4.44  -3.21    +24.5029
iter:  55 20:59:45 -2738.569228c -5.25  -3.32    +24.5029
iter:  56 21:00:47 -2738.577707c -4.91  -3.37    +24.5064
iter:  57 21:01:50 -2738.587638c -4.24  -3.46    +24.5146
iter:  58 21:02:52 -2738.593724c -4.57  -3.70    +24.5183
iter:  59 21:03:54 -2738.596783c -4.94  -3.91    +24.5209
iter:  60 21:04:56 -2738.597950c -5.11  -3.67    +24.5352
iter:  61 21:05:59 -2738.599811c -5.07  -3.75    +24.5438
iter:  62 21:07:01 -2738.600200c -5.38  -3.69    +24.5485
iter:  63 21:08:03 -2738.600168c -5.49  -3.73    +24.5514
iter:  64 21:09:06 -2738.609070c -5.08  -3.79    +24.5519
iter:  65 21:10:08 -2738.606521c -4.95  -3.60    +24.5529
iter:  66 21:11:10 -2738.603074c -5.43  -3.51    +24.5572
iter:  67 21:12:12 -2738.601867c -5.64  -3.93    +24.5584
iter:  68 21:13:14 -2738.602042c -5.91  -3.83    +24.5595
iter:  69 21:14:17 -2738.601719c -5.49  -3.95    +24.5601
iter:  70 21:15:19 -2738.600458c -5.40  -3.93    +24.5597
iter:  71 21:16:21 -2738.601557c -5.97  -4.25c   +24.5598
iter:  72 21:17:24 -2738.601043c -6.34  -4.03c   +24.5601
iter:  73 21:18:26 -2738.602390c -5.43  -4.07c   +24.5606
iter:  74 21:19:28 -2738.601693c -6.24  -3.96    +24.5600
iter:  75 21:20:30 -2738.601937c -6.42  -3.95    +24.5596
iter:  76 21:21:33 -2738.602733c -5.75  -3.89    +24.5598
iter:  77 21:22:35 -2738.601332c -5.33  -3.70    +24.5591
iter:  78 21:23:37 -2738.607104c -4.66  -4.05c   +24.5609
iter:  79 21:24:39 -2738.598146c -3.98  -3.45    +24.5564
iter:  80 21:25:42 -2738.599209c -5.04  -3.75    +24.5538
iter:  81 21:26:44 -2738.599799c -5.70  -3.81    +24.5537
iter:  82 21:27:46 -2738.600437c -5.89  -4.01c   +24.5548
iter:  83 21:28:48 -2738.600588c -6.06  -3.99    +24.5561
iter:  84 21:29:51 -2738.601194c -6.11  -4.04c   +24.5570
iter:  85 21:30:53 -2738.601169c -6.78  -4.06c   +24.5571
iter:  86 21:31:55 -2738.599706c -5.94  -4.12c   +24.5572
iter:  87 21:32:57 -2738.601070c -6.21  -4.17c   +24.5573
iter:  88 21:34:00 -2738.600002c -5.82  -4.01c   +24.5553
iter:  89 21:35:02 -2738.600003c -5.74  -4.64c   +24.5570
iter:  90 21:36:04 -2738.600217c -5.43  -4.47c   +24.5598
iter:  91 21:37:06 -2738.600444c -6.52  -4.10c   +24.5587
iter:  92 21:38:09 -2738.600655c -6.04  -4.12c   +24.5596
iter:  93 21:39:11 -2738.600679c -6.17  -3.98    +24.5585
iter:  94 21:40:13 -2738.601027c -5.89  -4.16c   +24.5597
iter:  95 21:41:15 -2738.600742c -6.34  -3.91    +24.5590
iter:  96 21:42:18 -2738.600675c -5.62  -4.11c   +24.5582
iter:  97 21:43:20 -2738.600505c -5.59  -4.67c   +24.5575
iter:  98 21:44:22 -2738.600609c -6.73  -4.44c   +24.5578
iter:  99 21:45:24 -2738.600505c -7.19  -4.94c   +24.5577
iter: 100 21:46:26 -2738.600361c -7.11  -4.62c   +24.5579
iter: 101 21:47:29 -2738.600560c -6.84  -4.51c   +24.5583
iter: 102 21:48:31 -2738.600432c -7.73c -4.87c   +24.5581

Converged after 102 iterations.

Dipole moment: (-2.450704, -4.283369, 0.051812) |e|*Ang

Total magnetic moment: (0.000000, 0.000000, 24.558118)
Local magnetic moments:
   0 Ni ( 0.000000,  0.000000,  0.716722)
   1 Ni ( 0.000000,  0.000000,  0.723170)
   2 Ni ( 0.000000,  0.000000,  0.730357)
   3 Ni ( 0.000000,  0.000000,  0.758736)
   4 Ni ( 0.000000,  0.000000,  0.717670)
   5 Ni ( 0.000000,  0.000000,  0.723226)
   6 Ni ( 0.000000,  0.000000,  0.716537)
   7 Ni ( 0.000000,  0.000000,  0.761632)
   8 Ni ( 0.000000,  0.000000,  0.715911)
   9 Ni ( 0.000000,  0.000000,  0.716076)
  10 Ni ( 0.000000,  0.000000,  0.717019)
  11 Ni ( 0.000000,  0.000000,  0.743382)
  12 Ni ( 0.000000,  0.000000,  0.717858)
  13 Ni ( 0.000000,  0.000000,  0.707674)
  14 Ni ( 0.000000,  0.000000,  0.731094)
  15 Ni ( 0.000000,  0.000000,  0.759895)
  16 Ni ( 0.000000,  0.000000,  0.712328)
  17 Ni ( 0.000000,  0.000000,  0.723174)
  18 Ni ( 0.000000,  0.000000,  0.730321)
  19 Ni ( 0.000000,  0.000000,  0.818086)
  20 Ni ( 0.000000,  0.000000,  0.717679)
  21 Ni ( 0.000000,  0.000000,  0.705407)
  22 Ni ( 0.000000,  0.000000,  0.737462)
  23 Ni ( 0.000000,  0.000000,  0.761649)
  24 Ni ( 0.000000,  0.000000,  0.724552)
  25 Ni ( 0.000000,  0.000000,  0.705408)
  26 Ni ( 0.000000,  0.000000,  0.737466)
  27 Ni ( 0.000000,  0.000000,  0.747999)
  28 Ni ( 0.000000,  0.000000,  0.717851)
  29 Ni ( 0.000000,  0.000000,  0.716081)
  30 Ni ( 0.000000,  0.000000,  0.717005)
  31 Ni ( 0.000000,  0.000000,  0.759905)
  32 Ni ( 0.000000,  0.000000,  0.716724)
  33 Ni ( 0.000000,  0.000000,  0.714206)
  34 Ni ( 0.000000,  0.000000,  0.737112)
  35 Ni ( 0.000000,  0.000000,  0.758770)
  36 O  ( 0.000000,  0.000000,  0.066446)
  37 H  ( 0.000000,  0.000000,  0.004264)

Energy contributions relative to reference atoms: (reference = -1491301.286566)

Kinetic:       +943.954571
Potential:     -821.336992
External:        +0.000000
XC:            -2864.156569
Entropy (-ST):   -2.089587
Local:           +3.983351
--------------------------
Free energy:   -2739.645226
Extrapolated:  -2738.600432

Spin contamination: 2.184659 electrons
Showing only first 2 kpts
                      Up                     Down
 Kpt  Band  Eigenvalues  Occupancy  Eigenvalues  Occupancy
  0   289     -5.90349    0.99921     -5.01904    0.15359
  0   290     -5.89828    0.99916     -5.00954    0.14165
  0   291     -5.89470    0.99913     -5.00073    0.13127
  0   292     -5.89146    0.99910     -4.97919    0.10859

  1   289     -5.98177    0.99964     -5.08958    0.26868
  1   290     -5.97048    0.99959     -5.08938    0.26829
  1   291     -5.96786    0.99958     -5.08391    0.25769
  1   292     -5.95244    0.99951     -5.05312    0.20328


Fermi level: -5.18971

No gap

Forces in eV/Ang:
  0 Ni    0.00077    0.00488    0.09418
  1 Ni   -0.00256   -0.01028   -0.10728
  2 Ni    0.08536    0.04773    0.06434
  3 Ni   -0.09334   -0.14694   -0.03458
  4 Ni    0.00168    0.00245    0.09527
  5 Ni   -0.01156    0.00669   -0.10702
  6 Ni    0.01361   -0.00782    0.02474
  7 Ni   -0.16950   -0.01088   -0.03450
  8 Ni   -0.00215    0.00130    0.09754
  9 Ni   -0.00529    0.00009   -0.10520
 10 Ni    0.00394    0.01078    0.02485
 11 Ni    0.00042   -0.00057   -0.03386
 12 Ni   -0.00399    0.00511    0.09497
 13 Ni    0.00845   -0.00473   -0.08330
 14 Ni   -0.07743    0.04515    0.06452
 15 Ni    0.09499   -0.14364   -0.03514
 16 Ni   -0.00151    0.00093    0.09506
 17 Ni    0.00773    0.00744   -0.10721
 18 Ni    0.00182   -0.09757    0.06504
 19 Ni    0.00098   -0.00020    1.05850
 20 Ni   -0.00121   -0.00259    0.09526
 21 Ni   -0.00103    0.01384   -0.08151
 22 Ni   -0.01999   -0.01473    0.06017
 23 Ni   -0.07502    0.15223   -0.03464
 24 Ni   -0.00329    0.00194    0.07947
 25 Ni   -0.01235   -0.00580   -0.08159
 26 Ni    0.00221    0.02480    0.05993
 27 Ni    0.00207   -0.00155   -0.02616
 28 Ni   -0.00638    0.00098    0.09498
 29 Ni   -0.00262    0.00459   -0.10524
 30 Ni   -0.00794   -0.00900    0.02517
 31 Ni    0.17142   -0.01020   -0.03505
 32 Ni   -0.00381   -0.00302    0.09419
 33 Ni    0.00094   -0.00043   -0.10534
 34 Ni    0.02484   -0.01506    0.05973
 35 Ni    0.08025    0.15376   -0.03505
 36 O    -0.00065    0.00065   -0.12187
 37 H     0.00069   -0.00072   -0.91152

BFGS:    1 21:49:08    -2738.600432        1.0585
System changes: positions 

Initializing position-dependent things.

Density initialized from wave functions
                                          
                                          
                                          
                                          
                                          
                                          
                  H                       
                  O                       
          Ni    Ni    Ni                  
            Ni    Ni    Ni                
           Ni    Ni    Ni                 
             Ni    NNi   NNi              
              Ni     Ni    Ni             
             Ni     Ni    Ni              
               Ni     Ni    Ni            
                 Ni    Ni     Ni          
          Ni    Ni    Ni                  
            Ni    Ni    Ni                
              Ni    Ni    Ni              
                                          
                                          
                                          
                                          

Positions:
   0 Ni    -0.000000    0.000000   10.000000    ( 0.0000,  0.0000,  0.6703)
   1 Ni     1.261746    0.728469   12.060422    ( 0.0000,  0.0000,  0.6693)
   2 Ni     0.005216    1.459830   14.118248    ( 0.0000,  0.0000,  0.6697)
   3 Ni    -0.006262   -0.009732   16.156956    ( 0.0000,  0.0000,  0.6722)
   4 Ni    -1.261746    2.185408   10.000000    ( 0.0000,  0.0000,  0.6703)
   5 Ni    -0.000000    2.913877   12.060422    ( 0.0000,  0.0000,  0.6693)
   6 Ni    -1.260846    3.641822   14.116831    ( 0.0000,  0.0000,  0.6697)
   7 Ni    -1.272953    2.184643   16.156969    ( 0.0000,  0.0000,  0.6722)
   8 Ni    -2.523491    4.370815   10.000000    ( 0.0000,  0.0000,  0.6703)
   9 Ni    -1.261746    5.099284   12.060422    ( 0.0000,  0.0000,  0.6693)
  10 Ni    -2.523305    5.828459   14.116852    ( 0.0000,  0.0000,  0.6697)
  11 Ni    -2.523458    4.370803   16.156837    ( 0.0000,  0.0000,  0.6722)
  12 Ni     2.523491    0.000000   10.000000    ( 0.0000,  0.0000,  0.6703)
  13 Ni     3.785237    0.728469   12.060422    ( 0.0000,  0.0000,  0.6693)
  14 Ni     2.518701    1.459687   14.118180    ( 0.0000,  0.0000,  0.6697)
  15 Ni     2.529783   -0.009577   16.156935    ( 0.0000,  0.0000,  0.6722)
  16 Ni     1.261746    2.185408   10.000000    ( 0.0000,  0.0000,  0.6703)
  17 Ni     2.523491    2.913877   12.060422    ( 0.0000,  0.0000,  0.6693)
  18 Ni     1.261839    3.636366   14.118246    ( 0.0000,  0.0000,  0.6697)
  19 Ni     1.261719    2.185394   16.234847    ( 0.0000,  0.0000,  0.6722)
  20 Ni    -0.000000    4.370815   10.000000    ( 0.0000,  0.0000,  0.6703)
  21 Ni     1.261746    5.099284   12.060422    ( 0.0000,  0.0000,  0.6693)
  22 Ni    -0.001481    5.826645   14.119338    ( 0.0000,  0.0000,  0.6697)
  23 Ni    -0.004968    4.380904   16.156975    ( 0.0000,  0.0000,  0.6722)
  24 Ni     5.046982    0.000000   10.000000    ( 0.0000,  0.0000,  0.6703)
  25 Ni     6.308728    0.728469   12.060422    ( 0.0000,  0.0000,  0.6693)
  26 Ni     5.047212    1.458763   14.119339    ( 0.0000,  0.0000,  0.6697)
  27 Ni     5.047214   -0.000131   16.157199    ( 0.0000,  0.0000,  0.6722)
  28 Ni     3.785237    2.185408   10.000000    ( 0.0000,  0.0000,  0.6703)
  29 Ni     5.046982    2.913877   12.060422    ( 0.0000,  0.0000,  0.6693)
  30 Ni     3.784729    3.641838   14.116842    ( 0.0000,  0.0000,  0.6697)
  31 Ni     3.796669    2.184723   16.156890    ( 0.0000,  0.0000,  0.6722)
  32 Ni     2.523491    4.370815   10.000000    ( 0.0000,  0.0000,  0.6703)
  33 Ni     3.785237    5.099284   12.060422    ( 0.0000,  0.0000,  0.6693)
  34 Ni     2.525355    5.826685   14.119376    ( 0.0000,  0.0000,  0.6697)
  35 Ni     2.528788    4.381110   16.156973    ( 0.0000,  0.0000,  0.6722)
  36 O      1.261669    2.185423   18.110516    ( 0.0000,  0.0000,  0.0000)
  37 H      1.261761    2.185324   19.092515    ( 0.0000,  0.0000,  0.0000)

Unit cell:
           periodic     x           y           z      points  spacing
  1. axis:    yes    7.570474    0.000000    0.000000    36     0.1821
  2. axis:    yes   -3.785237    6.556223    0.000000    36     0.1821
  3. axis:    no     0.000000    0.000000   26.181266   144     0.1818

  Lengths:   7.570474   7.570474  26.181266
  Angles:   90.000000  90.000000 120.000000

Effective grid spacing dv^(1/3) = 0.1910

     iter     time        total  log10-change:  magmom
                         energy  eigst   dens
iter:   1 21:52:13 -2738.988226  -1.95           +24.5556
iter:   2 21:53:15 -2741.089256  -2.31  -2.60    +24.4629
iter:   3 21:54:18 -2752.458484  -1.96  -2.26    +24.4393
iter:   4 21:55:20 -2739.580412  -2.74  -1.85    +24.2548
iter:   5 21:56:22 -2738.634025  -2.70  -2.41    +24.3913
iter:   6 21:57:25 -2738.603660  -3.32  -2.93    +24.3704
iter:   7 21:58:27 -2738.649318c -4.04  -3.14    +24.3894
iter:   8 21:59:30 -2738.658530c -3.20  -3.08    +24.4878
iter:   9 22:00:32 -2738.680568c -4.29  -3.29    +24.4744
iter:  10 22:01:35 -2738.672458c -3.76  -3.26    +24.4978
iter:  11 22:02:37 -2738.823955c -4.20  -3.21    +24.5047
iter:  12 22:03:39 -2738.643110c -3.52  -2.81    +24.4943
iter:  13 22:04:42 -2738.666555c -3.49  -3.22    +24.4889
iter:  14 22:05:44 -2738.628584c -4.09  -2.94    +24.4770
iter:  15 22:06:46 -2738.590399c -4.75  -3.00    +24.4648
iter:  16 22:07:49 -2738.567264c -4.46  -3.15    +24.4815
iter:  17 22:08:51 -2738.634980c -3.44  -3.06    +24.4649
iter:  18 22:09:54 -2738.663673c -3.90  -3.54    +24.4809
iter:  19 22:10:56 -2738.662214c -4.51  -3.48    +24.4932
iter:  20 22:11:58 -2738.665123c -4.42  -3.58    +24.5182
iter:  21 22:13:01 -2738.667238c -4.68  -3.75    +24.5247
iter:  22 22:14:03 -2738.666512c -5.36  -3.76    +24.5255
iter:  23 22:15:05 -2738.672948c -4.93  -3.76    +24.5308
iter:  24 22:16:08 -2738.684313c -4.32  -3.66    +24.5455
iter:  25 22:17:10 -2738.668867c -4.51  -3.39    +24.5305
iter:  26 22:18:13 -2738.688145c -4.27  -3.75    +24.5464
iter:  27 22:19:15 -2738.664650c -4.11  -3.32    +24.5289
iter:  28 22:20:17 -2738.663067c -4.07  -4.12c   +24.5255
iter:  29 22:21:20 -2738.665476c -4.62  -3.38    +24.5308
iter:  30 22:22:22 -2738.667189c -5.35  -3.29    +24.5336
iter:  31 22:23:24 -2738.664231c -5.95  -3.27    +24.5355
iter:  32 22:24:27 -2738.659033c -5.87  -3.29    +24.5348
iter:  33 22:25:29 -2738.647500c -5.46  -3.35    +24.5357
iter:  34 22:26:32 -2738.643316c -5.00  -3.61    +24.5318
iter:  35 22:27:34 -2738.643323c -5.50  -3.59    +24.5388
iter:  36 22:28:36 -2738.643147c -4.43  -3.83    +24.5458
iter:  37 22:29:39 -2738.659662c -4.74  -3.63    +24.5257
iter:  38 22:30:41 -2738.675014c -3.87  -3.63    +24.5186
iter:  39 22:31:43 -2738.678423c -4.65  -3.66    +24.5328
iter:  40 22:32:46 -2738.682554c -4.79  -3.54    +24.5388
iter:  41 22:33:48 -2738.672770c -4.57  -3.45    +24.5423
iter:  42 22:34:51 -2738.672121c -5.07  -3.43    +24.5445
iter:  43 22:35:53 -2738.671703c -4.82  -3.50    +24.5533
iter:  44 22:36:55 -2738.693747c -4.51  -3.48    +24.5615
iter:  45 22:37:58 -2738.664039c -5.14  -3.17    +24.5531
iter:  46 22:39:00 -2738.664325c -5.28  -3.63    +24.5536
iter:  47 22:40:03 -2738.659974c -4.53  -3.53    +24.5541
iter:  48 22:41:05 -2738.661790c -5.05  -3.44    +24.5527
iter:  49 22:42:07 -2738.672920c -5.68  -3.41    +24.5526
iter:  50 22:43:10 -2738.672235c -5.53  -3.30    +24.5535
iter:  51 22:44:12 -2738.674255c -4.03  -3.29    +24.5580
iter:  52 22:45:14 -2738.647988c -4.27  -3.12    +24.5633
iter:  53 22:46:17 -2738.641988c -5.06  -3.12    +24.5606
iter:  54 22:47:19 -2738.625921c -4.46  -3.21    +24.5658
iter:  55 22:48:21 -2738.644676c -4.94  -3.14    +24.5544
iter:  56 22:49:24 -2738.618424c -4.23  -3.13    +24.5527
iter:  57 22:50:26 -2738.625273c -4.66  -3.53    +24.5482
iter:  58 22:51:29 -2738.645902c -4.43  -3.60    +24.5379
iter:  59 22:52:31 -2738.662367c -4.07  -3.83    +24.5395
iter:  60 22:53:33 -2738.664079c -4.78  -3.91    +24.5426
iter:  61 22:54:36 -2738.671086c -4.79  -4.02c   +24.5464
iter:  62 22:55:38 -2738.671145c -5.37  -3.78    +24.5461
iter:  63 22:56:40 -2738.672308c -5.16  -3.81    +24.5485
iter:  64 22:57:43 -2738.675587c -5.22  -3.86    +24.5497
iter:  65 22:58:45 -2738.677869c -5.27  -3.73    +24.5507
iter:  66 22:59:47 -2738.682144c -5.08  -3.65    +24.5520
iter:  67 23:00:50 -2738.682953c -5.71  -3.54    +24.5517
iter:  68 23:01:52 -2738.680498c -5.59  -3.51    +24.5520
iter:  69 23:02:54 -2738.675397c -5.24  -3.54    +24.5522
iter:  70 23:03:57 -2738.681277c -5.68  -3.57    +24.5521
iter:  71 23:04:59 -2738.670091c -4.51  -3.51    +24.5521
iter:  72 23:06:01 -2738.670201c -5.31  -3.45    +24.5514
iter:  73 23:07:04 -2738.669551c -4.93  -3.56    +24.5571
iter:  74 23:08:06 -2738.667703c -4.67  -3.73    +24.5545
iter:  75 23:09:08 -2738.668532c -5.48  -3.89    +24.5520
iter:  76 23:10:11 -2738.669422c -5.46  -4.23c   +24.5525
iter:  77 23:11:13 -2738.670203c -5.59  -4.06c   +24.5524
iter:  78 23:12:15 -2738.668873c -6.18  -4.09c   +24.5524
iter:  79 23:13:18 -2738.668892c -6.31  -4.27c   +24.5524
iter:  80 23:14:20 -2738.669306c -6.44  -4.29c   +24.5525
iter:  81 23:15:22 -2738.668826c -6.87  -4.27c   +24.5525
iter:  82 23:16:25 -2738.668880c -6.99  -4.44c   +24.5523
iter:  83 23:17:27 -2738.668953c -7.14  -4.49c   +24.5520
iter:  84 23:18:29 -2738.669001c -6.62  -4.42c   +24.5523
iter:  85 23:19:32 -2738.668757c -7.21  -4.36c   +24.5522
iter:  86 23:20:34 -2738.669151c -6.63  -4.60c   +24.5521
iter:  87 23:21:36 -2738.669086c -7.13  -4.20c   +24.5524
iter:  88 23:22:39 -2738.668888c -5.85  -4.40c   +24.5536
iter:  89 23:23:41 -2738.669067c -5.88  -4.43c   +24.5529
iter:  90 23:24:43 -2738.669426c -4.94  -4.21c   +24.5527
iter:  91 23:25:46 -2738.669549c -5.54  -3.82    +24.5534
iter:  92 23:26:48 -2738.671144c -6.36  -3.77    +24.5534
iter:  93 23:27:50 -2738.670088c -6.02  -3.69    +24.5537
iter:  94 23:28:52 -2738.670908c -5.66  -3.72    +24.5545
iter:  95 23:29:55 -2738.666955c -5.26  -3.64    +24.5534
iter:  96 23:30:57 -2738.666022c -5.84  -4.31c   +24.5543
iter:  97 23:31:59 -2738.666626c -5.64  -4.14c   +24.5548
iter:  98 23:33:02 -2738.666956c -5.50  -3.90    +24.5553
iter:  99 23:34:04 -2738.667202c -5.71  -3.85    +24.5546
iter: 100 23:35:07 -2738.666253c -5.98  -3.89    +24.5544
iter: 101 23:36:09 -2738.670499c -5.12  -3.91    +24.5552
iter: 102 23:37:11 -2738.669527c -6.38  -3.74    +24.5549
iter: 103 23:38:14 -2738.671522c -5.18  -3.79    +24.5546
iter: 104 23:39:16 -2738.668106c -6.18  -3.69    +24.5548
iter: 105 23:40:18 -2738.671512c -5.73  -3.90    +24.5535
iter: 106 23:41:20 -2738.665915c -5.08  -3.69    +24.5543
iter: 107 23:42:23 -2738.675336c -4.64  -3.90    +24.5548
iter: 108 23:43:25 -2738.694837c -4.12  -3.52    +24.5566
iter: 109 23:44:27 -2738.669580c -4.10  -3.21    +24.5547
iter: 110 23:45:30 -2738.667950c -4.88  -3.76    +24.5547
iter: 111 23:46:32 -2738.670478c -5.40  -3.93    +24.5533
iter: 112 23:47:34 -2738.676256c -4.54  -3.80    +24.5539
iter: 113 23:48:37 -2738.704189c -3.95  -3.51    +24.5542
iter: 114 23:49:39 -2738.665691c -3.69  -3.12    +24.5560
iter: 115 23:50:41 -2738.662558c -3.99  -4.23c   +24.5567
iter: 116 23:51:44 -2738.663836c -4.81  -3.50    +24.5537
iter: 117 23:52:46 -2738.671869c -5.29  -3.49    +24.5487
iter: 118 23:53:48 -2738.673855c -6.10  -3.38    +24.5510
iter: 119 23:54:51 -2738.668098c -6.20  -3.35    +24.5507
iter: 120 23:55:53 -2738.654702c -4.76  -3.42    +24.5509
iter: 121 23:56:55 -2738.655673c -5.52  -3.73    +24.5509
iter: 122 23:57:58 -2738.658705c -4.70  -3.70    +24.5460
iter: 123 23:59:00 -2738.667994c -4.27  -3.67    +24.5474
iter: 124 00:00:02 -2738.656943c -3.78  -3.47    +24.5545
iter: 125 00:01:05 -2738.657834c -4.75  -3.44    +24.5489
iter: 126 00:02:07 -2738.655083c -4.42  -4.06c   +24.5500
iter: 127 00:03:09 -2738.660927c -3.99  -3.39    +24.5401
iter: 128 00:04:11 -2738.631852c -3.75  -3.12    +24.5181
iter: 129 00:05:14 -2738.644270c -4.06  -3.04    +24.5432
iter: 130 00:06:16 -2738.645174c -4.35  -3.32    +24.5060
iter: 131 00:07:18 -2738.660786c -4.21  -3.11    +24.4811
iter: 132 00:08:21 -2738.634182c -4.45  -3.00    +24.4760
iter: 133 00:09:23 -2738.635181c -5.22  -3.06    +24.4882
iter: 134 00:10:25 -2738.625600c -4.92  -3.10    +24.4888
iter: 135 00:11:28 -2738.587179c -4.26  -3.26    +24.4791
iter: 136 00:12:30 -2738.664766c -3.40  -3.12    +24.5320
iter: 137 00:13:32 -2738.575668c -3.61  -3.54    +24.4448
iter: 138 00:14:35 -2738.732022c -2.88  -3.29    +24.5870
iter: 139 00:15:37 -2738.920008  -2.71  -3.03    +24.6698
iter: 140 00:16:39 -2738.679268c -2.88  -2.64    +24.5594
iter: 141 00:17:42 -2738.731606c -4.43  -3.45    +24.5577
iter: 142 00:18:44 -2738.767178c -5.10  -3.05    +24.5533
iter: 143 00:19:46 -2738.646192c -3.98  -2.97    +24.5605
iter: 144 00:20:49 -2738.692859c -5.00  -3.57    +24.5506
iter: 145 00:21:51 -2738.694812c -5.14  -3.15    +24.5503
iter: 146 00:22:53 -2738.655284c -4.06  -3.12    +24.5498
iter: 147 00:23:56 -2738.640492c -5.01  -3.28    +24.5472
iter: 148 00:24:58 -2738.654079c -4.52  -3.58    +24.5325
iter: 149 00:26:00 -2738.687436c -4.04  -3.66    +24.5393
iter: 150 00:27:03 -2738.796783c -3.59  -3.26    +24.5556
iter: 151 00:28:05 -2738.612786c -3.14  -2.89    +24.5254
iter: 152 00:29:07 -2738.400351  -2.12  -3.75    +24.4196
iter: 153 00:30:10 -2738.737174  -2.16  -2.48    +24.6097
iter: 154 00:31:12 -2739.134071  -2.09  -3.03    +24.8372
iter: 155 00:32:14 -2738.957024  -3.48  -2.46    +24.6174
iter: 156 00:33:17 -2739.143956c -3.45  -2.63    +24.5906
iter: 157 00:34:19 -2739.183850c -4.54  -2.51    +24.5594
iter: 158 00:35:21 -2739.355061c -3.44  -2.51    +24.5417
iter: 159 00:36:23 -2739.616460  -4.04  -2.43    +24.5266
iter: 160 00:37:26 -2739.621389c -3.75  -2.39    +24.4945
iter: 161 00:38:28 -2737.885688  -2.86  -2.38    +24.5011
iter: 162 00:39:30 -2738.319541  -3.51  -2.58    +24.2791
iter: 163 00:40:33 -2737.648201  -3.25  -2.60    +24.3608
iter: 164 00:41:35 -2737.536691  -3.85  -3.01    +24.2425
iter: 165 00:42:37 -2738.923286  -2.72  -3.05    +23.6130
iter: 166 00:43:40 -2739.256633  -2.41  -2.57    +23.4504
iter: 167 00:44:42 -2738.824391  -2.52  -2.59    +24.0736
iter: 168 00:45:44 -2738.658393  -3.11  -2.74    +24.1954
iter: 169 00:46:47 -2738.680679c -3.63  -2.85    +24.3026
iter: 170 00:47:49 -2738.503738c -3.59  -2.86    +24.4259
iter: 171 00:48:51 -2738.465251c -4.13  -3.23    +24.3643
iter: 172 00:49:53 -2738.581014c -3.95  -3.40    +24.4208
iter: 173 00:50:56 -2738.671604c -3.67  -3.32    +24.4712
iter: 174 00:51:58 -2738.633258c -3.63  -3.21    +24.3736
iter: 175 00:53:01 -2738.597272c -4.51  -2.91    +24.4145
iter: 176 00:54:03 -2738.593510c -5.07  -3.12    +24.4259
iter: 177 00:55:05 -2738.588668c -4.92  -3.20    +24.4386
iter: 178 00:56:08 -2738.544469c -4.40  -3.49    +24.4302
iter: 179 00:57:10 -2738.924157  -3.05  -3.28    +24.5325
iter: 180 00:58:12 -2738.390342  -2.65  -2.75    +24.3422
iter: 181 00:59:15 -2738.201101  -2.25  -2.87    +23.9954
iter: 182 01:00:17 -2738.722322  -2.09  -2.44    +24.6949
iter: 183 01:01:19 -2739.652312  -1.79  -3.05    +25.4083
iter: 184 01:02:21 -2739.171560  -2.82  -2.34    +24.7463
iter: 185 01:03:24 -2739.424275  -3.37  -2.58    +24.7330
iter: 186 01:04:26 -2739.728133  -3.03  -2.46    +24.6488
iter: 187 01:05:28 -2739.496020  -3.89  -2.37    +24.6338
iter: 188 01:06:31 -2739.548193c -3.82  -2.40    +24.4735
iter: 189 01:07:33 -2739.935040  -4.08  -2.39    +24.5473
iter: 190 01:08:35 -2739.236611  -3.74  -2.33    +24.3141
iter: 191 01:09:38 -2737.664309  -3.07  -2.42    +24.3444
iter: 192 01:10:40 -2737.759858  -3.53  -2.66    +24.1284
iter: 193 01:11:42 -2737.635539c -3.15  -2.73    +23.4371
iter: 194 01:12:44 -2738.354923  -2.82  -2.71    +24.1339
iter: 195 01:13:47 -2739.043280  -2.29  -2.84    +25.3957
iter: 196 01:14:49 -2738.989248  -2.58  -2.66    +25.0134
iter: 197 01:15:51 -2739.629231  -3.08  -2.68    +24.7809
iter: 198 01:16:54 -2739.641415  -3.34  -2.49    +24.7057
iter: 199 01:17:56 -2739.819456c -2.92  -2.51    +24.6758
iter: 200 01:18:58 -2738.560845  -2.27  -2.43    +24.6932
iter: 201 01:20:00 -2738.533907  -3.34  -2.52    +24.4155
iter: 202 01:21:03 -2738.686568c -3.25  -2.63    +24.1449
iter: 203 01:22:05 -2738.617748c -3.44  -2.66    +24.2211
iter: 204 01:23:07 -2739.150718  -2.74  -2.74    +24.1524
iter: 205 01:24:10 -2738.331293  -3.28  -2.36    +24.2568
iter: 206 01:25:12 -2738.416879  -3.56  -2.93    +24.4471
iter: 207 01:26:14 -2738.424265c -3.98  -2.90    +24.0235
iter: 208 01:27:17 -2738.438815c -3.75  -2.99    +23.9778
iter: 209 01:28:19 -2739.018932  -3.38  -3.06    +24.1105
iter: 210 01:29:21 -2739.016288  -3.98  -2.55    +24.1797
iter: 211 01:30:24 -2738.649744  -3.86  -2.55    +24.4506
iter: 212 01:31:26 -2738.578196  -4.24  -2.79    +24.4180
iter: 213 01:32:28 -2738.511463c -4.10  -2.92    +24.4202
iter: 214 01:33:31 -2738.590553c -4.08  -3.37    +24.4220
iter: 215 01:34:33 -2738.484708c -4.41  -2.87    +24.4118
iter: 216 01:35:35 -2738.487337c -4.92  -3.52    +24.4196
iter: 217 01:36:38 -2738.484849c -4.49  -3.28    +24.4248
iter: 218 01:37:40 -2738.505672c -3.32  -3.40    +24.3923
iter: 219 01:38:42 -2738.570694c -3.17  -3.08    +24.3796
iter: 220 01:39:44 -2738.578959c -3.95  -2.91    +24.3914
iter: 221 01:40:47 -2738.653000c -3.47  -3.14    +24.4430
iter: 222 01:41:49 -2738.775171c -3.24  -3.36    +24.5283
iter: 223 01:42:52 -2738.606920c -3.13  -2.99    +24.4150
iter: 224 01:43:54 -2738.627187c -4.03  -3.03    +24.4772
iter: 225 01:44:56 -2738.666729c -4.38  -3.50    +24.4667
iter: 226 01:45:58 -2738.664671c -4.15  -2.98    +24.4977
iter: 227 01:47:01 -2738.686586c -3.39  -3.19    +24.5588
iter: 228 01:48:03 -2738.695792c -4.07  -3.32    +24.5569
iter: 229 01:49:05 -2738.711292c -4.43  -3.27    +24.5602
iter: 230 01:50:08 -2738.708130c -4.72  -3.19    +24.5607
iter: 231 01:51:10 -2738.728481c -4.68  -3.18    +24.5641
iter: 232 01:52:12 -2738.681711c -4.62  -3.08    +24.5608
iter: 233 01:53:15 -2738.678745c -5.00  -3.29    +24.5600
iter: 234 01:54:17 -2738.664199c -4.37  -3.28    +24.5576
iter: 235 01:55:19 -2738.670632c -4.86  -3.22    +24.5588
iter: 236 01:56:22 -2738.667567c -4.90  -3.34    +24.5545
iter: 237 01:57:24 -2738.677558c -4.85  -3.32    +24.5528
iter: 238 01:58:26 -2738.679575c -4.76  -3.29    +24.5494
iter: 239 01:59:29 -2738.689643c -4.94  -3.27    +24.5518
iter: 240 02:00:31 -2738.691792c -4.84  -3.16    +24.5545
iter: 241 02:01:33 -2738.650575c -4.67  -3.11    +24.5562
iter: 242 02:02:36 -2738.668512c -4.38  -3.46    +24.5515
iter: 243 02:03:38 -2738.659199c -4.64  -3.39    +24.5418
iter: 244 02:04:40 -2738.673116c -4.91  -3.41    +24.5418
iter: 245 02:05:43 -2738.662612c -5.60  -3.25    +24.5437
iter: 246 02:06:45 -2738.661898c -4.92  -3.48    +24.5443
iter: 247 02:07:48 -2738.657553c -5.71  -3.53    +24.5442
iter: 248 02:08:50 -2738.658408c -5.80  -4.10c   +24.5444
iter: 249 02:09:52 -2738.660866c -5.10  -4.32c   +24.5397
iter: 250 02:10:55 -2738.672205c -4.73  -3.80    +24.5387
iter: 251 02:11:57 -2738.675376c -5.55  -3.54    +24.5389
iter: 252 02:12:59 -2738.676816c -5.17  -3.47    +24.5437
iter: 253 02:14:02 -2738.673362c -3.32  -3.40    +24.5127
iter: 254 02:15:04 -2738.681087c -4.16  -3.23    +24.5332
iter: 255 02:16:06 -2738.684723c -3.89  -3.42    +24.5498
iter: 256 02:17:09 -2738.673803c -4.07  -3.35    +24.5554
iter: 257 02:18:11 -2738.683060c -4.81  -3.33    +24.5523
iter: 258 02:19:13 -2738.668208c -4.56  -3.33    +24.5535
iter: 259 02:20:16 -2738.667051c -5.03  -3.32    +24.5531
iter: 260 02:21:18 -2738.669670c -4.68  -3.44    +24.5516
iter: 261 02:22:20 -2738.663920c -4.36  -3.45    +24.5497
iter: 262 02:23:23 -2738.663101c -5.11  -3.68    +24.5497
iter: 263 02:24:25 -2738.661813c -5.13  -3.59    +24.5502
iter: 264 02:25:27 -2738.663157c -5.12  -3.58    +24.5487
iter: 265 02:26:30 -2738.662366c -5.30  -3.68    +24.5513
iter: 266 02:27:32 -2738.663712c -5.48  -3.88    +24.5506
iter: 267 02:28:35 -2738.665373c -5.30  -4.03c   +24.5526
iter: 268 02:29:37 -2738.669026c -4.76  -4.38c   +24.5543
iter: 269 02:30:39 -2738.671998c -4.75  -4.08c   +24.5562
iter: 270 02:31:42 -2738.668853c -5.52  -3.76    +24.5549
iter: 271 02:32:44 -2738.669451c -6.18  -4.09c   +24.5554
iter: 272 02:33:46 -2738.670433c -5.36  -4.02c   +24.5558
iter: 273 02:34:49 -2738.670693c -6.36  -3.85    +24.5556
iter: 274 02:35:51 -2738.671400c -5.86  -3.90    +24.5561
iter: 275 02:36:53 -2738.673071c -5.76  -3.82    +24.5563
iter: 276 02:37:56 -2738.671681c -6.62  -3.72    +24.5563
iter: 277 02:38:58 -2738.673959c -6.07  -3.77    +24.5561
iter: 278 02:40:00 -2738.672627c -6.45  -3.69    +24.5566
iter: 279 02:41:03 -2738.679547c -5.37  -3.72    +24.5549
iter: 280 02:42:05 -2738.677921c -4.81  -3.42    +24.5550
iter: 281 02:43:07 -2738.668791c -5.60  -3.36    +24.5537
iter: 282 02:44:10 -2738.668623c -5.54  -3.89    +24.5516
iter: 283 02:45:12 -2738.668111c -5.30  -4.05c   +24.5507
iter: 284 02:46:14 -2738.669517c -6.00  -4.07c   +24.5505
iter: 285 02:47:17 -2738.668248c -5.75  -3.99    +24.5510
iter: 286 02:48:19 -2738.668798c -6.18  -3.96    +24.5510
iter: 287 02:49:21 -2738.668810c -6.77  -4.20c   +24.5516
iter: 288 02:50:24 -2738.668348c -7.01  -4.34c   +24.5511
iter: 289 02:51:26 -2738.668799c -6.71  -4.56c   +24.5520
iter: 290 02:52:28 -2738.668650c -6.46  -4.64c   +24.5513
iter: 291 02:53:31 -2738.668484c -5.82  -4.86c   +24.5519
iter: 292 02:54:33 -2738.668620c -6.20  -4.64c   +24.5527
iter: 293 02:55:35 -2738.668605c -6.81  -4.57c   +24.5528
iter: 294 02:56:38 -2738.668783c -7.07  -4.35c   +24.5530
iter: 295 02:57:40 -2738.668948c -6.67  -4.36c   +24.5532
iter: 296 02:58:42 -2738.669270c -6.54  -4.23c   +24.5533
iter: 297 02:59:45 -2738.668962c -6.61  -4.53c   +24.5535
iter: 298 03:00:47 -2738.668852c -6.72  -4.37c   +24.5537
iter: 299 03:01:49 -2738.668625c -6.73  -4.29c   +24.5539
iter: 300 03:02:52 -2738.668596c -7.05  -4.48c   +24.5540
iter: 301 03:03:54 -2738.668625c -7.50c -4.78c   +24.5540

Converged after 301 iterations.

Dipole moment: (-2.158720, -3.927262, 0.105548) |e|*Ang

Total magnetic moment: (0.000000, 0.000000, 24.554010)
Local magnetic moments:
   0 Ni ( 0.000000,  0.000000,  0.730330)
   1 Ni ( 0.000000,  0.000000,  0.730725)
   2 Ni ( 0.000000,  0.000000,  0.722587)
   3 Ni ( 0.000000,  0.000000,  0.744827)
   4 Ni ( 0.000000,  0.000000,  0.732115)
   5 Ni ( 0.000000,  0.000000,  0.731048)
   6 Ni ( 0.000000,  0.000000,  0.709068)
   7 Ni ( 0.000000,  0.000000,  0.749404)
   8 Ni ( 0.000000,  0.000000,  0.729464)
   9 Ni ( 0.000000,  0.000000,  0.722646)
  10 Ni ( 0.000000,  0.000000,  0.708846)
  11 Ni ( 0.000000,  0.000000,  0.731003)
  12 Ni ( 0.000000,  0.000000,  0.730874)
  13 Ni ( 0.000000,  0.000000,  0.714052)
  14 Ni ( 0.000000,  0.000000,  0.723174)
  15 Ni ( 0.000000,  0.000000,  0.745914)
  16 Ni ( 0.000000,  0.000000,  0.727109)
  17 Ni ( 0.000000,  0.000000,  0.730544)
  18 Ni ( 0.000000,  0.000000,  0.722006)
  19 Ni ( 0.000000,  0.000000,  0.801724)
  20 Ni ( 0.000000,  0.000000,  0.731644)
  21 Ni ( 0.000000,  0.000000,  0.711602)
  22 Ni ( 0.000000,  0.000000,  0.729164)
  23 Ni ( 0.000000,  0.000000,  0.748695)
  24 Ni ( 0.000000,  0.000000,  0.739125)
  25 Ni ( 0.000000,  0.000000,  0.711953)
  26 Ni ( 0.000000,  0.000000,  0.729563)
  27 Ni ( 0.000000,  0.000000,  0.735063)
  28 Ni ( 0.000000,  0.000000,  0.731352)
  29 Ni ( 0.000000,  0.000000,  0.722854)
  30 Ni ( 0.000000,  0.000000,  0.708627)
  31 Ni ( 0.000000,  0.000000,  0.746208)
  32 Ni ( 0.000000,  0.000000,  0.730232)
  33 Ni ( 0.000000,  0.000000,  0.720569)
  34 Ni ( 0.000000,  0.000000,  0.728310)
  35 Ni ( 0.000000,  0.000000,  0.744206)
  36 O  ( 0.000000,  0.000000,  0.071578)
  37 H  ( 0.000000,  0.000000,  0.004806)

Energy contributions relative to reference atoms: (reference = -1491301.286566)

Kinetic:       +944.590310
Potential:     -821.963404
External:        +0.000000
XC:            -2864.229561
Entropy (-ST):   -2.095456
Local:           +3.981757
--------------------------
Free energy:   -2739.716353
Extrapolated:  -2738.668625

Spin contamination: 2.182666 electrons
Showing only first 2 kpts
                      Up                     Down
 Kpt  Band  Eigenvalues  Occupancy  Eigenvalues  Occupancy
  0   289     -5.84275    0.99923     -4.95624    0.15549
  0   290     -5.83354    0.99916     -4.94616    0.14271
  0   291     -5.83135    0.99914     -4.93645    0.13124
  0   292     -5.82824    0.99911     -4.91245    0.10621

  1   289     -5.91774    0.99964     -5.03471    0.28752
  1   290     -5.90543    0.99959     -5.02628    0.27056
  1   291     -5.90110    0.99957     -5.02195    0.26211
  1   292     -5.88676    0.99951     -4.99362    0.21110


Fermi level: -5.12545

No gap

Forces in eV/Ang:
  0 Ni    0.00227    0.00550    0.09335
  1 Ni   -0.00246   -0.00950   -0.10340
  2 Ni    0.08832    0.04800    0.11627
  3 Ni   -0.05750   -0.09677   -0.03998
  4 Ni    0.00331    0.00325    0.09410
  5 Ni   -0.01041    0.00608   -0.10334
  6 Ni    0.01371   -0.00716   -0.00536
  7 Ni   -0.10809   -0.00629   -0.03816
  8 Ni   -0.00192    0.00169    0.09629
  9 Ni   -0.00349    0.00131   -0.10360
 10 Ni    0.00307    0.01178   -0.00415
 11 Ni    0.00115    0.00033   -0.01199
 12 Ni   -0.00553    0.00555    0.09306
 13 Ni    0.00677   -0.00433   -0.06742
 14 Ni   -0.08113    0.04627    0.11709
 15 Ni    0.05949   -0.09410   -0.03978
 16 Ni   -0.00158    0.00049    0.09439
 17 Ni    0.00666    0.00682   -0.10289
 18 Ni    0.00215   -0.10009    0.11679
 19 Ni    0.00158   -0.00110    0.31794
 20 Ni   -0.00151   -0.00414    0.09394
 21 Ni   -0.00088    0.01189   -0.06510
 22 Ni    0.00031   -0.00279   -0.00293
 23 Ni   -0.04861    0.09776   -0.03866
 24 Ni   -0.00300    0.00175    0.08405
 25 Ni   -0.01023   -0.00526   -0.06567
 26 Ni    0.00226    0.00039   -0.00361
 27 Ni    0.00144   -0.00206   -0.00359
 28 Ni   -0.00755    0.00160    0.09388
 29 Ni   -0.00242    0.00271   -0.10372
 30 Ni   -0.00900   -0.00794   -0.00464
 31 Ni    0.11019   -0.00512   -0.03949
 32 Ni   -0.00363   -0.00412    0.09394
 33 Ni   -0.00039    0.00070   -0.10319
 34 Ni    0.00448   -0.00297   -0.00399
 35 Ni    0.05401    0.09865   -0.04077
 36 O    -0.00137    0.00087    0.73004
 37 H     0.00080   -0.00101   -1.15416

BFGS:    2 03:04:32    -2738.668625        1.1542
System changes: positions 

Initializing position-dependent things.

Density initialized from wave functions
                                          
                                          
                                          
                                          
                                          
                                          
                  H                       
                  O                       
          Ni    Ni    Ni                  
            Ni    Ni    Ni                
           Ni    Ni    Ni                 
             Ni    NNi   NNi              
              Ni     Ni    Ni             
             Ni     Ni    Ni              
               Ni     Ni    Ni            
                 Ni    Ni     Ni          
          Ni    Ni    Ni                  
            Ni    Ni    Ni                
              Ni    Ni    Ni              
                                          
                                          
                                          
                                          

Positions:
   0 Ni    -0.000000    0.000000   10.000000    ( 0.0000,  0.0000,  0.6703)
   1 Ni     1.261746    0.728469   12.060422    ( 0.0000,  0.0000,  0.6693)
   2 Ni     0.009146    1.462019   14.121807    ( 0.0000,  0.0000,  0.6697)
   3 Ni    -0.010055   -0.015760   16.155247    ( 0.0000,  0.0000,  0.6722)
   4 Ni    -1.261746    2.185408   10.000000    ( 0.0000,  0.0000,  0.6703)
   5 Ni    -0.000000    2.913877   12.060422    ( 0.0000,  0.0000,  0.6693)
   6 Ni    -1.260181    3.641456   14.117462    ( 0.0000,  0.0000,  0.6697)
   7 Ni    -1.279831    2.184214   16.155274    ( 0.0000,  0.0000,  0.6722)
   8 Ni    -2.523491    4.370815   10.000000    ( 0.0000,  0.0000,  0.6703)
   9 Ni    -1.261746    5.099284   12.060422    ( 0.0000,  0.0000,  0.6693)
  10 Ni    -2.523148    5.828981   14.117488    ( 0.0000,  0.0000,  0.6697)
  11 Ni    -2.523403    4.370785   16.155624    ( 0.0000,  0.0000,  0.6722)
  12 Ni     2.523491    0.000000   10.000000    ( 0.0000,  0.0000,  0.6703)
  13 Ni     3.785237    0.728469   12.060422    ( 0.0000,  0.0000,  0.6693)
  14 Ni     2.515103    1.461765   14.121733    ( 0.0000,  0.0000,  0.6697)
  15 Ni     2.533643   -0.015500   16.155193    ( 0.0000,  0.0000,  0.6722)
  16 Ni     1.261746    2.185408   10.000000    ( 0.0000,  0.0000,  0.6703)
  17 Ni     2.523491    2.913877   12.060422    ( 0.0000,  0.0000,  0.6693)
  18 Ni     1.261914    3.631883   14.121838    ( 0.0000,  0.0000,  0.6697)
  19 Ni     1.261736    2.185391   16.273470    ( 0.0000,  0.0000,  0.6722)
  20 Ni    -0.000000    4.370815   10.000000    ( 0.0000,  0.0000,  0.6703)
  21 Ni     1.261746    5.099284   12.060422    ( 0.0000,  0.0000,  0.6693)
  22 Ni    -0.002105    5.826105   14.121066    ( 0.0000,  0.0000,  0.6697)
  23 Ni    -0.008028    4.387099   16.155266    ( 0.0000,  0.0000,  0.6722)
  24 Ni     5.046982    0.000000   10.000000    ( 0.0000,  0.0000,  0.6703)
  25 Ni     6.308728    0.728469   12.060422    ( 0.0000,  0.0000,  0.6693)
  26 Ni     5.047345    1.459561   14.121043    ( 0.0000,  0.0000,  0.6697)
  27 Ni     5.047331   -0.000236   16.156281    ( 0.0000,  0.0000,  0.6722)
  28 Ni     3.785237    2.185408   10.000000    ( 0.0000,  0.0000,  0.6703)
  29 Ni     5.046982    2.913877   12.060422    ( 0.0000,  0.0000,  0.6693)
  30 Ni     3.784331    3.641449   14.117478    ( 0.0000,  0.0000,  0.6697)
  31 Ni     3.803692    2.184333   16.155153    ( 0.0000,  0.0000,  0.6722)
  32 Ni     2.523491    4.370815   10.000000    ( 0.0000,  0.0000,  0.6703)
  33 Ni     3.785237    5.099284   12.060422    ( 0.0000,  0.0000,  0.6693)
[...]
  0   289     -5.83140    0.99925     -4.94166    0.15447
  0   290     -5.82102    0.99917     -4.93353    0.14413
  0   291     -5.81730    0.99914     -4.92262    0.13119
  0   292     -5.81489    0.99912     -4.89921    0.10673

  1   289     -5.90381    0.99964     -5.02469    0.29531
  1   290     -5.89292    0.99960     -5.01396    0.27348
  1   291     -5.88698    0.99957     -5.00734    0.26053
  1   292     -5.87185    0.99950     -4.98321    0.21678


Fermi level: -5.11166

No gap

Forces in eV/Ang:
  0 Ni    0.00279    0.00647    0.09343
  1 Ni   -0.00164    0.00720   -0.07553
  2 Ni   -0.01546   -0.01044   -0.00318
  3 Ni    0.00676   -0.00118   -0.00187
  4 Ni    0.00457    0.00388    0.09372
  5 Ni    0.00420   -0.00214   -0.07619
  6 Ni   -0.00418    0.00265   -0.01102
  7 Ni    0.00470    0.00322   -0.00062
  8 Ni   -0.00177    0.00107    0.09524
  9 Ni   -0.00221    0.00062   -0.11549
 10 Ni    0.00214   -0.00895   -0.01180
 11 Ni    0.00367   -0.00210   -0.00847
 12 Ni   -0.00614    0.00648    0.09372
 13 Ni   -0.01940    0.01117   -0.03862
 14 Ni    0.01942   -0.01126   -0.00349
 15 Ni   -0.00358   -0.00194   -0.00081
 16 Ni   -0.00160    0.00121    0.09752
 17 Ni   -0.00708   -0.00193   -0.07545
 18 Ni    0.00124    0.01876   -0.00305
 19 Ni    0.00196   -0.00134    0.01417
 20 Ni   -0.00082   -0.00574    0.09373
 21 Ni   -0.00099   -0.02060   -0.03690
 22 Ni    0.00539    0.00001   -0.01981
 23 Ni   -0.00033   -0.00558   -0.00070
 24 Ni   -0.00301    0.00161    0.08719
 25 Ni    0.01734    0.01110   -0.03695
 26 Ni    0.00236   -0.00488   -0.02005
 27 Ni    0.00173   -0.00143   -0.01622
 28 Ni   -0.00875    0.00229    0.09388
 29 Ni   -0.00170    0.00185   -0.11546
 30 Ni    0.00857    0.00268   -0.01195
 31 Ni   -0.00050    0.00395   -0.00074
 32 Ni   -0.00434   -0.00568    0.09366
 33 Ni    0.00031   -0.00024   -0.11537
 34 Ni   -0.00205    0.00086   -0.02086
 35 Ni    0.00400   -0.00545   -0.00195
 36 O    -0.00660    0.00526   -0.10550
 37 H     0.00257   -0.00227    0.02803

BFGS:    7 14:42:21    -2738.700418        0.1058
System changes: positions 

Initializing position-dependent things.

Density initialized from wave functions
                                          
                                          
                                          
                                          
                                          
                                          
                  H                       
                  O                       
          Ni    Ni     Ni                 
            Ni    Ni    Ni                
           Ni    Ni    Ni                 
             Ni    NNi   NNi              
              Ni     Ni    Ni             
             Ni     Ni    Ni              
               Ni     Ni    Ni            
                 Ni    Ni     Ni          
          Ni    Ni    Ni                  
            Ni    Ni    Ni                
              Ni    Ni    Ni              
                                          
                                          
                                          
                                          

Positions:
   0 Ni    -0.000000    0.000000   10.000000    ( 0.0000,  0.0000,  0.6703)
   1 Ni     1.261746    0.728469   12.060422    ( 0.0000,  0.0000,  0.6693)
   2 Ni     0.017350    1.466301   14.137402    ( 0.0000,  0.0000,  0.6697)
   3 Ni    -0.013584   -0.023030   16.150460    ( 0.0000,  0.0000,  0.6722)
   4 Ni    -1.261746    2.185408   10.000000    ( 0.0000,  0.0000,  0.6703)
   5 Ni    -0.000000    2.913877   12.060422    ( 0.0000,  0.0000,  0.6693)
   6 Ni    -1.259133    3.640826   14.114118    ( 0.0000,  0.0000,  0.6697)
   7 Ni    -1.287384    2.184039   16.150617    ( 0.0000,  0.0000,  0.6722)
   8 Ni    -2.523491    4.370815   10.000000    ( 0.0000,  0.0000,  0.6703)
   9 Ni    -1.261746    5.099284   12.060422    ( 0.0000,  0.0000,  0.6693)
  10 Ni    -2.522705    5.829545   14.114136    ( 0.0000,  0.0000,  0.6697)
  11 Ni    -2.523016    4.370505   16.154728    ( 0.0000,  0.0000,  0.6722)
  12 Ni     2.523491    0.000000   10.000000    ( 0.0000,  0.0000,  0.6703)
  13 Ni     3.785237    0.728469   12.060422    ( 0.0000,  0.0000,  0.6693)
  14 Ni     2.508004    1.465864   14.137293    ( 0.0000,  0.0000,  0.6697)
  15 Ni     2.537587   -0.022556   16.150528    ( 0.0000,  0.0000,  0.6722)
  16 Ni     1.261746    2.185408   10.000000    ( 0.0000,  0.0000,  0.6703)
  17 Ni     2.523491    2.913877   12.060422    ( 0.0000,  0.0000,  0.6693)
  18 Ni     1.262301    3.622599   14.137420    ( 0.0000,  0.0000,  0.6697)
  19 Ni     1.262051    2.185176   16.258645    ( 0.0000,  0.0000,  0.6722)
  20 Ni    -0.000000    4.370815   10.000000    ( 0.0000,  0.0000,  0.6703)
  21 Ni     1.261746    5.099284   12.060422    ( 0.0000,  0.0000,  0.6693)
  22 Ni    -0.000120    5.826715   14.114837    ( 0.0000,  0.0000,  0.6697)
  23 Ni    -0.011654    4.393678   16.150631    ( 0.0000,  0.0000,  0.6722)
  24 Ni     5.046982    0.000000   10.000000    ( 0.0000,  0.0000,  0.6703)
  25 Ni     6.308728    0.728469   12.060422    ( 0.0000,  0.0000,  0.6693)
  26 Ni     5.047802    1.457537   14.114850    ( 0.0000,  0.0000,  0.6697)
  27 Ni     5.047641   -0.000408   16.156010    ( 0.0000,  0.0000,  0.6722)
  28 Ni     3.785237    2.185408   10.000000    ( 0.0000,  0.0000,  0.6703)
  29 Ni     5.046982    2.913877   12.060422    ( 0.0000,  0.0000,  0.6693)
  30 Ni     3.784070    3.640755   14.114130    ( 0.0000,  0.0000,  0.6697)
  31 Ni     3.811778    2.184443   16.150506    ( 0.0000,  0.0000,  0.6722)
  32 Ni     2.523491    4.370815   10.000000    ( 0.0000,  0.0000,  0.6703)
  33 Ni     3.785237    5.099284   12.060422    ( 0.0000,  0.0000,  0.6693)
  34 Ni     2.525050    5.826830   14.114711    ( 0.0000,  0.0000,  0.6697)
  35 Ni     2.536612    4.394051   16.150462    ( 0.0000,  0.0000,  0.6722)
  36 O      1.261074    2.185913   18.097718    ( 0.0000,  0.0000,  0.0000)
  37 H      1.262072    2.185022   19.055795    ( 0.0000,  0.0000,  0.0000)

Unit cell:
           periodic     x           y           z      points  spacing
  1. axis:    yes    7.570474    0.000000    0.000000    36     0.1821
  2. axis:    yes   -3.785237    6.556223    0.000000    36     0.1821
  3. axis:    no     0.000000    0.000000   26.181266   144     0.1818

  Lengths:   7.570474   7.570474  26.181266
  Angles:   90.000000  90.000000 120.000000

Effective grid spacing dv^(1/3) = 0.1910

     iter     time        total  log10-change:  magmom
                         energy  eigst   dens
iter:   1 14:45:23 -2738.870773  -3.99           +24.5578
iter:   2 14:46:25 -2745.906303  -2.42  -2.79    +24.5477
iter:   3 14:47:27 -2738.802949  -2.89  -1.99    +24.4381
iter:   4 14:48:29 -2738.716148  -3.43  -2.96    +24.5653
iter:   5 14:49:31 -2738.699730c -3.97  -3.46    +24.5646
iter:   6 14:50:33 -2738.700187c -4.62  -3.83    +24.5569
iter:   7 14:51:35 -2738.701093c -5.24  -3.96    +24.5522
iter:   8 14:52:37 -2738.700851c -5.21  -4.06c   +24.5521
iter:   9 14:53:39 -2738.700417c -5.59  -4.39c   +24.5541
iter:  10 14:54:41 -2738.700540c -6.15  -4.06c   +24.5544
iter:  11 14:55:43 -2738.700066c -5.95  -4.12c   +24.5572
iter:  12 14:56:45 -2738.699655c -5.68  -4.17c   +24.5585
iter:  13 14:57:46 -2738.700026c -6.29  -4.29c   +24.5581
iter:  14 14:58:48 -2738.700049c -6.76  -4.04c   +24.5583
iter:  15 14:59:50 -2738.699746c -6.03  -4.05c   +24.5589
iter:  16 15:00:52 -2738.700658c -6.31  -4.31c   +24.5584
iter:  17 15:01:54 -2738.700051c -6.69  -4.45c   +24.5583
iter:  18 15:02:56 -2738.699838c -6.25  -4.51c   +24.5576
iter:  19 15:03:58 -2738.699654c -6.38  -4.09c   +24.5577
iter:  20 15:05:00 -2738.699722c -6.95  -4.37c   +24.5577
iter:  21 15:06:02 -2738.700496c -6.11  -4.49c   +24.5572
iter:  22 15:07:03 -2738.700579c -6.10  -4.83c   +24.5575
iter:  23 15:08:05 -2738.700712c -6.23  -4.71c   +24.5575
iter:  24 15:09:07 -2738.701325c -5.62  -4.55c   +24.5577
iter:  25 15:10:09 -2738.700655c -6.02  -4.06c   +24.5576
iter:  26 15:11:11 -2738.700992c -7.19  -4.43c   +24.5574
iter:  27 15:12:13 -2738.700969c -7.82c -4.24c   +24.5574

Converged after 27 iterations.

Dipole moment: (-1.657387, -3.213901, 0.120833) |e|*Ang

Total magnetic moment: (0.000000, 0.000000, 24.557436)
Local magnetic moments:
   0 Ni ( 0.000000,  0.000000,  0.727498)
   1 Ni ( 0.000000,  0.000000,  0.730450)
   2 Ni ( 0.000000,  0.000000,  0.723098)
   3 Ni ( 0.000000,  0.000000,  0.747090)
   4 Ni ( 0.000000,  0.000000,  0.728390)
   5 Ni ( 0.000000,  0.000000,  0.729995)
   6 Ni ( 0.000000,  0.000000,  0.709848)
   7 Ni ( 0.000000,  0.000000,  0.750215)
   8 Ni ( 0.000000,  0.000000,  0.726061)
   9 Ni ( 0.000000,  0.000000,  0.721823)
  10 Ni ( 0.000000,  0.000000,  0.710427)
  11 Ni ( 0.000000,  0.000000,  0.734091)
  12 Ni ( 0.000000,  0.000000,  0.728502)
  13 Ni ( 0.000000,  0.000000,  0.713295)
  14 Ni ( 0.000000,  0.000000,  0.724504)
  15 Ni ( 0.000000,  0.000000,  0.748045)
  16 Ni ( 0.000000,  0.000000,  0.723116)
  17 Ni ( 0.000000,  0.000000,  0.730488)
  18 Ni ( 0.000000,  0.000000,  0.723057)
  19 Ni ( 0.000000,  0.000000,  0.801913)
  20 Ni ( 0.000000,  0.000000,  0.728384)
  21 Ni ( 0.000000,  0.000000,  0.710468)
  22 Ni ( 0.000000,  0.000000,  0.729871)
  23 Ni ( 0.000000,  0.000000,  0.750181)
  24 Ni ( 0.000000,  0.000000,  0.738591)
  25 Ni ( 0.000000,  0.000000,  0.710479)
  26 Ni ( 0.000000,  0.000000,  0.729902)
  27 Ni ( 0.000000,  0.000000,  0.736681)
  28 Ni ( 0.000000,  0.000000,  0.728535)
  29 Ni ( 0.000000,  0.000000,  0.721855)
  30 Ni ( 0.000000,  0.000000,  0.710423)
  31 Ni ( 0.000000,  0.000000,  0.748084)
  32 Ni ( 0.000000,  0.000000,  0.727526)
  33 Ni ( 0.000000,  0.000000,  0.720173)
  34 Ni ( 0.000000,  0.000000,  0.729454)
  35 Ni ( 0.000000,  0.000000,  0.747095)
  36 O  ( 0.000000,  0.000000,  0.078234)
  37 H  ( 0.000000,  0.000000,  0.004657)

Energy contributions relative to reference atoms: (reference = -1491301.286566)

Kinetic:       +947.143410
Potential:     -824.017198
External:        +0.000000
XC:            -2864.756074
Entropy (-ST):   -2.095709
Local:           +3.976748
--------------------------
Free energy:   -2739.748823
Extrapolated:  -2738.700969

Spin contamination: 2.179207 electrons
Showing only first 2 kpts
                      Up                     Down
 Kpt  Band  Eigenvalues  Occupancy  Eigenvalues  Occupancy
  0   289     -5.82778    0.99925     -4.93855    0.15462
  0   290     -5.81791    0.99917     -4.93033    0.14418
  0   291     -5.81377    0.99914     -4.91920    0.13098
  0   292     -5.81123    0.99911     -4.89577    0.10654

  1   289     -5.90056    0.99964     -5.02143    0.29525
  1   290     -5.88936    0.99959     -5.01126    0.27455
  1   291     -5.88407    0.99957     -5.00456    0.26140
  1   292     -5.86893    0.99950     -4.98006    0.21692


Fermi level: -5.10843

No gap

Forces in eV/Ang:
  0 Ni    0.00278    0.00630    0.09405
  1 Ni   -0.00175    0.00978   -0.07195
  2 Ni   -0.01215   -0.00968   -0.00871
  3 Ni    0.00780    0.00073   -0.00453
  4 Ni    0.00421    0.00391    0.09510
  5 Ni    0.00691   -0.00394   -0.07228
  6 Ni   -0.00163    0.00089   -0.01296
  7 Ni    0.00593    0.00221   -0.00435
  8 Ni   -0.00174    0.00109    0.09603
  9 Ni   -0.00231    0.00093   -0.11586
 10 Ni    0.00181   -0.00523   -0.01338
 11 Ni    0.00282   -0.00172   -0.00760
 12 Ni   -0.00606    0.00619    0.09450
 13 Ni   -0.02152    0.01249   -0.03800
 14 Ni    0.01657   -0.00965   -0.00911
 15 Ni   -0.00427    0.00086   -0.00445
 16 Ni   -0.00163    0.00099    0.09747
 17 Ni   -0.00932   -0.00331   -0.07188
 18 Ni    0.00222    0.01520   -0.00874
 19 Ni    0.00332   -0.00247   -0.03007
 20 Ni   -0.00122   -0.00550    0.09506
 21 Ni   -0.00037   -0.02310   -0.03599
 22 Ni    0.00405   -0.00016   -0.02075
 23 Ni    0.00084   -0.00640   -0.00436
 24 Ni   -0.00313    0.00185    0.08811
 25 Ni    0.01995    0.01200   -0.03596
 26 Ni    0.00215   -0.00352   -0.02072
 27 Ni    0.00157   -0.00090   -0.01456
 28 Ni   -0.00834    0.00222    0.09452
 29 Ni   -0.00188    0.00161   -0.11583
 30 Ni    0.00543    0.00099   -0.01343
 31 Ni   -0.00290    0.00304   -0.00431
 32 Ni   -0.00405   -0.00546    0.09405
 33 Ni    0.00011    0.00003   -0.11556
 34 Ni   -0.00021    0.00011   -0.02125
 35 Ni    0.00327   -0.00718   -0.00447
 36 O    -0.00810    0.00651   -0.01133
 37 H     0.00318   -0.00275   -0.02818

BFGS:    8 15:12:50    -2738.700969        0.0304
Timing:                                      incl.     excl.
-------------------------------------------------------------------
Density initialized from wave functions:     8.715     8.715   0.0% |
 Symmetrize density:                         0.000     0.000   0.0% |
Forces:                                    303.522   303.522   0.3% |
Hamiltonian:                                26.960     0.008   0.0% |
 Atomic:                                     0.002     0.002   0.0% |
  XC Correction:                             0.000     0.000   0.0% |
 Calculate atomic Hamiltonians:              0.003     0.003   0.0% |
 Communicate:                                2.031     2.031   0.0% |
 Hartree integrate/restrict:                 0.111     0.111   0.0% |
 Initialize Hamiltonian:                     0.000     0.000   0.0% |
 Poisson:                                    0.971     0.044   0.0% |
  Communicate from 1D:                       0.090     0.090   0.0% |
  Communicate from 2D:                       0.168     0.168   0.0% |
  Communicate to 1D:                         0.050     0.050   0.0% |
  Communicate to 2D:                         0.213     0.213   0.0% |
  FFT 1D:                                    0.172     0.172   0.0% |
  FFT 2D:                                    0.235     0.235   0.0% |
 XC 3D grid:                                23.717     7.613   0.0% |
  VdW-DF integral:                          16.104     0.858   0.0% |
   Convolution:                              1.424     1.424   0.0% |
   FFT:                                      0.888     0.888   0.0% |
   gather:                                   3.922     3.922   0.0% |
   hmm1:                                     0.256     0.256   0.0% |
   hmm2:                                     0.560     0.560   0.0% |
   iFFT:                                     0.865     0.865   0.0% |
   potential:                                3.897     0.105   0.0% |
    collect:                                 0.310     0.310   0.0% |
    p1:                                      2.358     2.358   0.0% |
    p2:                                      0.826     0.826   0.0% |
    sum:                                     0.298     0.298   0.0% |
   splines:                                  3.434     3.434   0.0% |
 vbar:                                       0.116     0.116   0.0% |
LCAO initialization:                        61.230     1.090   0.0% |
 LCAO eigensolver:                          43.200     0.009   0.0% |
  Calculate projections:                     0.000     0.000   0.0% |
  DenseAtomicCorrection:                     0.000     0.000   0.0% |
  Distribute overlap matrix:                41.562    41.562   0.0% |
  Orbital Layouts:                           1.374     1.374   0.0% |
  Potential matrix:                          0.035     0.035   0.0% |
  Sum over cells:                            0.219     0.219   0.0% |
 LCAO to grid:                              15.309    15.309   0.0% |
 Set positions (LCAO WFS):                   1.631     1.118   0.0% |
  Basic WFS set positions:                   0.001     0.001   0.0% |
  Basis functions set positions:             0.000     0.000   0.0% |
  P tci:                                     0.000     0.000   0.0% |
  ST tci:                                    0.418     0.418   0.0% |
  mktci:                                     0.094     0.094   0.0% |
Redistribute:                                0.005     0.005   0.0% |
SCF-cycle:                               87616.306  2015.770   2.3% ||
 Davidson:                               81721.416 28078.928  31.6% |------------|
  Apply hamiltonian:                      1465.839  1465.839   1.6% ||
  Subspace diag:                          6942.629     0.341   0.0% |
   calc_h_matrix:                         3366.628  1891.476   2.1% ||
    Apply hamiltonian:                    1475.151  1475.151   1.7% ||
   diagonalize:                            174.519   174.519   0.2% |
   rotate_psi:                            3401.141  3401.141   3.8% |-|
  calc. matrices:                        37020.735 12425.360  14.0% |-----|
   Apply hamiltonian:                    24595.376 24595.376  27.7% |----------|
  diagonalize:                            1496.443  1496.443   1.7% ||
  rotate_psi:                             6716.841  6716.841   7.6% |--|
 Density:                                  137.539     0.027   0.0% |
  Atomic density matrices:                  12.836    12.836   0.0% |
  Mix:                                      26.282    26.282   0.0% |
  Multipole moments:                         0.487     0.487   0.0% |
  Pseudo density:                           97.906    97.871   0.1% |
   Symmetrize density:                       0.035     0.035   0.0% |
 Hamiltonian:                             3654.841     1.171   0.0% |
  Atomic:                                    0.289     0.285   0.0% |
   XC Correction:                            0.004     0.004   0.0% |
  Calculate atomic Hamiltonians:             0.393     0.393   0.0% |
  Communicate:                             316.425   316.425   0.4% |
  Hartree integrate/restrict:               17.966    17.966   0.0% |
  Poisson:                                 151.873     6.908   0.0% |
   Communicate from 1D:                     13.879    13.879   0.0% |
   Communicate from 2D:                     26.479    26.479   0.0% |
   Communicate to 1D:                        7.808     7.808   0.0% |
   Communicate to 2D:                       33.363    33.363   0.0% |
   FFT 1D:                                  26.709    26.709   0.0% |
   FFT 2D:                                  36.726    36.726   0.0% |
  XC 3D grid:                             3164.984  1191.633   1.3% ||
   VdW-DF integral:                       1973.351   133.547   0.2% |
    Convolution:                           220.412   220.412   0.2% |
    FFT:                                   139.319   139.319   0.2% |
    gather:                                608.836   608.836   0.7% |
    hmm1:                                   39.599    39.599   0.0% |
    hmm2:                                   87.621    87.621   0.1% |
    iFFT:                                  134.920   134.920   0.2% |
    potential:                             609.089    16.488   0.0% |
     collect:                               47.552    47.552   0.1% |
     p1:                                   367.323   367.323   0.4% |
     p2:                                   129.316   129.316   0.1% |
     sum:                                   48.411    48.411   0.1% |
    splines:                                 0.007     0.007   0.0% |
  vbar:                                      1.740     1.740   0.0% |
 Orthonormalize:                            86.739     0.003   0.0% |
  calc_s_matrix:                             5.305     5.305   0.0% |
  inverse-cholesky:                         71.049    71.049   0.1% |
  projections:                               0.001     0.001   0.0% |
  rotate_psi_s:                             10.381    10.381   0.0% |
Set symmetry:                                0.001     0.001   0.0% |
Other:                                     920.584   920.584   1.0% |
-------------------------------------------------------------------
Total:                                             88937.322 100.0%

Memory usage: 1.54 GiB
Date: Wed Oct  4 15:12:51 2023
