
  ___ ___ ___ _ _ _  
 |   |   |_  | | | | 
 | | | | | . | | | | 
 |__ |  _|___|_____|  22.8.0
 |___|_|             

User:   s204775@c160.nifl.fysik.dtu.dk
Date:   Tue Sep 26 11:53:28 2023
Arch:   x86_64
Pid:    116862
CWD:    /home/cat/s204775/projects/Bachelor_project/OH_missing_features
Python: 3.10.4
gpaw:   /home/modules/software/GPAW/22.8.0-intel-2022a/lib/python3.10/site-packages/gpaw
_gpaw:  /home/modules/software/GPAW/22.8.0-intel-2022a/lib/python3.10/site-packages/
        _gpaw.cpython-310-x86_64-linux-gnu.so
ase:    /home/modules/software/ASE/3.22.1-intel-2022a/lib/python3.10/site-packages/ase (version 3.22.1)
numpy:  /home/modules/software/SciPy-bundle/2022.05-intel-2022a/lib/python3.10/site-packages/numpy (version 1.22.3)
scipy:  /home/modules/software/SciPy-bundle/2022.05-intel-2022a/lib/python3.10/site-packages/scipy (version 1.8.1)
libxc:  5.2.3
units:  Angstrom and eV
cores: 40
OpenMP: False
OMP_NUM_THREADS: 1

Input parameters:
  basis: dzp
  h: 0.18
  kpts: {size: (4, 4, 1)}
  xc: BEEF-vdW

System changes: positions, numbers, cell, pbc, initial_charges, initial_magmoms 

Initialize ...

species:
  Pb:
    name: Lead
    id: 66e73b13d76dc837202bcdb13fee58e6
    Z: 82.0
    valence: 14
    core: 68
    charge: 0.0
    file: /home/modules/software/GPAW-setups/0.9.20000/Pb.PBE.gz
    compensation charges: {type: gauss,
                           rc: 0.38,
                           lmax: 2}
    cutoffs: {filter: 2.36,
              core: 2.43}
    valence states:
      #              energy  rcut
      - 6s(2.00)   -11.969   1.259
      - 6p(2.00)    -3.506   1.275
      - 5d(10.00)   -21.211   1.217
      -  s          15.243   1.259
      -  p          23.705   1.275
      -  d           6.001   1.217
  
    # LCAO basis set for Pb:
    #   Name: dzp
    #   File: /home/modules/software/GPAW-setups/0.9.20000/Pb.dzp.basis.gz
    #   Number of radial functions: 7
    #   Number of spherical harmonics: 23
    #     l=0, rc=6.8438 Bohr: 6s-sz confined orbital
    #     l=1, rc=9.8125 Bohr: 6p-sz confined orbital
    #     l=2, rc=4.5156 Bohr: 5d-sz confined orbital
    #     l=0, rc=3.9062 Bohr: 6s-dz split-valence wave
    #     l=1, rc=5.8750 Bohr: 6p-dz split-valence wave
    #     l=2, rc=2.7969 Bohr: 5d-dz split-valence wave
    #     l=2, rc=9.8125 Bohr: d-type Gaussian polarization
    #   Number of RI-basis functions 0

  O:
    name: Oxygen
    id: 32ecd46bf208036f09c70b0ec9a88b78
    Z: 8.0
    valence: 6
    core: 2
    charge: 0.0
    file: /home/modules/software/GPAW-setups/0.9.20000/O.PBE.gz
    compensation charges: {type: gauss,
                           rc: 0.21,
                           lmax: 2}
    cutoffs: {filter: 1.17,
              core: 0.83}
    valence states:
      #              energy  rcut
      - 2s(2.00)   -23.961   0.688
      - 2p(4.00)    -9.029   0.598
      -  s           3.251   0.688
      -  p          18.182   0.598
      -  d           0.000   0.619
  
    # LCAO basis set for O:
    #   Name: dzp
    #   File: /home/modules/software/GPAW-setups/0.9.20000/O.dzp.basis.gz
    #   Number of radial functions: 5
    #   Number of spherical harmonics: 13
    #     l=0, rc=4.3438 Bohr: 2s-sz confined orbital
    #     l=1, rc=5.3906 Bohr: 2p-sz confined orbital
    #     l=0, rc=2.2969 Bohr: 2s-dz split-valence wave
    #     l=1, rc=2.8906 Bohr: 2p-dz split-valence wave
    #     l=2, rc=5.3906 Bohr: d-type Gaussian polarization
    #   Number of RI-basis functions 0

  H:
    name: Hydrogen
    id: d65de229564ff8ea4db303e23b6d1ecf
    Z: 1.0
    valence: 1
    core: 0
    charge: 0.0
    file: /home/modules/software/GPAW-setups/0.9.20000/H.PBE.gz
    compensation charges: {type: gauss,
                           rc: 0.15,
                           lmax: 2}
    cutoffs: {filter: 0.85,
              core: 0.53}
    valence states:
      #              energy  rcut
      - 1s(1.00)    -6.494   0.476
      -  s          20.717   0.476
      -  p           0.000   0.476
  
    # LCAO basis set for H:
    #   Name: dzp
    #   File: /home/modules/software/GPAW-setups/0.9.20000/H.dzp.basis.gz
    #   Number of radial functions: 3
    #   Number of spherical harmonics: 5
    #     l=0, rc=6.4219 Bohr: 1s-sz confined orbital
    #     l=0, rc=3.6094 Bohr: 1s-dz split-valence wave
    #     l=1, rc=6.4219 Bohr: p-type Gaussian polarization
    #   Number of RI-basis functions 0

Reference energy: -20423934.023574  # eV

Spin-paired calculation

Convergence criteria:
 Maximum [total energy] change in last 3 cyles: 0.0005 eV / electron
 Maximum integral of absolute [dens]ity change: 0.0001 electrons / valence electron
 Maximum integral of absolute [eigenst]ate change: 4e-08 eV^2 / valence electron
 Maximum number of scf [iter]ations: 333
 (Square brackets indicate name in SCF output, whereas a 'c' in
 the SCF output indicates the quantity has converged.)

Symmetries present (total): 1

  ( 1  0  0)
  ( 0  1  0)
  ( 0  0  1)

16 k-points: 4 x 4 x 1 Monkhorst-Pack grid
8 k-points in the irreducible part of the Brillouin zone
       k-points in crystal coordinates                weights
   0:     0.12500000   -0.37500000    0.00000000          2/16
   1:     0.12500000   -0.12500000    0.00000000          2/16
   2:     0.12500000    0.12500000    0.00000000          2/16
   3:     0.12500000    0.37500000    0.00000000          2/16
   4:     0.37500000   -0.37500000    0.00000000          2/16
   5:     0.37500000   -0.12500000    0.00000000          2/16
   6:     0.37500000    0.12500000    0.00000000          2/16
   7:     0.37500000    0.37500000    0.00000000          2/16

Wave functions: Uniform real-space grid
  Kinetic energy operator: 8*3+1=25 point O(h^6) finite-difference Laplacian
  ScaLapack parameters: grid=1x1, blocksize=None
  Wavefunction extrapolation:
    Improved wavefunction reuse through dual PAW basis 

Occupation numbers: Fermi-Dirac:
  width: 0.1000  # eV
 

Eigensolver
   Davidson(niter=2) 

Densities:
  Coarse grid: 52*52*160 grid
  Fine grid: 104*104*320 grid
  Total Charge: 0.000000 

Density mixing:
  Method: separate
  Backend: pulay
  Linear mixing parameter: 0.05
  old densities: 5
  Damping of long wavelength oscillations: 50 

Hamiltonian:
  XC and Coulomb potentials evaluated on a 104*104*320 grid
  Using the BEEF-vdW Exchange-Correlation functional
  Interpolation: tri-quintic (5. degree polynomial)
  Poisson solver: FastPoissonSolver using
    Stencil: 8*3+1=25 point O(h^6) finite-difference Laplacian
    FFT axes: [0, 1]
    FST axes: [2]
 

XC parameters: BEEF-vdW with 2 nearest neighbor stencil

Memory estimate:
  Process memory now: 247.33 MiB
  Calculator: 906.50 MiB
    Density: 66.01 MiB
      Arrays: 16.88 MiB
      Localized functions: 42.74 MiB
      Mixer: 6.40 MiB
    Hamiltonian: 14.76 MiB
      Arrays: 11.04 MiB
      XC: 0.00 MiB
      Poisson: 0.00 MiB
      vbar: 3.73 MiB
    Wavefunctions: 825.73 MiB
      Arrays psit_nG: 397.79 MiB
      Eigensolver: 418.95 MiB
      Projections: 0.63 MiB
      Projectors: 8.37 MiB

Total number of cores used: 40
Parallelization over k-points: 8
Domain decomposition: 1 x 1 x 5

Number of atoms: 38
Number of atomic orbitals: 846
Number of bands in calculation: 311
Number of valence electrons: 511
Bands to converge: occupied

... initialized

Initializing position-dependent things.

Density initialized from atomic densities
Creating initial wave functions:
  311 bands from LCAO basis set

                                                    
                                                    
                                                    
                                                    
                                                    
                                                    
                                                    
                      H                             
                      O                             
           Pb       Pb       Pb                     
                                                    
             PPb     PPb      PPb                   
                                                    
               PPb      Pb      PPb                 
                                                    
                PPb      PPb      Pb                
                                                    
                   Pb      Pb       Pb              
                                                    
           Pb       PPb      Pb       Pb            
                                                    
              Pb      Pb       Pb                   
                                                    
                Pb      Pb       Pb                 
                                                    
                                                    
                                                    
                                                    

Positions:
   0 Pb     0.000000    0.000000   10.000000    ( 0.0000,  0.0000,  0.0000)
   1 Pb     1.778836    1.027012   12.904828    ( 0.0000,  0.0000,  0.0000)
   2 Pb    -0.000000    2.058039   15.925154    ( 0.0000,  0.0000,  0.0000)
   3 Pb    -0.000000    0.000000   18.734333    ( 0.0000,  0.0000,  0.0000)
   4 Pb    -1.778836    3.081035   10.000000    ( 0.0000,  0.0000,  0.0000)
   5 Pb    -0.000000    4.108047   12.904828    ( 0.0000,  0.0000,  0.0000)
   6 Pb    -1.780038    5.134365   15.935257    ( 0.0000,  0.0000,  0.0000)
   7 Pb    -1.780612    3.082298   18.759869    ( 0.0000,  0.0000,  0.0000)
   8 Pb    -3.557673    6.162070   10.000000    ( 0.0000,  0.0000,  0.0000)
   9 Pb    -1.778836    7.189082   12.904828    ( 0.0000,  0.0000,  0.0000)
  10 Pb    -3.554195    8.214086   15.925154    ( 0.0000,  0.0000,  0.0000)
  11 Pb    -3.557467    6.159901   18.759869    ( 0.0000,  0.0000,  0.0000)
  12 Pb     3.557673    0.000000   10.000000    ( 0.0000,  0.0000,  0.0000)
  13 Pb     5.336509    1.027012   12.904828    ( 0.0000,  0.0000,  0.0000)
  14 Pb     3.550963    2.050149   15.930366    ( 0.0000,  0.0000,  0.0000)
  15 Pb     3.559654    0.000906   18.759869    ( 0.0000,  0.0000,  0.0000)
  16 Pb     1.778836    3.081035   10.000000    ( 0.0000,  0.0000,  0.0000)
  17 Pb     3.557673    4.108047   12.904828    ( 0.0000,  0.0000,  0.0000)
  18 Pb     1.780038    5.134365   15.935257    ( 0.0000,  0.0000,  0.0000)
  19 Pb     1.780612    3.082298   18.759869    ( 0.0000,  0.0000,  0.0000)
  20 Pb    -0.000000    6.162070   10.000000    ( 0.0000,  0.0000,  0.0000)
  21 Pb     1.778836    7.189082   12.904828    ( 0.0000,  0.0000,  0.0000)
  22 Pb    -0.000000    8.217481   15.935257    ( 0.0000,  0.0000,  0.0000)
  23 Pb    -0.000000    6.162070   18.757272    ( 0.0000,  0.0000,  0.0000)
  24 Pb     7.115346    0.000000   10.000000    ( 0.0000,  0.0000,  0.0000)
  25 Pb     8.894182    1.027012   12.904828    ( 0.0000,  0.0000,  0.0000)
  26 Pb     7.122056    2.050149   15.930366    ( 0.0000,  0.0000,  0.0000)
  27 Pb     7.113364    0.000906   18.759869    ( 0.0000,  0.0000,  0.0000)
  28 Pb     5.336509    3.081035   10.000000    ( 0.0000,  0.0000,  0.0000)
  29 Pb     7.115346    4.108047   12.904828    ( 0.0000,  0.0000,  0.0000)
  30 Pb     5.336509    5.142806   15.930366    ( 0.0000,  0.0000,  0.0000)
  31 Pb     5.336509    3.081035   18.756500    ( 0.0000,  0.0000,  0.0000)
  32 Pb     3.557673    6.162070   10.000000    ( 0.0000,  0.0000,  0.0000)
  33 Pb     5.336509    7.189082   12.904828    ( 0.0000,  0.0000,  0.0000)
  34 Pb     3.554195    8.214086   15.925154    ( 0.0000,  0.0000,  0.0000)
  35 Pb     3.557467    6.159901   18.759869    ( 0.0000,  0.0000,  0.0000)
  36 O      1.780612    3.082298   20.759869    ( 0.0000,  0.0000,  0.0000)
  37 H      1.780612    3.082298   21.719869    ( 0.0000,  0.0000,  0.0000)

Unit cell:
           periodic     x           y           z      points  spacing
  1. axis:    yes   10.673019    0.000000    0.000000    52     0.1778
  2. axis:    yes   -5.336509    9.243105    0.000000    52     0.1778
  3. axis:    no     0.000000    0.000000   28.714483   160     0.1795

  Lengths:  10.673019  10.673019  28.714483
  Angles:   90.000000  90.000000 120.000000

Effective grid spacing dv^(1/3) = 0.1871

     iter     time        total  log10-change:
                         energy  eigst   dens
iter:   1 11:54:53 -12844.566258
iter:   2 11:55:42 -12845.103408  -0.33  -1.57
iter:   3 11:56:30 -12844.159088  -0.84  -1.58
iter:   4 11:57:18 -12844.067093  -1.25  -1.67
iter:   5 11:58:06 -12844.111179c -1.75  -1.73
iter:   6 11:58:54 -12844.279383c -1.62  -1.76
iter:   7 11:59:42 -12844.202950c -1.72  -2.23
iter:   8 12:00:31 -12844.360728c -1.89  -2.45
iter:   9 12:01:19 -12844.177547c -2.13  -2.34
iter:  10 12:02:07 -12844.170450c -2.48  -2.62
iter:  11 12:02:55 -12844.163433c -2.74  -2.65
iter:  12 12:03:43 -12844.172108c -3.10  -2.61
iter:  13 12:04:31 -12844.169599c -3.01  -2.67
iter:  14 12:05:19 -12844.160376c -3.36  -2.71
iter:  15 12:06:07 -12844.160255c -3.51  -2.90
iter:  16 12:06:55 -12844.155517c -3.94  -3.03
iter:  17 12:07:43 -12844.154937c -4.23  -3.33
iter:  18 12:08:32 -12844.154598c -4.72  -3.49
iter:  19 12:09:20 -12844.154407c -5.05  -3.71
iter:  20 12:10:08 -12844.154266c -5.51  -3.81
iter:  21 12:10:56 -12844.154241c -6.00  -3.89
iter:  22 12:11:44 -12844.154227c -6.12  -3.93
iter:  23 12:12:32 -12844.154214c -6.50  -4.03c
iter:  24 12:13:20 -12844.154185c -6.23  -4.04c
iter:  25 12:14:09 -12844.154158c -6.37  -4.07c
iter:  26 12:14:57 -12844.154141c -6.31  -4.14c
iter:  27 12:15:45 -12844.154146c -6.81  -4.24c
iter:  28 12:16:33 -12844.154156c -6.76  -4.33c
iter:  29 12:17:21 -12844.154154c -7.12  -4.52c
iter:  30 12:18:09 -12844.154151c -6.92  -4.70c
iter:  31 12:18:57 -12844.154150c -7.32  -4.97c
iter:  32 12:19:46 -12844.154148c -7.77c -5.10c

Converged after 32 iterations.

Dipole moment: (-8.454558, -15.460626, -0.075827) |e|*Ang

Energy contributions relative to reference atoms: (reference = -20423934.023574)

Kinetic:       +1475.201862
Potential:     -1419.350679
External:        +0.000000
XC:            -12895.884114
Entropy (-ST):   -0.588461
Local:           -3.826987
--------------------------
Free energy:   -12844.448379
Extrapolated:  -12844.154148

Showing only first 2 kpts
 Kpt  Band  Eigenvalues  Occupancy
  0   253     -4.19569    1.63278
  0   254     -4.08094    1.17064
  0   255     -4.02576    0.89676
  0   256     -3.99797    0.76210

  1   253     -4.61234    1.99305
  1   254     -4.54617    1.98657
  1   255     -4.42965    1.95758
  1   256     -4.38909    1.93702


Fermi level: -4.04648

No gap

Forces in eV/Ang:
  0 Pb    0.00125   -0.01690    0.13024
  1 Pb    0.00537   -0.01236   -0.13092
  2 Pb   -0.16833   -0.09783   -0.24194
  3 Pb   -0.02842   -0.08402    0.01582
  4 Pb   -0.01847    0.01891    0.10384
  5 Pb   -0.02766   -0.00624   -0.14102
  6 Pb    0.02550   -0.01563    0.03784
  7 Pb   -0.07704    0.01599   -0.01520
  8 Pb    0.00021   -0.00896    0.09285
  9 Pb   -0.01901    0.01854   -0.14370
 10 Pb    0.01509    0.01590    0.03711
 11 Pb    0.00539   -0.00147   -0.01083
 12 Pb    0.01029   -0.00731    0.09316
 13 Pb   -0.00128    0.01655   -0.04202
 14 Pb    0.18319   -0.10651   -0.24914
 15 Pb    0.02955   -0.08921   -0.01803
 16 Pb    0.00878    0.01431    0.09897
 17 Pb    0.02750    0.00406   -0.10883
 18 Pb    0.01195    0.20553   -0.23962
 19 Pb    0.00085   -0.00494   -1.76731
 20 Pb   -0.00931    0.00784    0.11578
 21 Pb    0.01150    0.02497   -0.07200
 22 Pb   -0.01288   -0.00909    0.02010
 23 Pb   -0.05082    0.06261   -0.00049
 24 Pb   -0.02164    0.00163    0.06834
 25 Pb   -0.02557    0.00494   -0.07597
 26 Pb    0.00077    0.01720    0.02250
 27 Pb    0.00128   -0.00549    0.00107
 28 Pb    0.00194    0.00924    0.10563
 29 Pb   -0.02020   -0.01172   -0.12393
 30 Pb   -0.01594   -0.01659    0.04432
 31 Pb    0.08907    0.01977   -0.01788
 32 Pb    0.00611   -0.00702    0.09240
 33 Pb   -0.01148   -0.00365   -0.15735
 34 Pb    0.01589   -0.02180    0.01382
 35 Pb    0.05614    0.06818   -0.02212
 36 O     0.00309    0.00912    2.50164
 37 H    -0.00255   -0.00387   -0.00196

      Step     Time          Energy         fmax
BFGS:    0 12:20:04   -12844.154148        2.5017
System changes: positions 

Initializing position-dependent things.

Density initialized from wave functions
                                                    
                                                    
                                                    
                                                    
                                                    
                                                    
                                                    
                      H                             
                      O                             
           Pb       Pb       Pb                     
                                                    
             PPb     PPb      PPb                   
                                                    
               PPb      Pb      PPb                 
                                                    
                PPb      PPb      Pb                
                                                    
                   Pb      Pb       Pb              
                                                    
           Pb       PPb      Pb       Pb            
                                                    
              Pb      Pb       Pb                   
                                                    
                Pb      Pb       Pb                 
                                                    
                                                    
                                                    
                                                    

Positions:
   0 Pb     0.000000    0.000000   10.000000    ( 0.0000,  0.0000,  0.0000)
   1 Pb     1.778836    1.027012   12.904828    ( 0.0000,  0.0000,  0.0000)
   2 Pb    -0.002405    2.056641   15.921697    ( 0.0000,  0.0000,  0.0000)
   3 Pb    -0.000406   -0.001200   18.734559    ( 0.0000,  0.0000,  0.0000)
   4 Pb    -1.778836    3.081035   10.000000    ( 0.0000,  0.0000,  0.0000)
   5 Pb    -0.000000    4.108047   12.904828    ( 0.0000,  0.0000,  0.0000)
   6 Pb    -1.779673    5.134142   15.935798    ( 0.0000,  0.0000,  0.0000)
   7 Pb    -1.781712    3.082527   18.759652    ( 0.0000,  0.0000,  0.0000)
   8 Pb    -3.557673    6.162070   10.000000    ( 0.0000,  0.0000,  0.0000)
   9 Pb    -1.778836    7.189082   12.904828    ( 0.0000,  0.0000,  0.0000)
  10 Pb    -3.553980    8.214313   15.925684    ( 0.0000,  0.0000,  0.0000)
  11 Pb    -3.557390    6.159880   18.759715    ( 0.0000,  0.0000,  0.0000)
  12 Pb     3.557673    0.000000   10.000000    ( 0.0000,  0.0000,  0.0000)
  13 Pb     5.336509    1.027012   12.904828    ( 0.0000,  0.0000,  0.0000)
  14 Pb     3.553580    2.048628   15.926807    ( 0.0000,  0.0000,  0.0000)
  15 Pb     3.560077   -0.000368   18.759612    ( 0.0000,  0.0000,  0.0000)
  16 Pb     1.778836    3.081035   10.000000    ( 0.0000,  0.0000,  0.0000)
  17 Pb     3.557673    4.108047   12.904828    ( 0.0000,  0.0000,  0.0000)
  18 Pb     1.780209    5.137301   15.931834    ( 0.0000,  0.0000,  0.0000)
  19 Pb     1.780624    3.082228   18.734622    ( 0.0000,  0.0000,  0.0000)
  20 Pb    -0.000000    6.162070   10.000000    ( 0.0000,  0.0000,  0.0000)
  21 Pb     1.778836    7.189082   12.904828    ( 0.0000,  0.0000,  0.0000)
  22 Pb    -0.000184    8.217351   15.935544    ( 0.0000,  0.0000,  0.0000)
  23 Pb    -0.000726    6.162965   18.757265    ( 0.0000,  0.0000,  0.0000)
  24 Pb     7.115346    0.000000   10.000000    ( 0.0000,  0.0000,  0.0000)
  25 Pb     8.894182    1.027012   12.904828    ( 0.0000,  0.0000,  0.0000)
  26 Pb     7.122067    2.050395   15.930687    ( 0.0000,  0.0000,  0.0000)
  27 Pb     7.113382    0.000827   18.759885    ( 0.0000,  0.0000,  0.0000)
  28 Pb     5.336509    3.081035   10.000000    ( 0.0000,  0.0000,  0.0000)
  29 Pb     7.115346    4.108047   12.904828    ( 0.0000,  0.0000,  0.0000)
  30 Pb     5.336282    5.142569   15.930999    ( 0.0000,  0.0000,  0.0000)
  31 Pb     5.337782    3.081318   18.756245    ( 0.0000,  0.0000,  0.0000)
  32 Pb     3.557673    6.162070   10.000000    ( 0.0000,  0.0000,  0.0000)
  33 Pb     5.336509    7.189082   12.904828    ( 0.0000,  0.0000,  0.0000)
  34 Pb     3.554422    8.213774   15.925351    ( 0.0000,  0.0000,  0.0000)
  35 Pb     3.558269    6.160875   18.759553    ( 0.0000,  0.0000,  0.0000)
  36 O      1.780656    3.082428   20.795607    ( 0.0000,  0.0000,  0.0000)
  37 H      1.780575    3.082243   21.719841    ( 0.0000,  0.0000,  0.0000)

Unit cell:
           periodic     x           y           z      points  spacing
  1. axis:    yes   10.673019    0.000000    0.000000    52     0.1778
  2. axis:    yes   -5.336509    9.243105    0.000000    52     0.1778
  3. axis:    no     0.000000    0.000000   28.714483   160     0.1795

  Lengths:  10.673019  10.673019  28.714483
  Angles:   90.000000  90.000000 120.000000

Effective grid spacing dv^(1/3) = 0.1871

     iter     time        total  log10-change:
                         energy  eigst   dens
iter:   1 12:21:24 -12844.248398  -2.18
iter:   2 12:22:13 -12844.241418  -3.16  -2.84
iter:   3 12:23:02 -12844.236796c -3.90  -3.01
iter:   4 12:23:51 -12844.228249c -3.73  -3.18
iter:   5 12:24:39 -12844.224098c -3.72  -3.29
iter:   6 12:25:28 -12844.224640c -3.68  -3.50
iter:   7 12:26:17 -12844.223335c -4.38  -3.55
iter:   8 12:27:05 -12844.223277c -4.82  -3.82
iter:   9 12:27:54 -12844.223277c -5.43  -3.90
iter:  10 12:28:43 -12844.223243c -5.75  -4.06c
iter:  11 12:29:31 -12844.223258c -5.82  -4.14c
iter:  12 12:30:20 -12844.223259c -6.34  -4.27c
iter:  13 12:31:09 -12844.223270c -6.30  -4.30c
iter:  14 12:31:57 -12844.223274c -6.20  -4.31c
iter:  15 12:32:46 -12844.223270c -6.72  -4.56c
iter:  16 12:33:35 -12844.223272c -7.09  -4.79c
iter:  17 12:34:23 -12844.223274c -7.47c -4.92c

Converged after 17 iterations.

Dipole moment: (-8.425685, -15.254199, -0.145224) |e|*Ang

Energy contributions relative to reference atoms: (reference = -20423934.023574)

Kinetic:       +1473.957476
Potential:     -1418.073672
External:        +0.000000
XC:            -12895.976205
Entropy (-ST):   -0.589044
Local:           -3.836352
--------------------------
Free energy:   -12844.517796
Extrapolated:  -12844.223274

Showing only first 2 kpts
 Kpt  Band  Eigenvalues  Occupancy
  0   253     -4.23462    1.63311
  0   254     -4.11955    1.16958
  0   255     -4.06360    0.89190
  0   256     -4.03653    0.76086

  1   253     -4.64872    1.99288
  1   254     -4.58710    1.98685
  1   255     -4.46621    1.95663
  1   256     -4.42732    1.93666


Fermi level: -4.08530

No gap

Forces in eV/Ang:
  0 Pb    0.00048   -0.01671    0.12849
  1 Pb    0.00525   -0.01365   -0.13093
  2 Pb   -0.16481   -0.09183   -0.23619
  3 Pb   -0.02554   -0.07753    0.02099
  4 Pb   -0.01873    0.01840    0.10236
  5 Pb   -0.02855   -0.00569   -0.14141
  6 Pb    0.02262   -0.01338    0.03297
  7 Pb   -0.06445    0.01430   -0.00819
  8 Pb    0.00037   -0.00911    0.09187
  9 Pb   -0.02027    0.01773   -0.13991
 10 Pb    0.01455    0.01291    0.03168
 11 Pb    0.00533   -0.00143   -0.00575
 12 Pb    0.01091   -0.00707    0.09123
 13 Pb    0.00020    0.01575   -0.04461
 14 Pb    0.17455   -0.10461   -0.24391
 15 Pb    0.02489   -0.07660   -0.01101
 16 Pb    0.00902    0.01425    0.09862
 17 Pb    0.02858    0.00482   -0.10882
 18 Pb    0.01590    0.19709   -0.23611
 19 Pb    0.00343   -0.00083   -0.68160
 20 Pb   -0.00890    0.00834    0.11433
 21 Pb    0.01168    0.02630   -0.07487
 22 Pb   -0.01106   -0.00845    0.01742
 23 Pb   -0.04627    0.05619    0.00585
 24 Pb   -0.02174    0.00164    0.06916
 25 Pb   -0.02674    0.00413   -0.07885
 26 Pb    0.00095    0.01488    0.01942
 27 Pb    0.00094   -0.00510    0.00369
 28 Pb    0.00200    0.00865    0.10366
 29 Pb   -0.02014   -0.01025   -0.12015
 30 Pb   -0.01262   -0.01435    0.03836
 31 Pb    0.08146    0.01852   -0.01149
 32 Pb    0.00555   -0.00651    0.09079
 33 Pb   -0.01032   -0.00441   -0.15374
 34 Pb    0.01461   -0.02060    0.01144
 35 Pb    0.04810    0.05788   -0.01567
 36 O    -0.00257   -0.00229   -0.61326
 37 H    -0.00286   -0.00455    2.08313

BFGS:    1 12:34:42   -12844.223274        2.0831
System changes: positions 

Initializing position-dependent things.

Density initialized from wave functions
                                                    
                                                    
                                                    
                                                    
                                                    
                                                    
                                                    
                      H                             
                      O                             
           Pb       Pb       Pb                     
                                                    
             PPb     PPb      PPb                   
                                                    
               PPb      Pb      PPb                 
                                                    
                PPb      PPb      Pb                
                                                    
                   Pb      Pb       Pb              
                                                    
           Pb       PPb      Pb       Pb            
                                                    
              Pb      Pb       Pb                   
                                                    
                Pb      Pb       Pb                 
                                                    
                                                    
                                                    
                                                    

Positions:
   0 Pb     0.000000    0.000000   10.000000    ( 0.0000,  0.0000,  0.0000)
   1 Pb     1.778836    1.027012   12.904828    ( 0.0000,  0.0000,  0.0000)
   2 Pb    -0.006125    2.054536   15.916360    ( 0.0000,  0.0000,  0.0000)
   3 Pb    -0.001001   -0.002990   18.734987    ( 0.0000,  0.0000,  0.0000)
   4 Pb    -1.778836    3.081035   10.000000    ( 0.0000,  0.0000,  0.0000)
   5 Pb    -0.000000    4.108047   12.904828    ( 0.0000,  0.0000,  0.0000)
   6 Pb    -1.779143    5.133824   15.936576    ( 0.0000,  0.0000,  0.0000)
   7 Pb    -1.783258    3.082861   18.759412    ( 0.0000,  0.0000,  0.0000)
   8 Pb    -3.557673    6.162070   10.000000    ( 0.0000,  0.0000,  0.0000)
   9 Pb    -1.778836    7.189082   12.904828    ( 0.0000,  0.0000,  0.0000)
  10 Pb    -3.553649    8.214626   15.926438    ( 0.0000,  0.0000,  0.0000)
  11 Pb    -3.557270    6.159848   18.759545    ( 0.0000,  0.0000,  0.0000)
  12 Pb     3.557673    0.000000   10.000000    ( 0.0000,  0.0000,  0.0000)
  13 Pb     5.336509    1.027012   12.904828    ( 0.0000,  0.0000,  0.0000)
  14 Pb     3.557560    2.046269   15.921300    ( 0.0000,  0.0000,  0.0000)
  15 Pb     3.560672   -0.002186   18.759308    ( 0.0000,  0.0000,  0.0000)
  16 Pb     1.778836    3.081035   10.000000    ( 0.0000,  0.0000,  0.0000)
  17 Pb     3.557673    4.108047   12.904828    ( 0.0000,  0.0000,  0.0000)
  18 Pb     1.780533    5.141784   15.926517    ( 0.0000,  0.0000,  0.0000)
  19 Pb     1.780680    3.082176   18.710560    ( 0.0000,  0.0000,  0.0000)
  20 Pb    -0.000000    6.162070   10.000000    ( 0.0000,  0.0000,  0.0000)
  21 Pb     1.778836    7.189082   12.904828    ( 0.0000,  0.0000,  0.0000)
  22 Pb    -0.000447    8.217156   15.935956    ( 0.0000,  0.0000,  0.0000)
  23 Pb    -0.001799    6.164275   18.757345    ( 0.0000,  0.0000,  0.0000)
  24 Pb     7.115346    0.000000   10.000000    ( 0.0000,  0.0000,  0.0000)
  25 Pb     8.894182    1.027012   12.904828    ( 0.0000,  0.0000,  0.0000)
  26 Pb     7.122086    2.050747   15.931147    ( 0.0000,  0.0000,  0.0000)
  27 Pb     7.113406    0.000710   18.759946    ( 0.0000,  0.0000,  0.0000)
  28 Pb     5.336509    3.081035   10.000000    ( 0.0000,  0.0000,  0.0000)
  29 Pb     7.115346    4.108047   12.904828    ( 0.0000,  0.0000,  0.0000)
  30 Pb     5.335972    5.142230   15.931907    ( 0.0000,  0.0000,  0.0000)
  31 Pb     5.339668    3.081743   18.755936    ( 0.0000,  0.0000,  0.0000)
  32 Pb     3.557673    6.162070   10.000000    ( 0.0000,  0.0000,  0.0000)
  33 Pb     5.336509    7.189082   12.904828    ( 0.0000,  0.0000,  0.0000)
  34 Pb     3.554760    8.213303   15.925627    ( 0.0000,  0.0000,  0.0000)
  35 Pb     3.559411    6.162255   18.759150    ( 0.0000,  0.0000,  0.0000)
  36 O      1.780644    3.082470   20.807098    ( 0.0000,  0.0000,  0.0000)
  37 H      1.780514    3.082147   21.749617    ( 0.0000,  0.0000,  0.0000)

Unit cell:
           periodic     x           y           z      points  spacing
  1. axis:    yes   10.673019    0.000000    0.000000    52     0.1778
  2. axis:    yes   -5.336509    9.243105    0.000000    52     0.1778
  3. axis:    no     0.000000    0.000000   28.714483   160     0.1795

  Lengths:  10.673019  10.673019  28.714483
  Angles:   90.000000  90.000000 120.000000

Effective grid spacing dv^(1/3) = 0.1871

     iter     time        total  log10-change:
                         energy  eigst   dens
iter:   1 12:36:02 -12844.327815  -2.52
iter:   2 12:36:51 -12844.305217  -3.41  -2.72
iter:   3 12:37:39 -12844.292680c -3.94  -2.81
iter:   4 12:38:28 -12844.283208c -3.59  -3.28
iter:   5 12:39:16 -12844.282750c -4.57  -3.31
iter:   6 12:40:05 -12844.282031c -4.36  -3.62
iter:   7 12:40:53 -12844.281798c -4.70  -3.70
iter:   8 12:41:42 -12844.281832c -4.95  -3.80
iter:   9 12:42:30 -12844.281713c -5.53  -3.85
iter:  10 12:43:19 -12844.281731c -5.86  -4.09c
iter:  11 12:44:07 -12844.281726c -6.24  -4.17c
iter:  12 12:44:56 -12844.281734c -6.46  -4.32c
iter:  13 12:45:44 -12844.281748c -6.44  -4.43c
iter:  14 12:46:33 -12844.281754c -6.91  -4.48c
iter:  15 12:47:21 -12844.281758c -7.12  -4.57c
iter:  16 12:48:10 -12844.281760c -7.48c -4.72c

Converged after 16 iterations.

Dipole moment: (-8.407962, -14.981607, -0.176483) |e|*Ang

Energy contributions relative to reference atoms: (reference = -20423934.023574)

Kinetic:       +1471.863959
Potential:     -1416.472744
External:        +0.000000
XC:            -12895.541892
Entropy (-ST):   -0.589615
Local:           -3.836275
--------------------------
Free energy:   -12844.576567
Extrapolated:  -12844.281760

Showing only first 2 kpts
 Kpt  Band  Eigenvalues  Occupancy
  0   253     -4.25202    1.63287
  0   254     -4.13701    1.16948
  0   255     -4.08086    0.89083
  0   256     -4.05359    0.75888

  1   253     -4.66501    1.99279
  1   254     -4.60599    1.98703
  1   255     -4.48291    1.95629
  1   256     -4.44527    1.93695


Fermi level: -4.10278

No gap

Forces in eV/Ang:
  0 Pb    0.00040   -0.01570    0.12641
  1 Pb    0.00523   -0.01529   -0.13386
  2 Pb   -0.16295   -0.08537   -0.23042
  3 Pb   -0.02610   -0.07693    0.01809
  4 Pb   -0.01785    0.01785    0.10073
  5 Pb   -0.03000   -0.00489   -0.14485
  6 Pb    0.02245   -0.01257    0.02807
  7 Pb   -0.05680    0.01199   -0.00919
  8 Pb    0.00058   -0.00924    0.09086
  9 Pb   -0.02117    0.01703   -0.13865
 10 Pb    0.01390    0.01282    0.02607
 11 Pb    0.00538   -0.00139   -0.00081
 12 Pb    0.01098   -0.00596    0.08907
 13 Pb    0.00084    0.01539   -0.04893
 14 Pb    0.16661   -0.10339   -0.24012
 15 Pb    0.02301   -0.06772   -0.01205
 16 Pb    0.00918    0.01415    0.09698
 17 Pb    0.02996    0.00564   -0.11176
 18 Pb    0.02131    0.18814   -0.23513
 19 Pb    0.00572    0.00205   -0.18116
 20 Pb   -0.00798    0.00786    0.11254
 21 Pb    0.01172    0.02707   -0.07938
 22 Pb   -0.01112   -0.00899    0.01436
 23 Pb   -0.04495    0.05598    0.00424
 24 Pb   -0.02196    0.00178    0.06895
 25 Pb   -0.02740    0.00377   -0.08336
 26 Pb    0.00113    0.01474    0.01580
 27 Pb    0.00055   -0.00456    0.00701
 28 Pb    0.00111    0.00803    0.10143
 29 Pb   -0.01991   -0.00915   -0.11889
 30 Pb   -0.01139   -0.01338    0.03203
 31 Pb    0.08109    0.01733   -0.01296
 32 Pb    0.00467   -0.00696    0.08869
 33 Pb   -0.00918   -0.00508   -0.15260
 34 Pb    0.01534   -0.02045    0.00841
 35 Pb    0.04215    0.05215   -0.01719
 36 O    -0.00669   -0.01279   -0.00614
 37 H    -0.00191   -0.00282    0.96366

BFGS:    2 12:48:28   -12844.281760        0.9637
System changes: positions 

Initializing position-dependent things.

Density initialized from wave functions
                                                    
                                                    
                                                    
                                                    
                                                    
                                                    
                                                    
                      H                             
                      O                             
           Pb       Pb       Pb                     
                                                    
             PPb     PPb      PPb                   
                                                    
               PPb      Pb      PPb                 
                                                    
                PPb      PPb      Pb                
                                                    
                   Pb      Pb       Pb              
                                                    
           Pb       PPb      Pb       Pb            
                                                    
              Pb      Pb       Pb                   
                                                    
                Pb      Pb       Pb                 
                                                    
                                                    
                                                    
                                                    

Positions:
   0 Pb     0.000000    0.000000   10.000000    ( 0.0000,  0.0000,  0.0000)
   1 Pb     1.778836    1.027012   12.904828    ( 0.0000,  0.0000,  0.0000)
   2 Pb    -0.013123    2.050756   15.906415    ( 0.0000,  0.0000,  0.0000)
   3 Pb    -0.002133   -0.006336   18.735747    ( 0.0000,  0.0000,  0.0000)
   4 Pb    -1.778836    3.081035   10.000000    ( 0.0000,  0.0000,  0.0000)
   5 Pb    -0.000000    4.108047   12.904828    ( 0.0000,  0.0000,  0.0000)
   6 Pb    -1.778157    5.133256   15.937883    ( 0.0000,  0.0000,  0.0000)
   7 Pb    -1.785899    3.083419   18.758967    ( 0.0000,  0.0000,  0.0000)
   8 Pb    -3.557673    6.162070   10.000000    ( 0.0000,  0.0000,  0.0000)
   9 Pb    -1.778836    7.189082   12.904828    ( 0.0000,  0.0000,  0.0000)
  10 Pb    -3.553043    8.215202   15.927675    ( 0.0000,  0.0000,  0.0000)
  11 Pb    -3.557041    6.159788   18.759396    ( 0.0000,  0.0000,  0.0000)
  12 Pb     3.557673    0.000000   10.000000    ( 0.0000,  0.0000,  0.0000)
  13 Pb     5.336509    1.027012   12.904828    ( 0.0000,  0.0000,  0.0000)
  14 Pb     3.564844    2.041832   15.910974    ( 0.0000,  0.0000,  0.0000)
  15 Pb     3.561721   -0.005310   18.758742    ( 0.0000,  0.0000,  0.0000)
  16 Pb     1.778836    3.081035   10.000000    ( 0.0000,  0.0000,  0.0000)
  17 Pb     3.557673    4.108047   12.904828    ( 0.0000,  0.0000,  0.0000)
  18 Pb     1.781330    5.149997   15.916457    ( 0.0000,  0.0000,  0.0000)
  19 Pb     1.780868    3.082185   18.685777    ( 0.0000,  0.0000,  0.0000)
  20 Pb    -0.000000    6.162070   10.000000    ( 0.0000,  0.0000,  0.0000)
  21 Pb     1.778836    7.189082   12.904828    ( 0.0000,  0.0000,  0.0000)
  22 Pb    -0.000937    8.216775   15.936635    ( 0.0000,  0.0000,  0.0000)
  23 Pb    -0.003774    6.166723   18.757487    ( 0.0000,  0.0000,  0.0000)
  24 Pb     7.115346    0.000000   10.000000    ( 0.0000,  0.0000,  0.0000)
  25 Pb     8.894182    1.027012   12.904828    ( 0.0000,  0.0000,  0.0000)
  26 Pb     7.122130    2.051399   15.931898    ( 0.0000,  0.0000,  0.0000)
  27 Pb     7.113438    0.000505   18.760175    ( 0.0000,  0.0000,  0.0000)
  28 Pb     5.336509    3.081035   10.000000    ( 0.0000,  0.0000,  0.0000)
  29 Pb     7.115346    4.108047   12.904828    ( 0.0000,  0.0000,  0.0000)
  30 Pb     5.335439    5.141626   15.933412    ( 0.0000,  0.0000,  0.0000)
  31 Pb     5.343199    3.082508   18.755343    ( 0.0000,  0.0000,  0.0000)
  32 Pb     3.557673    6.162070   10.000000    ( 0.0000,  0.0000,  0.0000)
  33 Pb     5.336509    7.189082   12.904828    ( 0.0000,  0.0000,  0.0000)
  34 Pb     3.555416    8.212419   15.926048    ( 0.0000,  0.0000,  0.0000)
  35 Pb     3.561363    6.164651   18.758377    ( 0.0000,  0.0000,  0.0000)
  36 O      1.780468    3.082175   20.828437    ( 0.0000,  0.0000,  0.0000)
  37 H      1.780423    3.082010   21.785749    ( 0.0000,  0.0000,  0.0000)

Unit cell:
           periodic     x           y           z      points  spacing
  1. axis:    yes   10.673019    0.000000    0.000000    52     0.1778
  2. axis:    yes   -5.336509    9.243105    0.000000    52     0.1778
  3. axis:    no     0.000000    0.000000   28.714483   160     0.1795

  Lengths:  10.673019  10.673019  28.714483
  Angles:   90.000000  90.000000 120.000000

Effective grid spacing dv^(1/3) = 0.1871

     iter     time        total  log10-change:
                         energy  eigst   dens
iter:   1 12:49:49 -12844.350757  -2.34
iter:   2 12:50:38 -12844.333573  -3.29  -2.80
iter:   3 12:51:26 -12844.324740c -3.82  -2.86
iter:   4 12:52:15 -12844.315800c -3.56  -3.20
iter:   5 12:53:04 -12844.315588c -4.64  -3.31
iter:   6 12:53:53 -12844.314889c -4.45  -3.57
iter:   7 12:54:41 -12844.314710c -4.72  -3.67
iter:   8 12:55:30 -12844.314775c -4.98  -3.80
iter:   9 12:56:19 -12844.314664c -5.51  -3.84
iter:  10 12:57:07 -12844.314696c -5.79  -4.10c
iter:  11 12:57:56 -12844.314690c -6.43  -4.12c
iter:  12 12:58:44 -12844.314703c -6.27  -4.23c
iter:  13 12:59:33 -12844.314709c -6.55  -4.40c
iter:  14 13:00:22 -12844.314716c -6.86  -4.49c
iter:  15 13:01:11 -12844.314724c -7.03  -4.59c
iter:  16 13:01:59 -12844.314724c -7.49c -4.82c

Converged after 16 iterations.

Dipole moment: (-8.384414, -14.501027, -0.221157) |e|*Ang

Energy contributions relative to reference atoms: (reference = -20423934.023574)

Kinetic:       +1469.555540
Potential:     -1414.639993
External:        +0.000000
XC:            -12895.103614
Entropy (-ST):   -0.589974
Local:           -3.831670
--------------------------
Free energy:   -12844.609712
Extrapolated:  -12844.314724

Showing only first 2 kpts
 Kpt  Band  Eigenvalues  Occupancy
  0   253     -4.27613    1.63224
  0   254     -4.16128    1.16924
  0   255     -4.10540    0.89193
  0   256     -4.07615    0.75060

  1   253     -4.68824    1.99271
  1   254     -4.63061    1.98707
  1   255     -4.50690    1.95615
  1   256     -4.47043    1.93746


Fermi level: -4.12710

No gap

Forces in eV/Ang:
  0 Pb    0.00010   -0.01500    0.12445
  1 Pb    0.00517   -0.01632   -0.13629
  2 Pb   -0.15240   -0.07216   -0.21165
  3 Pb   -0.02520   -0.07190    0.02173
  4 Pb   -0.01735    0.01716    0.09939
  5 Pb   -0.03109   -0.00421   -0.14768
  6 Pb    0.01911   -0.00909    0.02343
  7 Pb   -0.03904    0.00725   -0.00189
  8 Pb    0.00063   -0.00930    0.08976
  9 Pb   -0.02249    0.01591   -0.13598
 10 Pb    0.01204    0.00914    0.02028
 11 Pb    0.00501   -0.00115    0.00389
 12 Pb    0.01126   -0.00505    0.08733
 13 Pb    0.00222    0.01460   -0.05426
 14 Pb    0.14621   -0.09583   -0.22554
 15 Pb    0.01719   -0.04862   -0.00488
 16 Pb    0.00951    0.01394    0.09666
 17 Pb    0.03083    0.00617   -0.11415
 18 Pb    0.02757    0.16709   -0.22754
 19 Pb    0.00591    0.00200    0.31085
 20 Pb   -0.00715    0.00780    0.11099
 21 Pb    0.01163    0.02834   -0.08447
 22 Pb   -0.00801   -0.00863    0.01318
 23 Pb   -0.03983    0.05236    0.00971
 24 Pb   -0.02214    0.00191    0.06826
 25 Pb   -0.02859    0.00323   -0.08846
 26 Pb    0.00161    0.01105    0.01356
 27 Pb    0.00050   -0.00392    0.00868
 28 Pb    0.00054    0.00733    0.09956
 29 Pb   -0.01964   -0.00743   -0.11620
 30 Pb   -0.00622   -0.00994    0.02477
 31 Pb    0.07621    0.01558   -0.00686
 32 Pb    0.00394   -0.00710    0.08676
 33 Pb   -0.00731   -0.00615   -0.14992
 34 Pb    0.01433   -0.01842    0.00738
 35 Pb    0.03036    0.03943   -0.01054
 36 O    -0.00827   -0.01539    0.25493
 37 H    -0.00565   -0.01037    0.15734

BFGS:    3 13:02:18   -12844.314724        0.3109
System changes: positions 

Initializing position-dependent things.

Density initialized from wave functions
                                                    
                                                    
                                                    
                                                    
                                                    
                                                    
                                                    
                      H                             
                      O                             
           Pb       Pb       Pb                     
                                                    
             Pb      PPb      PPb                   
                                                    
               PPb      Pb      PPb                 
                                                    
                PPb      PPb      Pb                
                                                    
                   Pb      Pb       Pb              
                                                    
           Pb       PPb      Pb       Pb            
                                                    
              Pb      Pb       Pb                   
                                                    
                Pb      Pb       Pb                 
                                                    
                                                    
                                                    
                                                    

Positions:
   0 Pb     0.000000    0.000000   10.000000    ( 0.0000,  0.0000,  0.0000)
   1 Pb     1.778836    1.027012   12.904828    ( 0.0000,  0.0000,  0.0000)
   2 Pb    -0.019039    2.047746   15.898097    ( 0.0000,  0.0000,  0.0000)
   3 Pb    -0.003100   -0.009148   18.736499    ( 0.0000,  0.0000,  0.0000)
   4 Pb    -1.778836    3.081035   10.000000    ( 0.0000,  0.0000,  0.0000)
   5 Pb    -0.000000    4.108047   12.904828    ( 0.0000,  0.0000,  0.0000)
   6 Pb    -1.777370    5.132839   15.938906    ( 0.0000,  0.0000,  0.0000)
   7 Pb    -1.787791    3.083799   18.758747    ( 0.0000,  0.0000,  0.0000)
   8 Pb    -3.557673    6.162070   10.000000    ( 0.0000,  0.0000,  0.0000)
   9 Pb    -1.778836    7.189082   12.904828    ( 0.0000,  0.0000,  0.0000)
  10 Pb    -3.552553    8.215622   15.928608    ( 0.0000,  0.0000,  0.0000)
  11 Pb    -3.556847    6.159740   18.759394    ( 0.0000,  0.0000,  0.0000)
  12 Pb     3.557673    0.000000   10.000000    ( 0.0000,  0.0000,  0.0000)
  13 Pb     5.336509    1.027012   12.904828    ( 0.0000,  0.0000,  0.0000)
  14 Pb     3.570773    2.038098   15.902228    ( 0.0000,  0.0000,  0.0000)
  15 Pb     3.562503   -0.007593   18.758412    ( 0.0000,  0.0000,  0.0000)
  16 Pb     1.778836    3.081035   10.000000    ( 0.0000,  0.0000,  0.0000)
  17 Pb     3.557673    4.108047   12.904828    ( 0.0000,  0.0000,  0.0000)
  18 Pb     1.782189    5.156727   15.907788    ( 0.0000,  0.0000,  0.0000)
  19 Pb     1.781053    3.082216   18.679396    ( 0.0000,  0.0000,  0.0000)
  20 Pb    -0.000000    6.162070   10.000000    ( 0.0000,  0.0000,  0.0000)
  21 Pb     1.778836    7.189082   12.904828    ( 0.0000,  0.0000,  0.0000)
  22 Pb    -0.001298    8.216447   15.937188    ( 0.0000,  0.0000,  0.0000)
  23 Pb    -0.005386    6.168777   18.757741    ( 0.0000,  0.0000,  0.0000)
  24 Pb     7.115346    0.000000   10.000000    ( 0.0000,  0.0000,  0.0000)
  25 Pb     8.894182    1.027012   12.904828    ( 0.0000,  0.0000,  0.0000)
  26 Pb     7.122180    2.051888   15.932490    ( 0.0000,  0.0000,  0.0000)
  27 Pb     7.113463    0.000341   18.760430    ( 0.0000,  0.0000,  0.0000)
  28 Pb     5.336509    3.081035   10.000000    ( 0.0000,  0.0000,  0.0000)
  29 Pb     7.115346    4.108047   12.904828    ( 0.0000,  0.0000,  0.0000)
  30 Pb     5.335091    5.141176   15.934547    ( 0.0000,  0.0000,  0.0000)
  31 Pb     5.346174    3.083138   18.754964    ( 0.0000,  0.0000,  0.0000)
  32 Pb     3.557673    6.162070   10.000000    ( 0.0000,  0.0000,  0.0000)
  33 Pb     5.336509    7.189082   12.904828    ( 0.0000,  0.0000,  0.0000)
  34 Pb     3.555969    8.211688   15.926380    ( 0.0000,  0.0000,  0.0000)
  35 Pb     3.562790    6.166443   18.757851    ( 0.0000,  0.0000,  0.0000)
  36 O      1.780249    3.081790   20.843278    ( 0.0000,  0.0000,  0.0000)
  37 H      1.780268    3.081738   21.805088    ( 0.0000,  0.0000,  0.0000)

Unit cell:
           periodic     x           y           z      points  spacing
  1. axis:    yes   10.673019    0.000000    0.000000    52     0.1778
  2. axis:    yes   -5.336509    9.243105    0.000000    52     0.1778
  3. axis:    no     0.000000    0.000000   28.714483   160     0.1795

  Lengths:  10.673019  10.673019  28.714483
  Angles:   90.000000  90.000000 120.000000

Effective grid spacing dv^(1/3) = 0.1871

     iter     time        total  log10-change:
                         energy  eigst   dens
iter:   1 13:03:38 -12844.332003  -2.82
iter:   2 13:04:27 -12844.329336  -3.82  -3.20
iter:   3 13:05:15 -12844.327960c -4.41  -3.23
iter:   4 13:06:04 -12844.326268c -4.28  -3.47
iter:   5 13:06:52 -12844.326344c -5.36  -3.67
iter:   6 13:07:41 -12844.326243c -5.32  -3.86
iter:   7 13:08:29 -12844.326207c -5.38  -3.96
iter:   8 13:09:17 -12844.326246c -5.85  -4.12c
iter:   9 13:10:06 -12844.326221c -6.20  -4.16c
iter:  10 13:10:54 -12844.326231c -6.56  -4.41c
iter:  11 13:11:42 -12844.326227c -7.05  -4.44c
iter:  12 13:12:31 -12844.326227c -6.84  -4.52c
iter:  13 13:13:19 -12844.326228c -7.50c -4.71c

Converged after 13 iterations.

Dipole moment: (-8.376184, -14.129978, -0.243904) |e|*Ang

Energy contributions relative to reference atoms: (reference = -20423934.023574)

Kinetic:       +1468.544419
Potential:     -1413.818846
External:        +0.000000
XC:            -12894.924064
Entropy (-ST):   -0.589749
Local:           -3.832862
--------------------------
Free energy:   -12844.621102
Extrapolated:  -12844.326228

Showing only first 2 kpts
 Kpt  Band  Eigenvalues  Occupancy
  0   253     -4.28752    1.63149
  0   254     -4.17289    1.16909
  0   255     -4.11754    0.89437
  0   256     -4.08565    0.74059

  1   253     -4.69980    1.99271
  1   254     -4.64063    1.98686
  1   255     -4.51933    1.95649
  1   256     -4.48294    1.93798


Fermi level: -4.13875

No gap

Forces in eV/Ang:
  0 Pb   -0.00163   -0.01670    0.12477
  1 Pb    0.00508   -0.02156   -0.13872
  2 Pb   -0.13126   -0.05848   -0.18462
  3 Pb   -0.02469   -0.06531    0.01893
  4 Pb   -0.01995    0.01633    0.09976
  5 Pb   -0.03565   -0.00136   -0.15024
  6 Pb    0.01707   -0.00615    0.01994
  7 Pb   -0.02442    0.00192   -0.00081
  8 Pb    0.00059   -0.00937    0.09080
  9 Pb   -0.02357    0.01542   -0.13343
 10 Pb    0.00887    0.00678    0.01601
 11 Pb    0.00421   -0.00067    0.00492
 12 Pb    0.01340   -0.00652    0.08803
 13 Pb    0.00815    0.01113   -0.06039
 14 Pb    0.12230   -0.08307   -0.20175
 15 Pb    0.01282   -0.03210   -0.00416
 16 Pb    0.00992    0.01378    0.09587
 17 Pb    0.03547    0.00885   -0.11657
 18 Pb    0.02897    0.14023   -0.20696
 19 Pb    0.00526   -0.00034    0.53991
 20 Pb   -0.00771    0.01052    0.11113
 21 Pb    0.01183    0.03490   -0.08969
 22 Pb   -0.00399   -0.00837    0.01099
 23 Pb   -0.03322    0.04888    0.00861
 24 Pb   -0.02255    0.00214    0.06811
 25 Pb   -0.03433   -0.00025   -0.09354
 26 Pb    0.00186    0.00686    0.01041
 27 Pb    0.00107   -0.00346    0.00637
 28 Pb    0.00295    0.00630    0.10001
 29 Pb   -0.01987   -0.00615   -0.11347
 30 Pb   -0.00224   -0.00719    0.01861
 31 Pb    0.07025    0.01283   -0.00680
 32 Pb    0.00452   -0.00488    0.08710
 33 Pb   -0.00601   -0.00703   -0.14675
 34 Pb    0.01413   -0.01581    0.00547
 35 Pb    0.02009    0.02936   -0.00980
 36 O    -0.00220   -0.00235    0.24070
 37 H    -0.00280   -0.00551   -0.06462

BFGS:    4 13:13:38   -12844.326228        0.5399
System changes: positions 

Initializing position-dependent things.

Density initialized from wave functions
                                                    
                                                    
                                                    
                                                    
                                                    
                                                    
                                                    
                      H                             
                      O                             
           Pb       Pb       Pb                     
                                                    
             Pb      PPb      PPb                   
                                                    
               PPb      Pb      PPb                 
                                                    
                PPb      PPb      Pb                
                                                    
                   Pb      Pb       Pb              
                                                    
           Pb       PPb      Pb       Pb            
                                                    
              Pb      Pb       Pb                   
                                                    
                Pb      Pb       Pb                 
                                                    
                                                    
                                                    
                                                    

Positions:
   0 Pb     0.000000    0.000000   10.000000    ( 0.0000,  0.0000,  0.0000)
   1 Pb     1.778836    1.027012   12.904828    ( 0.0000,  0.0000,  0.0000)
   2 Pb    -0.030053    2.042332   15.882581    ( 0.0000,  0.0000,  0.0000)
   3 Pb    -0.004991   -0.014473   18.737945    ( 0.0000,  0.0000,  0.0000)
   4 Pb    -1.778836    3.081035   10.000000    ( 0.0000,  0.0000,  0.0000)
   5 Pb    -0.000000    4.108047   12.904828    ( 0.0000,  0.0000,  0.0000)
   6 Pb    -1.775906    5.132138   15.940755    ( 0.0000,  0.0000,  0.0000)
   7 Pb    -1.790885    3.084340   18.758425    ( 0.0000,  0.0000,  0.0000)
   8 Pb    -3.557673    6.162070   10.000000    ( 0.0000,  0.0000,  0.0000)
   9 Pb    -1.778836    7.189082   12.904828    ( 0.0000,  0.0000,  0.0000)
  10 Pb    -3.551693    8.216344   15.930242    ( 0.0000,  0.0000,  0.0000)
  11 Pb    -3.556489    6.159662   18.759499    ( 0.0000,  0.0000,  0.0000)
  12 Pb     3.557673    0.000000   10.000000    ( 0.0000,  0.0000,  0.0000)
  13 Pb     5.336509    1.027012   12.904828    ( 0.0000,  0.0000,  0.0000)
  14 Pb     3.581605    2.031134   15.885718    ( 0.0000,  0.0000,  0.0000)
  15 Pb     3.563851   -0.011393   18.757861    ( 0.0000,  0.0000,  0.0000)
  16 Pb     1.778836    3.081035   10.000000    ( 0.0000,  0.0000,  0.0000)
  17 Pb     3.557673    4.108047   12.904828    ( 0.0000,  0.0000,  0.0000)
  18 Pb     1.784027    5.169051   15.891257    ( 0.0000,  0.0000,  0.0000)
  19 Pb     1.781422    3.082233   18.683581    ( 0.0000,  0.0000,  0.0000)
  20 Pb    -0.000000    6.162070   10.000000    ( 0.0000,  0.0000,  0.0000)
  21 Pb     1.778836    7.189082   12.904828    ( 0.0000,  0.0000,  0.0000)
  22 Pb    -0.001863    8.215807   15.938189    ( 0.0000,  0.0000,  0.0000)
  23 Pb    -0.008325    6.172700   18.758274    ( 0.0000,  0.0000,  0.0000)
  24 Pb     7.115346    0.000000   10.000000    ( 0.0000,  0.0000,  0.0000)
  25 Pb     8.894182    1.027012   12.904828    ( 0.0000,  0.0000,  0.0000)
  26 Pb     7.122292    2.052694   15.933528    ( 0.0000,  0.0000,  0.0000)
  27 Pb     7.113525    0.000038   18.760904    ( 0.0000,  0.0000,  0.0000)
  28 Pb     5.336509    3.081035   10.000000    ( 0.0000,  0.0000,  0.0000)
  29 Pb     7.115346    4.108047   12.904828    ( 0.0000,  0.0000,  0.0000)
  30 Pb     5.334580    5.140406   15.936509    ( 0.0000,  0.0000,  0.0000)
  31 Pb     5.351838    3.084282   18.754282    ( 0.0000,  0.0000,  0.0000)
  32 Pb     3.557673    6.162070   10.000000    ( 0.0000,  0.0000,  0.0000)
  33 Pb     5.336509    7.189082   12.904828    ( 0.0000,  0.0000,  0.0000)
  34 Pb     3.557052    8.210336   15.926953    ( 0.0000,  0.0000,  0.0000)
  35 Pb     3.565167    6.169535   18.756903    ( 0.0000,  0.0000,  0.0000)
  36 O      1.779944    3.081307   20.866694    ( 0.0000,  0.0000,  0.0000)
  37 H      1.780016    3.081283   21.832181    ( 0.0000,  0.0000,  0.0000)

Unit cell:
           periodic     x           y           z      points  spacing
  1. axis:    yes   10.673019    0.000000    0.000000    52     0.1778
  2. axis:    yes   -5.336509    9.243105    0.000000    52     0.1778
  3. axis:    no     0.000000    0.000000   28.714483   160     0.1795

  Lengths:  10.673019  10.673019  28.714483
  Angles:   90.000000  90.000000 120.000000

Effective grid spacing dv^(1/3) = 0.1871

     iter     time        total  log10-change:
                         energy  eigst   dens
iter:   1 13:14:59 -12844.355813  -2.40
iter:   2 13:15:47 -12844.351121  -3.41  -2.98
iter:   3 13:16:36 -12844.348030c -4.13  -3.02
iter:   4 13:17:25 -12844.345636c -3.98  -3.31
iter:   5 13:18:13 -12844.345710c -4.99  -3.57
iter:   6 13:19:02 -12844.345759c -5.07  -3.69
iter:   7 13:19:51 -12844.345815c -4.96  -3.82
iter:   8 13:20:40 -12844.345877c -5.58  -3.95
iter:   9 13:21:28 -12844.345820c -5.77  -4.04c
iter:  10 13:22:17 -12844.345839c -6.27  -4.15c
iter:  11 13:23:06 -12844.345841c -6.72  -4.29c
iter:  12 13:23:54 -12844.345831c -6.50  -4.37c
iter:  13 13:24:43 -12844.345826c -6.94  -4.65c
iter:  14 13:25:31 -12844.345822c -7.38  -4.71c
iter:  15 13:26:20 -12844.345826c -7.29  -4.82c
iter:  16 13:27:08 -12844.345827c -7.65c -5.10c

Converged after 16 iterations.

Dipole moment: (-8.367959, -13.473905, -0.264567) |e|*Ang

Energy contributions relative to reference atoms: (reference = -20423934.023574)

Kinetic:       +1467.591923
Potential:     -1413.066440
External:        +0.000000
XC:            -12894.747412
Entropy (-ST):   -0.588602
Local:           -3.829596
--------------------------
Free energy:   -12844.640128
Extrapolated:  -12844.345827

Showing only first 2 kpts
 Kpt  Band  Eigenvalues  Occupancy
  0   253     -4.29707    1.62972
  0   254     -4.18301    1.16903
  0   255     -4.12932    0.90252
  0   256     -4.09066    0.71686

  1   253     -4.70879    1.99263
  1   254     -4.64506    1.98610
  1   255     -4.53208    1.95758
  1   256     -4.49456    1.93886


Fermi level: -4.14888

No gap

Forces in eV/Ang:
  0 Pb   -0.00055   -0.01354    0.12492
  1 Pb    0.00500   -0.02083   -0.14502
  2 Pb   -0.09243   -0.04735   -0.14101
  3 Pb   -0.02212   -0.05592    0.01884
  4 Pb   -0.01684    0.01568    0.10048
  5 Pb   -0.03585   -0.00118   -0.15598
  6 Pb    0.01435   -0.00209    0.01741
  7 Pb   -0.00462   -0.00271    0.00275
  8 Pb    0.00070   -0.00945    0.09270
  9 Pb   -0.02457    0.01400   -0.13277
 10 Pb    0.00606    0.00395    0.01226
 11 Pb    0.00323   -0.00007    0.00783
 12 Pb    0.01263   -0.00373    0.08987
 13 Pb    0.00835    0.01110   -0.06542
 14 Pb    0.09468   -0.05605   -0.15621
 15 Pb    0.00440   -0.01165   -0.00082
 16 Pb    0.00973    0.01379    0.09740
 17 Pb    0.03493    0.00823   -0.12315
 18 Pb    0.01818    0.10170   -0.15904
 19 Pb    0.00650    0.00185    0.62033
 20 Pb   -0.00579    0.00825    0.11167
 21 Pb    0.01098    0.03437   -0.09294
 22 Pb   -0.00029   -0.00866    0.01176
 23 Pb   -0.02667    0.04464    0.00980
 24 Pb   -0.02281    0.00241    0.06515
 25 Pb   -0.03420    0.00070   -0.09678
 26 Pb    0.00266    0.00313    0.00958
 27 Pb    0.00212   -0.00341    0.00634
 28 Pb    0.00041    0.00552    0.10174
 29 Pb   -0.01943   -0.00456   -0.11292
 30 Pb    0.00302   -0.00411    0.01293
 31 Pb    0.06328    0.01176   -0.00423
 32 Pb    0.00229   -0.00751    0.08730
 33 Pb   -0.00365   -0.00812   -0.14560
 34 Pb    0.01373   -0.01398    0.00642
 35 Pb    0.00867    0.01594   -0.00584
 36 O    -0.00884   -0.01123    0.30197
 37 H    -0.00269   -0.00506   -0.24739

BFGS:    5 13:27:27   -12844.345827        0.6204
System changes: positions 

Initializing position-dependent things.

Density initialized from wave functions
                                                    
                                                    
                                                    
                                                    
                                                    
                                                    
                                                    
                      H                             
                      O                             
           Pb       Pb       Pb                     
                                                    
             Pb      PPb      PPb                   
                                                    
               PPb      Pb      PPb                 
                                                    
                 Pb       Pb      Pb                
                Pb       Pb       Pb                
                                                    
                   Pb      Pb       Pb              
                                                    
           Pb       PPb      Pb       Pb            
                                                    
              Pb      Pb       Pb                   
                                                    
                Pb      Pb       Pb                 
                                                    
                                                    
                                                    
                                                    

Positions:
   0 Pb     0.000000    0.000000   10.000000    ( 0.0000,  0.0000,  0.0000)
   1 Pb     1.778836    1.027012   12.904828    ( 0.0000,  0.0000,  0.0000)
   2 Pb    -0.058018    2.028362   15.842728    ( 0.0000,  0.0000,  0.0000)
   3 Pb    -0.009994   -0.028413   18.741905    ( 0.0000,  0.0000,  0.0000)
   4 Pb    -1.778836    3.081035   10.000000    ( 0.0000,  0.0000,  0.0000)
   5 Pb    -0.000000    4.108047   12.904828    ( 0.0000,  0.0000,  0.0000)
   6 Pb    -1.772103    5.130476   15.945569    ( 0.0000,  0.0000,  0.0000)
   7 Pb    -1.798084    3.085517   18.757809    ( 0.0000,  0.0000,  0.0000)
   8 Pb    -3.557673    6.162070   10.000000    ( 0.0000,  0.0000,  0.0000)
   9 Pb    -1.778836    7.189082   12.904828    ( 0.0000,  0.0000,  0.0000)
  10 Pb    -3.549520    8.218120   15.934395    ( 0.0000,  0.0000,  0.0000)
  11 Pb    -3.555568    6.159481   18.760007    ( 0.0000,  0.0000,  0.0000)
  12 Pb     3.557673    0.000000   10.000000    ( 0.0000,  0.0000,  0.0000)
  13 Pb     5.336509    1.027012   12.904828    ( 0.0000,  0.0000,  0.0000)
  14 Pb     3.609425    2.013570   15.843186    ( 0.0000,  0.0000,  0.0000)
  15 Pb     3.567034   -0.020455   18.756609    ( 0.0000,  0.0000,  0.0000)
  16 Pb     1.778836    3.081035   10.000000    ( 0.0000,  0.0000,  0.0000)
  17 Pb     3.557673    4.108047   12.904828    ( 0.0000,  0.0000,  0.0000)
  18 Pb     1.788639    5.200416   15.848676    ( 0.0000,  0.0000,  0.0000)
  19 Pb     1.782500    3.082396   18.710701    ( 0.0000,  0.0000,  0.0000)
  20 Pb    -0.000000    6.162070   10.000000    ( 0.0000,  0.0000,  0.0000)
  21 Pb     1.778836    7.189082   12.904828    ( 0.0000,  0.0000,  0.0000)
  22 Pb    -0.003177    8.214060   15.940902    ( 0.0000,  0.0000,  0.0000)
  23 Pb    -0.015916    6.183092   18.759846    ( 0.0000,  0.0000,  0.0000)
  24 Pb     7.115346    0.000000   10.000000    ( 0.0000,  0.0000,  0.0000)
  25 Pb     8.894182    1.027012   12.904828    ( 0.0000,  0.0000,  0.0000)
  26 Pb     7.122638    2.054653   15.936249    ( 0.0000,  0.0000,  0.0000)
  27 Pb     7.113742   -0.000772   18.762224    ( 0.0000,  0.0000,  0.0000)
  28 Pb     5.336509    3.081035   10.000000    ( 0.0000,  0.0000,  0.0000)
  29 Pb     7.115346    4.108047   12.904828    ( 0.0000,  0.0000,  0.0000)
  30 Pb     5.333514    5.138509   15.941437    ( 0.0000,  0.0000,  0.0000)
  31 Pb     5.366809    3.087305   18.752625    ( 0.0000,  0.0000,  0.0000)
  32 Pb     3.557673    6.162070   10.000000    ( 0.0000,  0.0000,  0.0000)
  33 Pb     5.336509    7.189082   12.904828    ( 0.0000,  0.0000,  0.0000)
  34 Pb     3.559965    8.206779   15.928512    ( 0.0000,  0.0000,  0.0000)
  35 Pb     3.570897    6.177100   18.754590    ( 0.0000,  0.0000,  0.0000)
  36 O      1.778784    3.079536   20.925617    ( 0.0000,  0.0000,  0.0000)
  37 H      1.779314    3.080015   21.892521    ( 0.0000,  0.0000,  0.0000)

Unit cell:
           periodic     x           y           z      points  spacing
  1. axis:    yes   10.673019    0.000000    0.000000    52     0.1778
  2. axis:    yes   -5.336509    9.243105    0.000000    52     0.1778
  3. axis:    no     0.000000    0.000000   28.714483   160     0.1795

  Lengths:  10.673019  10.673019  28.714483
  Angles:   90.000000  90.000000 120.000000

Effective grid spacing dv^(1/3) = 0.1871

     iter     time        total  log10-change:
                         energy  eigst   dens
iter:   1 13:28:48 -12844.397016  -1.62
iter:   2 13:29:36 -12844.389159  -2.62  -2.73
iter:   3 13:30:24 -12844.381400c -3.33  -2.75
iter:   4 13:31:13 -12844.372708c -3.34  -2.96
iter:   5 13:32:01 -12844.372623c -4.07  -3.23
iter:   6 13:32:49 -12844.373315c -4.09  -3.33
iter:   7 13:33:37 -12844.374495c -4.05  -3.49
iter:   8 13:34:26 -12844.373667c -4.73  -3.45
iter:   9 13:35:14 -12844.373663c -5.03  -3.71
iter:  10 13:36:02 -12844.373693c -5.58  -3.82
iter:  11 13:36:50 -12844.373678c -5.76  -3.98
iter:  12 13:37:39 -12844.373638c -5.87  -4.10c
iter:  13 13:38:27 -12844.373617c -6.35  -4.22c
iter:  14 13:39:15 -12844.373610c -6.37  -4.29c
iter:  15 13:40:04 -12844.373616c -6.64  -4.46c
iter:  16 13:40:52 -12844.373615c -7.06  -4.62c
iter:  17 13:41:40 -12844.373608c -7.16  -4.71c
iter:  18 13:42:29 -12844.373605c -7.29  -4.86c
iter:  19 13:43:17 -12844.373607c -7.84c -5.01c

Converged after 19 iterations.

Dipole moment: (-8.377602, -11.821146, -0.304830) |e|*Ang

Energy contributions relative to reference atoms: (reference = -20423934.023574)

Kinetic:       +1466.196999
Potential:     -1411.943531
External:        +0.000000
XC:            -12894.507117
Entropy (-ST):   -0.585139
Local:           -3.827389
--------------------------
Free energy:   -12844.666176
Extrapolated:  -12844.373607

Showing only first 2 kpts
 Kpt  Band  Eigenvalues  Occupancy
  0   253     -4.31509    1.62883
  0   254     -4.20248    1.17465
  0   255     -4.15348    0.93153
  0   256     -4.09351    0.64740

  1   253     -4.72246    1.99228
  1   254     -4.64365    1.98309
  1   255     -4.55861    1.96087
  1   256     -4.51725    1.94141


Fermi level: -4.16719

No gap

Forces in eV/Ang:
  0 Pb   -0.00174   -0.01283    0.12542
  1 Pb    0.00408   -0.02655   -0.16217
  2 Pb    0.03211   -0.02092   -0.01910
  3 Pb   -0.01024   -0.01259    0.00555
  4 Pb   -0.01746    0.01352    0.10144
  5 Pb   -0.04190    0.00277   -0.17147
  6 Pb    0.01204    0.00642    0.00782
  7 Pb    0.03781   -0.01489    0.00059
  8 Pb    0.00060   -0.00960    0.09484
  9 Pb   -0.02676    0.01131   -0.13115
 10 Pb   -0.00462    0.00322    0.00114
 11 Pb    0.00065    0.00162    0.01948
 12 Pb    0.01490   -0.00355    0.09467
 13 Pb    0.02121    0.00381   -0.08799
 14 Pb    0.01699    0.04024   -0.02369
 15 Pb   -0.01424    0.03479   -0.00375
 16 Pb    0.00976    0.01372    0.10051
 17 Pb    0.04023    0.01097   -0.14112
 18 Pb   -0.00808   -0.00669   -0.02273
 19 Pb    0.00820    0.00294    0.75903
 20 Pb   -0.00467    0.01015    0.11206
 21 Pb    0.00967    0.04651   -0.11009
 22 Pb    0.01224   -0.00991    0.00862
 23 Pb   -0.00219    0.02707   -0.00056
 24 Pb   -0.02370    0.00324    0.05500
 25 Pb   -0.04499   -0.00459   -0.11330
 26 Pb    0.00434   -0.00847    0.00166
 27 Pb    0.00509   -0.00259    0.00540
 28 Pb    0.00209    0.00346    0.10587
 29 Pb   -0.01925   -0.00099   -0.11099
 30 Pb    0.01210    0.00129   -0.00518
 31 Pb    0.02767    0.00268   -0.00660
 32 Pb    0.00096   -0.00728    0.08793
 33 Pb    0.00136   -0.01056   -0.14166
 34 Pb    0.01434   -0.00594    0.00404
 35 Pb   -0.01470   -0.00946   -0.00592
 36 O     0.00028    0.00815    0.00670
 37 H    -0.00033   -0.00342   -0.33197

BFGS:    6 13:43:36   -12844.373607        0.7591
System changes: positions 

Initializing position-dependent things.

Density initialized from wave functions
                                                    
                                                    
                                                    
                                                    
                                                    
                                                    
                                                    
                      H                             
                      O                             
           Pb       Pb       Pb                     
                                                    
             Pb      PPb      PPb                   
                                                    
               PPb      Pb      PPb                 
                                                    
                 Pb       Pb      Pb                
                Pb       Pb       Pb                
                                                    
                   Pb      Pb       Pb              
                                                    
           Pb       PPb      Pb       Pb            
                                                    
              Pb      Pb       Pb                   
                                                    
                Pb      Pb       Pb                 
                                                    
                                                    
                                                    
                                                    

Positions:
   0 Pb     0.000000    0.000000   10.000000    ( 0.0000,  0.0000,  0.0000)
   1 Pb     1.778836    1.027012   12.904828    ( 0.0000,  0.0000,  0.0000)
   2 Pb    -0.061762    2.026024   15.836487    ( 0.0000,  0.0000,  0.0000)
   3 Pb    -0.010888   -0.030664   18.742612    ( 0.0000,  0.0000,  0.0000)
   4 Pb    -1.778836    3.081035   10.000000    ( 0.0000,  0.0000,  0.0000)
   5 Pb    -0.000000    4.108047   12.904828    ( 0.0000,  0.0000,  0.0000)
   6 Pb    -1.771373    5.130337   15.946359    ( 0.0000,  0.0000,  0.0000)
   7 Pb    -1.798505    3.085453   18.757775    ( 0.0000,  0.0000,  0.0000)
   8 Pb    -3.557673    6.162070   10.000000    ( 0.0000,  0.0000,  0.0000)
   9 Pb    -1.778836    7.189082   12.904828    ( 0.0000,  0.0000,  0.0000)
  10 Pb    -3.549266    8.218415   15.934981    ( 0.0000,  0.0000,  0.0000)
  11 Pb    -3.555419    6.159477   18.760426    ( 0.0000,  0.0000,  0.0000)
  12 Pb     3.557673    0.000000   10.000000    ( 0.0000,  0.0000,  0.0000)
  13 Pb     5.336509    1.027012   12.904828    ( 0.0000,  0.0000,  0.0000)
  14 Pb     3.613774    2.011522   15.836449    ( 0.0000,  0.0000,  0.0000)
  15 Pb     3.567271   -0.021193   18.756416    ( 0.0000,  0.0000,  0.0000)
  16 Pb     1.778836    3.081035   10.000000    ( 0.0000,  0.0000,  0.0000)
  17 Pb     3.557673    4.108047   12.904828    ( 0.0000,  0.0000,  0.0000)
  18 Pb     1.789293    5.204962   15.841892    ( 0.0000,  0.0000,  0.0000)
  19 Pb     1.782798    3.082486   18.732921    ( 0.0000,  0.0000,  0.0000)
  20 Pb    -0.000000    6.162070   10.000000    ( 0.0000,  0.0000,  0.0000)
  21 Pb     1.778836    7.189082   12.904828    ( 0.0000,  0.0000,  0.0000)
  22 Pb    -0.003185    8.213653   15.941414    ( 0.0000,  0.0000,  0.0000)
  23 Pb    -0.017063    6.185024   18.760116    ( 0.0000,  0.0000,  0.0000)
  24 Pb     7.115346    0.000000   10.000000    ( 0.0000,  0.0000,  0.0000)
  25 Pb     8.894182    1.027012   12.904828    ( 0.0000,  0.0000,  0.0000)
  26 Pb     7.122756    2.054808   15.936655    ( 0.0000,  0.0000,  0.0000)
  27 Pb     7.113844   -0.000926   18.762537    ( 0.0000,  0.0000,  0.0000)
  28 Pb     5.336509    3.081035   10.000000    ( 0.0000,  0.0000,  0.0000)
  29 Pb     7.115346    4.108047   12.904828    ( 0.0000,  0.0000,  0.0000)
  30 Pb     5.333558    5.138261   15.942040    ( 0.0000,  0.0000,  0.0000)
  31 Pb     5.369431    3.087787   18.752323    ( 0.0000,  0.0000,  0.0000)
  32 Pb     3.557673    6.162070   10.000000    ( 0.0000,  0.0000,  0.0000)
  33 Pb     5.336509    7.189082   12.904828    ( 0.0000,  0.0000,  0.0000)
  34 Pb     3.560608    8.206166   15.928785    ( 0.0000,  0.0000,  0.0000)
  35 Pb     3.571470    6.178018   18.754199    ( 0.0000,  0.0000,  0.0000)
  36 O      1.778576    3.079296   20.930059    ( 0.0000,  0.0000,  0.0000)
  37 H      1.779174    3.079715   21.894014    ( 0.0000,  0.0000,  0.0000)

Unit cell:
           periodic     x           y           z      points  spacing
  1. axis:    yes   10.673019    0.000000    0.000000    52     0.1778
  2. axis:    yes   -5.336509    9.243105    0.000000    52     0.1778
  3. axis:    no     0.000000    0.000000   28.714483   160     0.1795

  Lengths:  10.673019  10.673019  28.714483
  Angles:   90.000000  90.000000 120.000000

Effective grid spacing dv^(1/3) = 0.1871

     iter     time        total  log10-change:
                         energy  eigst   dens
iter:   1 13:44:56 -12844.389810  -2.89
iter:   2 13:45:44 -12844.389784  -3.87  -3.56
iter:   3 13:46:33 -12844.389425c -4.26  -3.63
iter:   4 13:47:21 -12844.389351c -4.76  -3.64
iter:   5 13:48:09 -12844.389198c -5.42  -3.71
iter:   6 13:48:59 -12844.389180c -5.58  -3.91
iter:   7 13:49:47 -12844.389256c -5.41  -4.02c
iter:   8 13:50:36 -12844.389233c -5.91  -4.20c
iter:   9 13:51:24 -12844.389243c -6.79  -4.31c
iter:  10 13:52:12 -12844.389263c -6.40  -4.34c
iter:  11 13:53:01 -12844.389258c -6.53  -4.43c
iter:  12 13:53:49 -12844.389257c -6.54  -4.56c
iter:  13 13:54:37 -12844.389266c -6.96  -4.69c
iter:  14 13:55:26 -12844.389273c -6.84  -4.70c
iter:  15 13:56:14 -12844.389265c -7.39  -4.98c
iter:  16 13:57:03 -12844.389261c -7.74c -4.99c

Converged after 16 iterations.

Dipole moment: (-8.384917, -11.616230, -0.289225) |e|*Ang

Energy contributions relative to reference atoms: (reference = -20423934.023574)

Kinetic:       +1466.613537
Potential:     -1412.288144
External:        +0.000000
XC:            -12894.594115
Entropy (-ST):   -0.583792
Local:           -3.828643
--------------------------
Free energy:   -12844.681157
Extrapolated:  -12844.389261

Showing only first 2 kpts
 Kpt  Band  Eigenvalues  Occupancy
  0   253     -4.30617    1.62961
  0   254     -4.19378    1.17698
  0   255     -4.14620    0.94102
  0   256     -4.08083    0.63217

  1   253     -4.71356    1.99230
  1   254     -4.62957    1.98225
  1   255     -4.55177    1.96175
  1   256     -4.50891    1.94189


Fermi level: -4.15801

No gap

Forces in eV/Ang:
  0 Pb   -0.00275   -0.01345    0.12436
  1 Pb    0.00404   -0.02891   -0.16331
  2 Pb    0.05723   -0.00941    0.00046
  3 Pb   -0.00721   -0.00314    0.00411
  4 Pb   -0.01886    0.01281    0.10015
  5 Pb   -0.04431    0.00397   -0.17185
  6 Pb    0.01395    0.00563    0.00446
  7 Pb    0.04361   -0.01647    0.00085
  8 Pb    0.00069   -0.00975    0.09465
  9 Pb   -0.02660    0.01137   -0.13021
 10 Pb   -0.00553    0.00603   -0.00225
 11 Pb    0.00033    0.00191    0.02324
 12 Pb    0.01641   -0.00432    0.09464
 13 Pb    0.02326    0.00248   -0.09054
 14 Pb   -0.00344    0.05587   -0.00517
 15 Pb   -0.01664    0.04142   -0.00342
 16 Pb    0.00973    0.01378    0.09768
 17 Pb    0.04223    0.01228   -0.14266
 18 Pb   -0.01149   -0.02793   -0.00316
 19 Pb    0.00595    0.00047    0.62419
 20 Pb   -0.00476    0.01175    0.11056
 21 Pb    0.00967    0.04844   -0.11124
 22 Pb    0.01240   -0.01022    0.00537
 23 Pb    0.00356    0.02215   -0.00126
 24 Pb   -0.02407    0.00355    0.04888
 25 Pb   -0.04653   -0.00534   -0.11416
 26 Pb    0.00532   -0.00846   -0.00244
 27 Pb    0.00574   -0.00246    0.00837
 28 Pb    0.00369    0.00256    0.10562
 29 Pb   -0.01896   -0.00114   -0.11008
 30 Pb    0.01101    0.00100   -0.00959
 31 Pb    0.01829   -0.00014   -0.00563
 32 Pb    0.00092   -0.00620    0.08681
 33 Pb    0.00157   -0.01053   -0.14016
 34 Pb    0.01592   -0.00577    0.00091
 35 Pb   -0.01828   -0.01382   -0.00469
 36 O     0.00255    0.01333   -0.04592
 37 H     0.00023   -0.00305   -0.19919

BFGS:    7 13:57:21   -12844.389261        0.6242
System changes: positions 

Initializing position-dependent things.

Density initialized from wave functions
                                                    
                                                    
                                                    
                                                    
                                                    
                                                    
                                                    
                      H                             
                      O                             
           Pb       Pb       Pb                     
                                                    
             Pb      PPb      PPb                   
                                                    
               PPb      PPb     PPb                 
                                                    
                 Pb                Pb               
                Pb       PPb      Pb                
                                                    
                   Pb      Pb       Pb              
                                                    
           Pb       PPb      Pb       Pb            
                                                    
              Pb      Pb       Pb                   
                                                    
                Pb      Pb       Pb                 
                                                    
                                                    
                                                    
                                                    

Positions:
   0 Pb     0.000000    0.000000   10.000000    ( 0.0000,  0.0000,  0.0000)
   1 Pb     1.778836    1.027012   12.904828    ( 0.0000,  0.0000,  0.0000)
   2 Pb    -0.066193    2.021621   15.825071    ( 0.0000,  0.0000,  0.0000)
   3 Pb    -0.012798   -0.034841   18.744159    ( 0.0000,  0.0000,  0.0000)
   4 Pb    -1.778836    3.081035   10.000000    ( 0.0000,  0.0000,  0.0000)
   5 Pb    -0.000000    4.108047   12.904828    ( 0.0000,  0.0000,  0.0000)
   6 Pb    -1.769435    5.130308   15.947867    ( 0.0000,  0.0000,  0.0000)
   7 Pb    -1.797261    3.084606   18.757861    ( 0.0000,  0.0000,  0.0000)
   8 Pb    -3.557673    6.162070   10.000000    ( 0.0000,  0.0000,  0.0000)
   9 Pb    -1.778836    7.189082   12.904828    ( 0.0000,  0.0000,  0.0000)
  10 Pb    -3.549021    8.219233   15.935821    ( 0.0000,  0.0000,  0.0000)
  11 Pb    -3.555127    6.159550   18.762321    ( 0.0000,  0.0000,  0.0000)
  12 Pb     3.557673    0.000000   10.000000    ( 0.0000,  0.0000,  0.0000)
  13 Pb     5.336509    1.027012   12.904828    ( 0.0000,  0.0000,  0.0000)
  14 Pb     3.621305    2.010081   15.823770    ( 0.0000,  0.0000,  0.0000)
  15 Pb     3.566957   -0.020605   18.756034    ( 0.0000,  0.0000,  0.0000)
  16 Pb     1.778836    3.081035   10.000000    ( 0.0000,  0.0000,  0.0000)
  17 Pb     3.557673    4.108047   12.904828    ( 0.0000,  0.0000,  0.0000)
  18 Pb     1.790195    5.211946   15.829109    ( 0.0000,  0.0000,  0.0000)
  19 Pb     1.783576    3.082664   18.810582    ( 0.0000,  0.0000,  0.0000)
  20 Pb    -0.000000    6.162070   10.000000    ( 0.0000,  0.0000,  0.0000)
  21 Pb     1.778836    7.189082   12.904828    ( 0.0000,  0.0000,  0.0000)
  22 Pb    -0.002700    8.212476   15.942482    ( 0.0000,  0.0000,  0.0000)
  23 Pb    -0.018940    6.189413   18.760668    ( 0.0000,  0.0000,  0.0000)
  24 Pb     7.115346    0.000000   10.000000    ( 0.0000,  0.0000,  0.0000)
  25 Pb     8.894182    1.027012   12.904828    ( 0.0000,  0.0000,  0.0000)
  26 Pb     7.123216    2.054751   15.937186    ( 0.0000,  0.0000,  0.0000)
  27 Pb     7.114264   -0.001301   18.763601    ( 0.0000,  0.0000,  0.0000)
  28 Pb     5.336509    3.081035   10.000000    ( 0.0000,  0.0000,  0.0000)
  29 Pb     7.115346    4.108047   12.904828    ( 0.0000,  0.0000,  0.0000)
  30 Pb     5.334103    5.137862   15.942594    ( 0.0000,  0.0000,  0.0000)
  31 Pb     5.374891    3.088617   18.751646    ( 0.0000,  0.0000,  0.0000)
  32 Pb     3.557673    6.162070   10.000000    ( 0.0000,  0.0000,  0.0000)
  33 Pb     5.336509    7.189082   12.904828    ( 0.0000,  0.0000,  0.0000)
  34 Pb     3.562479    8.204787   15.929226    ( 0.0000,  0.0000,  0.0000)
  35 Pb     3.571615    6.178959   18.753394    ( 0.0000,  0.0000,  0.0000)
  36 O      1.778232    3.079259   20.929070    ( 0.0000,  0.0000,  0.0000)
  37 H      1.778873    3.078923   21.884307    ( 0.0000,  0.0000,  0.0000)

Unit cell:
           periodic     x           y           z      points  spacing
  1. axis:    yes   10.673019    0.000000    0.000000    52     0.1778
  2. axis:    yes   -5.336509    9.243105    0.000000    52     0.1778
  3. axis:    no     0.000000    0.000000   28.714483   160     0.1795

  Lengths:  10.673019  10.673019  28.714483
  Angles:   90.000000  90.000000 120.000000

Effective grid spacing dv^(1/3) = 0.1871

     iter     time        total  log10-change:
                         energy  eigst   dens
iter:   1 13:58:42 -12844.430920  -1.96
iter:   2 13:59:30 -12844.424705  -2.93  -3.00
iter:   3 14:00:18 -12844.419839c -3.44  -3.01
iter:   4 14:01:07 -12844.413482c -3.64  -3.03
iter:   5 14:01:55 -12844.412010c -4.26  -3.25
iter:   6 14:02:44 -12844.411221c -4.47  -3.39
iter:   7 14:03:32 -12844.411177c -4.41  -3.51
iter:   8 14:04:21 -12844.411177c -5.06  -3.70
iter:   9 14:05:09 -12844.411176c -5.39  -3.75
iter:  10 14:05:58 -12844.411221c -5.65  -3.90
iter:  11 14:06:46 -12844.411270c -6.02  -3.96
iter:  12 14:07:34 -12844.411315c -5.93  -4.06c
iter:  13 14:08:23 -12844.411300c -6.26  -4.25c
iter:  14 14:09:11 -12844.411292c -6.67  -4.33c
iter:  15 14:10:00 -12844.411255c -6.37  -4.42c
iter:  16 14:10:48 -12844.411260c -6.69  -4.69c
iter:  17 14:11:37 -12844.411262c -7.17  -4.72c
iter:  18 14:12:25 -12844.411261c -7.57c -4.81c

Converged after 18 iterations.

Dipole moment: (-8.390413, -11.396499, -0.213344) |e|*Ang

Energy contributions relative to reference atoms: (reference = -20423934.023574)

Kinetic:       +1468.864781
Potential:     -1414.155153
External:        +0.000000
XC:            -12895.001645
Entropy (-ST):   -0.580003
Local:           -3.829243
--------------------------
Free energy:   -12844.701263
Extrapolated:  -12844.411261

Showing only first 2 kpts
 Kpt  Band  Eigenvalues  Occupancy
  0   253     -4.26327    1.63250
  0   254     -4.15146    1.18440
  0   255     -4.10793    0.96892
[...]
  27 Pb     7.159016    0.007797   18.763535    ( 0.0000,  0.0000,  0.0000)
  28 Pb     5.336509    3.081035   10.000000    ( 0.0000,  0.0000,  0.0000)
  29 Pb     7.115346    4.108047   12.904828    ( 0.0000,  0.0000,  0.0000)
  30 Pb     5.355510    5.133033   15.966461    ( 0.0000,  0.0000,  0.0000)
  31 Pb     5.387044    3.083135   18.771306    ( 0.0000,  0.0000,  0.0000)
  32 Pb     3.557673    6.162070   10.000000    ( 0.0000,  0.0000,  0.0000)
  33 Pb     5.336509    7.189082   12.904828    ( 0.0000,  0.0000,  0.0000)
  34 Pb     3.601843    8.210368   15.936837    ( 0.0000,  0.0000,  0.0000)
  35 Pb     3.589073    6.163313   18.783889    ( 0.0000,  0.0000,  0.0000)
  36 O      1.381258    2.814875   21.491239    ( 0.0000,  0.0000,  0.0000)
  37 H      2.059718    3.148633   22.094885    ( 0.0000,  0.0000,  0.0000)

Unit cell:
           periodic     x           y           z      points  spacing
  1. axis:    yes   10.673019    0.000000    0.000000    52     0.1778
  2. axis:    yes   -5.336509    9.243105    0.000000    52     0.1778
  3. axis:    no     0.000000    0.000000   28.714483   160     0.1795

  Lengths:  10.673019  10.673019  28.714483
  Angles:   90.000000  90.000000 120.000000

Effective grid spacing dv^(1/3) = 0.1871

     iter     time        total  log10-change:
                         energy  eigst   dens
iter:   1 23:58:34 -12844.777937  -2.10
iter:   2 23:59:22 -12844.778858  -3.06  -3.13
iter:   3 00:00:10 -12844.778283c -3.72  -3.25
iter:   4 00:00:58 -12844.777285c -4.04  -3.34
iter:   5 00:01:46 -12844.776654c -4.35  -3.45
iter:   6 00:02:34 -12844.776601c -4.55  -3.58
iter:   7 00:03:22 -12844.776712c -4.77  -3.66
iter:   8 00:04:11 -12844.776683c -5.20  -3.81
iter:   9 00:04:59 -12844.776628c -5.75  -4.00c
iter:  10 00:05:47 -12844.776635c -6.41  -4.17c
iter:  11 00:06:36 -12844.776641c -5.79  -4.22c
iter:  12 00:07:24 -12844.776646c -6.40  -4.34c
iter:  13 00:08:12 -12844.776645c -6.89  -4.45c
iter:  14 00:09:00 -12844.776644c -6.97  -4.56c
iter:  15 00:09:49 -12844.776641c -7.19  -4.66c
iter:  16 00:10:37 -12844.776643c -7.49c -4.82c

Converged after 16 iterations.

Dipole moment: (-18.492485, -17.741017, -0.500026) |e|*Ang

Energy contributions relative to reference atoms: (reference = -20423934.023574)

Kinetic:       +1459.804382
Potential:     -1407.451012
External:        +0.000000
XC:            -12893.005642
Entropy (-ST):   -0.578920
Local:           -3.834911
--------------------------
Free energy:   -12845.066102
Extrapolated:  -12844.776643

Showing only first 2 kpts
 Kpt  Band  Eigenvalues  Occupancy
  0   253     -4.41469    1.64713
  0   254     -4.29594    1.17476
  0   255     -4.28698    1.13101
  0   256     -4.16806    0.56762

  1   253     -4.84136    1.99401
  1   254     -4.73985    1.98355
  1   255     -4.65333    1.96136
  1   256     -4.59105    1.92915


Fermi level: -4.26062

No gap

Forces in eV/Ang:
  0 Pb    0.00037   -0.01045    0.14163
  1 Pb    0.01215   -0.00767   -0.11797
  2 Pb    0.00717    0.02016   -0.01457
  3 Pb   -0.00854   -0.02894    0.01485
  4 Pb   -0.02232    0.01700    0.10115
  5 Pb   -0.02036   -0.00870   -0.10091
  6 Pb    0.01880    0.00761   -0.04512
  7 Pb   -0.04679   -0.00900    0.01769
  8 Pb    0.00601   -0.01210    0.10663
  9 Pb   -0.01453    0.01834   -0.12406
 10 Pb    0.03030   -0.00317   -0.00725
 11 Pb   -0.01054   -0.00607   -0.00078
 12 Pb    0.01606   -0.01176    0.11647
 13 Pb    0.00349    0.02106   -0.04481
 14 Pb    0.01828   -0.00297    0.00458
 15 Pb    0.00717   -0.01262    0.00519
 16 Pb    0.00259    0.01772    0.09226
 17 Pb    0.03273    0.00164   -0.09972
 18 Pb    0.01413   -0.01683   -0.00470
 19 Pb   -0.00706    0.00380   -0.00290
 20 Pb   -0.01218    0.01102    0.10974
 21 Pb    0.02498    0.01980   -0.05324
 22 Pb   -0.01483    0.00431    0.00167
 23 Pb   -0.01197    0.01199    0.01680
 24 Pb   -0.01817    0.00318    0.03507
 25 Pb   -0.01177    0.00606   -0.05194
 26 Pb   -0.01004    0.02286    0.00536
 27 Pb   -0.00477    0.00466   -0.01055
 28 Pb    0.00759    0.00559    0.12927
 29 Pb   -0.01290   -0.01230   -0.11199
 30 Pb   -0.00715    0.00554    0.01061
 31 Pb   -0.00519    0.00722   -0.00286
 32 Pb    0.00048   -0.00678    0.10558
 33 Pb   -0.00312   -0.00417   -0.13630
 34 Pb    0.00416   -0.02358    0.00649
 35 Pb    0.00762   -0.00402   -0.01808
 36 O     0.09598    0.03596    0.04626
 37 H    -0.05071   -0.03837   -0.08003

BFGS:   48 00:10:55   -12844.776643        0.1125
System changes: positions 

Initializing position-dependent things.

Density initialized from wave functions
                                                    
                                                    
                                                    
                                                    
                                                    
                                                    
                                                    
                       H                            
                     O                              
           Pb       Pb       Pb                     
                                                    
             PPb     PPb      PPb                   
                                                    
               PPb      PPb     PPb                 
                                                    
                                                    
                PPb      PPb     PbPb               
                                                    
                   Pb      Pb       Pb              
                                                    
           Pb       PPb     PPb       Pb            
                                                    
              Pb      Pb       Pb                   
                                                    
                Pb      Pb       Pb                 
                                                    
                                                    
                                                    
                                                    

Positions:
   0 Pb     0.000000    0.000000   10.000000    ( 0.0000,  0.0000,  0.0000)
   1 Pb     1.778836    1.027012   12.904828    ( 0.0000,  0.0000,  0.0000)
   2 Pb     0.034942    2.051903   15.916223    ( 0.0000,  0.0000,  0.0000)
   3 Pb     0.053400    0.025474   18.777215    ( 0.0000,  0.0000,  0.0000)
   4 Pb    -1.778836    3.081035   10.000000    ( 0.0000,  0.0000,  0.0000)
   5 Pb    -0.000000    4.108047   12.904828    ( 0.0000,  0.0000,  0.0000)
   6 Pb    -1.741309    5.127131   15.975788    ( 0.0000,  0.0000,  0.0000)
   7 Pb    -1.699593    3.086944   18.777280    ( 0.0000,  0.0000,  0.0000)
   8 Pb    -3.557673    6.162070   10.000000    ( 0.0000,  0.0000,  0.0000)
   9 Pb    -1.778836    7.189082   12.904828    ( 0.0000,  0.0000,  0.0000)
  10 Pb    -3.532433    8.235951   15.962915    ( 0.0000,  0.0000,  0.0000)
  11 Pb    -3.531167    6.166641   18.779444    ( 0.0000,  0.0000,  0.0000)
  12 Pb     3.557673    0.000000   10.000000    ( 0.0000,  0.0000,  0.0000)
  13 Pb     5.336509    1.027012   12.904828    ( 0.0000,  0.0000,  0.0000)
  14 Pb     3.610132    2.041279   15.925554    ( 0.0000,  0.0000,  0.0000)
  15 Pb     3.604388    0.003071   18.770635    ( 0.0000,  0.0000,  0.0000)
  16 Pb     1.778836    3.081035   10.000000    ( 0.0000,  0.0000,  0.0000)
  17 Pb     3.557673    4.108047   12.904828    ( 0.0000,  0.0000,  0.0000)
  18 Pb     1.817260    5.154092   15.916874    ( 0.0000,  0.0000,  0.0000)
  19 Pb     1.818773    3.078824   19.371384    ( 0.0000,  0.0000,  0.0000)
  20 Pb    -0.000000    6.162070   10.000000    ( 0.0000,  0.0000,  0.0000)
  21 Pb     1.778836    7.189082   12.904828    ( 0.0000,  0.0000,  0.0000)
  22 Pb     0.034256    8.208849   15.938831    ( 0.0000,  0.0000,  0.0000)
  23 Pb     0.057782    6.157862   18.768892    ( 0.0000,  0.0000,  0.0000)
  24 Pb     7.115346    0.000000   10.000000    ( 0.0000,  0.0000,  0.0000)
  25 Pb     8.894182    1.027012   12.904828    ( 0.0000,  0.0000,  0.0000)
  26 Pb     7.152887    2.051084   15.933586    ( 0.0000,  0.0000,  0.0000)
  27 Pb     7.156669    0.007273   18.761621    ( 0.0000,  0.0000,  0.0000)
  28 Pb     5.336509    3.081035   10.000000    ( 0.0000,  0.0000,  0.0000)
  29 Pb     7.115346    4.108047   12.904828    ( 0.0000,  0.0000,  0.0000)
  30 Pb     5.353822    5.133684   15.966163    ( 0.0000,  0.0000,  0.0000)
  31 Pb     5.388335    3.084124   18.771418    ( 0.0000,  0.0000,  0.0000)
  32 Pb     3.557673    6.162070   10.000000    ( 0.0000,  0.0000,  0.0000)
  33 Pb     5.336509    7.189082   12.904828    ( 0.0000,  0.0000,  0.0000)
  34 Pb     3.602131    8.209702   15.935967    ( 0.0000,  0.0000,  0.0000)
  35 Pb     3.588396    6.166323   18.783407    ( 0.0000,  0.0000,  0.0000)
  36 O      1.385548    2.817307   21.499244    ( 0.0000,  0.0000,  0.0000)
  37 H      2.058765    3.149324   22.107164    ( 0.0000,  0.0000,  0.0000)

Unit cell:
           periodic     x           y           z      points  spacing
  1. axis:    yes   10.673019    0.000000    0.000000    52     0.1778
  2. axis:    yes   -5.336509    9.243105    0.000000    52     0.1778
  3. axis:    no     0.000000    0.000000   28.714483   160     0.1795

  Lengths:  10.673019  10.673019  28.714483
  Angles:   90.000000  90.000000 120.000000

Effective grid spacing dv^(1/3) = 0.1871

     iter     time        total  log10-change:
                         energy  eigst   dens
iter:   1 00:12:15 -12844.777364  -3.12
iter:   2 00:13:03 -12844.777290  -4.07  -3.43
iter:   3 00:13:52 -12844.776990c -4.76  -3.57
iter:   4 00:14:40 -12844.776898c -5.10  -3.86
iter:   5 00:15:28 -12844.776813c -5.30  -3.99
iter:   6 00:16:16 -12844.776789c -5.67  -4.13c
iter:   7 00:17:05 -12844.776831c -5.73  -4.17c
iter:   8 00:17:53 -12844.776828c -6.35  -4.32c
iter:   9 00:18:41 -12844.776820c -6.77  -4.46c
iter:  10 00:19:30 -12844.776820c -7.10  -4.56c
iter:  11 00:20:18 -12844.776818c -6.92  -4.70c
iter:  12 00:21:07 -12844.776818c -7.15  -4.79c
iter:  13 00:21:55 -12844.776820c -7.60c -4.91c

Converged after 13 iterations.

Dipole moment: (-17.985166, -17.481271, -0.496614) |e|*Ang

Energy contributions relative to reference atoms: (reference = -20423934.023574)

Kinetic:       +1459.821224
Potential:     -1407.462853
External:        +0.000000
XC:            -12893.009465
Entropy (-ST):   -0.579003
Local:           -3.836225
--------------------------
Free energy:   -12845.066322
Extrapolated:  -12844.776820

Showing only first 2 kpts
 Kpt  Band  Eigenvalues  Occupancy
  0   253     -4.41291    1.64683
  0   254     -4.29412    1.17405
  0   255     -4.28529    1.13095
  0   256     -4.16607    0.56636

  1   253     -4.83996    1.99402
  1   254     -4.73873    1.98364
  1   255     -4.65263    1.96173
  1   256     -4.59023    1.92973


Fermi level: -4.25895

No gap

Forces in eV/Ang:
  0 Pb    0.00013   -0.01053    0.13939
  1 Pb    0.01122   -0.00618   -0.11462
  2 Pb    0.00748    0.01576   -0.01345
  3 Pb   -0.00220   -0.01880    0.01255
  4 Pb   -0.02238    0.01636    0.09912
  5 Pb   -0.01951   -0.01019   -0.09899
  6 Pb    0.01292    0.00388   -0.03586
  7 Pb   -0.02780   -0.00402    0.00987
  8 Pb    0.00584   -0.01206    0.10429
  9 Pb   -0.01489    0.01815   -0.12435
 10 Pb    0.02515   -0.00328   -0.00716
 11 Pb   -0.00808   -0.00545    0.00164
 12 Pb    0.01646   -0.01095    0.11404
 13 Pb    0.00239    0.02168   -0.04479
 14 Pb    0.01637   -0.00375    0.00315
 15 Pb    0.00652   -0.00926    0.00270
 16 Pb    0.00326    0.01749    0.08964
 17 Pb    0.03129    0.00089   -0.09800
 18 Pb    0.01004   -0.01165   -0.00559
 19 Pb   -0.02813   -0.00249   -0.01731
 20 Pb   -0.01196    0.01132    0.10734
 21 Pb    0.02534    0.01842   -0.05205
 22 Pb   -0.01143    0.00557    0.00144
 23 Pb   -0.00622    0.00356    0.01231
 24 Pb   -0.01834    0.00309    0.03254
 25 Pb   -0.01014    0.00709   -0.04965
 26 Pb   -0.00438    0.01680    0.00341
 27 Pb   -0.00241    0.00385   -0.00689
 28 Pb    0.00735    0.00520    0.12664
 29 Pb   -0.01241   -0.01165   -0.11092
 30 Pb    0.00023    0.00446    0.00680
 31 Pb   -0.00896    0.00486   -0.00125
 32 Pb    0.00055   -0.00661    0.10294
 33 Pb   -0.00273   -0.00354   -0.13528
 34 Pb    0.00249   -0.01792    0.00312
 35 Pb    0.00677   -0.00960   -0.01504
 36 O     0.00697   -0.01100    0.01243
 37 H     0.00668   -0.01034   -0.03199

BFGS:   49 00:22:13   -12844.776820        0.0383
Timing:                                      incl.     excl.
-------------------------------------------------------------------
Density initialized from wave functions:    48.794    48.792   0.1% |
 Symmetrize density:                         0.002     0.002   0.0% |
Forces:                                    911.977   911.977   2.0% ||
Hamiltonian:                               286.663     0.008   0.0% |
 Atomic:                                     0.015     0.014   0.0% |
  XC Correction:                             0.000     0.000   0.0% |
 Calculate atomic Hamiltonians:              0.018     0.018   0.0% |
 Communicate:                               10.895    10.895   0.0% |
 Hartree integrate/restrict:                 0.904     0.904   0.0% |
 Initialize Hamiltonian:                     0.000     0.000   0.0% |
 Poisson:                                   14.877     0.665   0.0% |
  Communicate from 1D:                       1.510     1.510   0.0% |
  Communicate from 2D:                       2.630     2.630   0.0% |
  Communicate to 1D:                         0.686     0.686   0.0% |
  Communicate to 2D:                         2.825     2.825   0.0% |
  FFT 1D:                                    2.231     2.231   0.0% |
  FFT 2D:                                    4.330     4.330   0.0% |
 XC 3D grid:                               259.664    67.042   0.1% |
  VdW-DF integral:                         192.622     2.260   0.0% |
   Convolution:                             24.211    24.211   0.1% |
   FFT:                                     14.472    14.472   0.0% |
   gather:                                  56.011    56.011   0.1% |
   hmm1:                                     3.768     3.768   0.0% |
   hmm2:                                     8.030     8.030   0.0% |
   iFFT:                                    14.942    14.942   0.0% |
   potential:                               64.493     1.333   0.0% |
    collect:                                 5.454     5.454   0.0% |
    p1:                                     37.688    37.688   0.1% |
    p2:                                     12.467    12.467   0.0% |
    sum:                                     7.552     7.552   0.0% |
   splines:                                  4.435     4.435   0.0% |
 vbar:                                       0.281     0.281   0.0% |
LCAO initialization:                        21.515     1.355   0.0% |
 LCAO eigensolver:                           4.926     0.004   0.0% |
  Calculate projections:                     0.000     0.000   0.0% |
  DenseAtomicCorrection:                     0.000     0.000   0.0% |
  Distribute overlap matrix:                 4.375     4.375   0.0% |
  Orbital Layouts:                           0.508     0.508   0.0% |
  Potential matrix:                          0.010     0.010   0.0% |
  Sum over cells:                            0.029     0.029   0.0% |
 LCAO to grid:                              14.389    14.389   0.0% |
 Set positions (LCAO WFS):                   0.846     0.699   0.0% |
  Basic WFS set positions:                   0.001     0.001   0.0% |
  Basis functions set positions:             0.000     0.000   0.0% |
  P tci:                                     0.000     0.000   0.0% |
  ST tci:                                    0.107     0.107   0.0% |
  mktci:                                     0.038     0.038   0.0% |
Redistribute:                                0.031     0.031   0.0% |
SCF-cycle:                               42368.444  1132.796   2.5% ||
 Davidson:                               36239.740  9998.639  22.3% |--------|
  Apply hamiltonian:                      1438.075  1438.075   3.2% ||
  Subspace diag:                          4779.631     0.122   0.0% |
   calc_h_matrix:                         2536.207  1253.207   2.8% ||
    Apply hamiltonian:                    1283.000  1283.000   2.9% ||
   diagonalize:                            103.659   103.659   0.2% |
   rotate_psi:                            2139.644  2139.644   4.8% |-|
  calc. matrices:                        15436.980  8499.724  18.9% |-------|
   Apply hamiltonian:                     6937.256  6937.256  15.4% |-----|
  diagonalize:                             342.085   342.085   0.8% |
  rotate_psi:                             4244.330  4244.330   9.4% |---|
 Density:                                   97.307     0.022   0.0% |
  Atomic density matrices:                   5.071     5.071   0.0% |
  Mix:                                      24.379    24.379   0.1% |
  Multipole moments:                         0.365     0.365   0.0% |
  Pseudo density:                           67.471    67.437   0.2% |
   Symmetrize density:                       0.034     0.034   0.0% |
 Hamiltonian:                             4671.174     0.129   0.0% |
  Atomic:                                    0.233     0.230   0.0% |
   XC Correction:                            0.003     0.003   0.0% |
  Calculate atomic Hamiltonians:             0.323     0.323   0.0% |
  Communicate:                             181.982   181.982   0.4% |
  Hartree integrate/restrict:               14.868    14.868   0.0% |
  Poisson:                                 245.907    10.976   0.0% |
   Communicate from 1D:                     25.090    25.090   0.1% |
   Communicate from 2D:                     43.569    43.569   0.1% |
   Communicate to 1D:                       11.392    11.392   0.0% |
   Communicate to 2D:                       46.499    46.499   0.1% |
   FFT 1D:                                  36.747    36.747   0.1% |
   FFT 2D:                                  71.634    71.634   0.2% |
  XC 3D grid:                             4225.340  1108.797   2.5% ||
   VdW-DF integral:                       3116.543    37.348   0.1% |
    Convolution:                           400.017   400.017   0.9% |
    FFT:                                   239.670   239.670   0.5% |
    gather:                                925.385   925.385   2.1% ||
    hmm1:                                   62.596    62.596   0.1% |
    hmm2:                                  135.149   135.149   0.3% |
    iFFT:                                  247.779   247.779   0.6% |
    potential:                            1068.594    22.172   0.0% |
     collect:                               89.869    89.869   0.2% |
     p1:                                   624.818   624.818   1.4% ||
     p2:                                   206.597   206.597   0.5% |
     sum:                                  125.137   125.137   0.3% |
    splines:                                 0.006     0.006   0.0% |
  vbar:                                      2.392     2.392   0.0% |
 Orthonormalize:                           227.426     0.011   0.0% |
  calc_s_matrix:                            32.285    32.285   0.1% |
  inverse-cholesky:                        132.909   132.909   0.3% |
  projections:                               0.003     0.003   0.0% |
  rotate_psi_s:                             62.220    62.220   0.1% |
Set symmetry:                                0.001     0.001   0.0% |
Other:                                    1288.157  1288.157   2.9% ||
-------------------------------------------------------------------
Total:                                             44925.583 100.0%

Memory usage: 2.57 GiB
Date: Wed Sep 27 00:22:13 2023
