
  ___ ___ ___ _ _ _  
 |   |   |_  | | | | 
 | | | | | . | | | | 
 |__ |  _|___|_____|  22.8.0
 |___|_|             

User:   s204775@a059.nifl.fysik.dtu.dk
Date:   Tue Sep 26 11:57:29 2023
Arch:   x86_64
Pid:    73660
CWD:    /home/cat/s204775/projects/Bachelor_project/OH_missing_features
Python: 3.10.4
gpaw:   /home/modules/software/GPAW/22.8.0-intel-2022a/lib/python3.10/site-packages/gpaw
_gpaw:  /home/modules/software/GPAW/22.8.0-intel-2022a/lib/python3.10/site-packages/
        _gpaw.cpython-310-x86_64-linux-gnu.so
ase:    /home/modules/software/ASE/3.22.1-intel-2022a/lib/python3.10/site-packages/ase (version 3.22.1)
numpy:  /home/modules/software/SciPy-bundle/2022.05-intel-2022a/lib/python3.10/site-packages/numpy (version 1.22.3)
scipy:  /home/modules/software/SciPy-bundle/2022.05-intel-2022a/lib/python3.10/site-packages/scipy (version 1.8.1)
libxc:  5.2.3
units:  Angstrom and eV
cores: 40
OpenMP: False
OMP_NUM_THREADS: 1

Input parameters:
  basis: dzp
  h: 0.18
  kpts: {size: (4, 4, 1)}
  xc: BEEF-vdW

System changes: positions, numbers, cell, pbc, initial_charges, initial_magmoms 

Initialize ...

species:
  Pd:
    name: Palladium
    id: c3f348c122b85aed3f99c4295cac773c
    Z: 46.0
    valence: 16
    core: 30
    charge: 0.0
    file: /home/modules/software/GPAW-setups/0.9.20000/Pd.PBE.gz
    compensation charges: {type: gauss,
                           rc: 0.38,
                           lmax: 2}
    cutoffs: {filter: 2.38,
              core: 2.28}
    valence states:
      #              energy  rcut
      - 5s(0.00)    -3.315   1.228
      - 4p(6.00)   -51.209   1.360
      - 5p(0.00)    -0.314   1.360
      - 4d(10.00)    -4.047   1.228
      -  s          23.896   1.228
      -  d          23.165   1.228
  
    # LCAO basis set for Pd:
    #   Name: dzp
    #   File: /home/modules/software/GPAW-setups/0.9.20000/Pd.dzp.basis.gz
    #   Number of radial functions: 9
    #   Number of spherical harmonics: 27
    #     l=0, rc=10.0312 Bohr: 5s-sz confined orbital
    #     l=1, rc=3.5312 Bohr: 4p-sz confined orbital
    #     l=1, rc=16.0000 Bohr: 5p-sz confined orbital
    #     l=2, rc=6.2031 Bohr: 4d-sz confined orbital
    #     l=0, rc=6.0156 Bohr: 5s-dz split-valence wave
    #     l=1, rc=2.4062 Bohr: 4p-dz split-valence wave
    #     l=1, rc=9.9375 Bohr: 5p-dz split-valence wave
    #     l=2, rc=3.6719 Bohr: 4d-dz split-valence wave
    #     l=1, rc=10.0312 Bohr: p-type Gaussian polarization
    #   Number of RI-basis functions 0

  O:
    name: Oxygen
    id: 32ecd46bf208036f09c70b0ec9a88b78
    Z: 8.0
    valence: 6
    core: 2
    charge: 0.0
    file: /home/modules/software/GPAW-setups/0.9.20000/O.PBE.gz
    compensation charges: {type: gauss,
                           rc: 0.21,
                           lmax: 2}
    cutoffs: {filter: 1.17,
              core: 0.83}
    valence states:
      #              energy  rcut
      - 2s(2.00)   -23.961   0.688
      - 2p(4.00)    -9.029   0.598
      -  s           3.251   0.688
      -  p          18.182   0.598
      -  d           0.000   0.619
  
    # LCAO basis set for O:
    #   Name: dzp
    #   File: /home/modules/software/GPAW-setups/0.9.20000/O.dzp.basis.gz
    #   Number of radial functions: 5
    #   Number of spherical harmonics: 13
    #     l=0, rc=4.3438 Bohr: 2s-sz confined orbital
    #     l=1, rc=5.3906 Bohr: 2p-sz confined orbital
    #     l=0, rc=2.2969 Bohr: 2s-dz split-valence wave
    #     l=1, rc=2.8906 Bohr: 2p-dz split-valence wave
    #     l=2, rc=5.3906 Bohr: d-type Gaussian polarization
    #   Number of RI-basis functions 0

  H:
    name: Hydrogen
    id: d65de229564ff8ea4db303e23b6d1ecf
    Z: 1.0
    valence: 1
    core: 0
    charge: 0.0
    file: /home/modules/software/GPAW-setups/0.9.20000/H.PBE.gz
    compensation charges: {type: gauss,
                           rc: 0.15,
                           lmax: 2}
    cutoffs: {filter: 0.85,
              core: 0.53}
    valence states:
      #              energy  rcut
      - 1s(1.00)    -6.494   0.476
      -  s          20.717   0.476
      -  p           0.000   0.476
  
    # LCAO basis set for H:
    #   Name: dzp
    #   File: /home/modules/software/GPAW-setups/0.9.20000/H.dzp.basis.gz
    #   Number of radial functions: 3
    #   Number of spherical harmonics: 5
    #     l=0, rc=6.4219 Bohr: 1s-sz confined orbital
    #     l=0, rc=3.6094 Bohr: 1s-dz split-valence wave
    #     l=1, rc=6.4219 Bohr: p-type Gaussian polarization
    #   Number of RI-basis functions 0

Reference energy: -4942243.008314  # eV

Spin-paired calculation

Convergence criteria:
 Maximum [total energy] change in last 3 cyles: 0.0005 eV / electron
 Maximum integral of absolute [dens]ity change: 0.0001 electrons / valence electron
 Maximum integral of absolute [eigenst]ate change: 4e-08 eV^2 / valence electron
 Maximum number of scf [iter]ations: 333
 (Square brackets indicate name in SCF output, whereas a 'c' in
 the SCF output indicates the quantity has converged.)

Symmetries present (total): 6

  ( 1  1  0)  ( 1  0  0)  ( 0  1  0)  ( 0 -1  0)  (-1  0  0)  (-1 -1  0)
  ( 0 -1  0)  ( 0  1  0)  (-1 -1  0)  (-1  0  0)  ( 1  1  0)  ( 1  0  0)
  ( 0  0  1)  ( 0  0  1)  ( 0  0  1)  ( 0  0  1)  ( 0  0  1)  ( 0  0  1)
Note: your k-points are not as symmetric as your crystal!

16 k-points: 4 x 4 x 1 Monkhorst-Pack grid
6 k-points in the irreducible part of the Brillouin zone
       k-points in crystal coordinates                weights
   0:     0.12500000   -0.12500000    0.00000000          2/16
   1:     0.12500000    0.12500000    0.00000000          2/16
   2:     0.37500000   -0.37500000    0.00000000          2/16
   3:     0.37500000   -0.12500000    0.00000000          4/16
   4:     0.37500000    0.12500000    0.00000000          4/16
   5:     0.37500000    0.37500000    0.00000000          2/16

Wave functions: Uniform real-space grid
  Kinetic energy operator: 8*3+1=25 point O(h^6) finite-difference Laplacian
  ScaLapack parameters: grid=1x1, blocksize=None
  Wavefunction extrapolation:
    Improved wavefunction reuse through dual PAW basis 

Occupation numbers: Fermi-Dirac:
  width: 0.1000  # eV
 

Eigensolver
   Davidson(niter=2) 

Densities:
  Coarse grid: 40*40*148 grid
  Fine grid: 80*80*296 grid
  Total Charge: 0.000000 

Density mixing:
  Method: separate
  Backend: pulay
  Linear mixing parameter: 0.05
  old densities: 5
  Damping of long wavelength oscillations: 50 

Hamiltonian:
  XC and Coulomb potentials evaluated on a 80*80*296 grid
  Using the BEEF-vdW Exchange-Correlation functional
  Interpolation: tri-quintic (5. degree polynomial)
  Poisson solver: FastPoissonSolver using
    Stencil: 8*3+1=25 point O(h^6) finite-difference Laplacian
    FFT axes: [0, 1]
    FST axes: [2]
 

XC parameters: BEEF-vdW with 2 nearest neighbor stencil

Memory estimate:
  Process memory now: 169.79 MiB
  Calculator: 290.60 MiB
    Density: 15.05 MiB
      Arrays: 2.34 MiB
      Localized functions: 11.83 MiB
      Mixer: 0.89 MiB
    Hamiltonian: 2.40 MiB
      Arrays: 1.53 MiB
      XC: 0.00 MiB
      Poisson: 0.00 MiB
      vbar: 0.87 MiB
    Wavefunctions: 273.15 MiB
      Arrays psit_nG: 187.98 MiB
      Eigensolver: 82.68 MiB
      Projections: 0.54 MiB
      Projectors: 1.96 MiB

Total number of cores used: 40
Parallelization over k-points: 2
Domain decomposition: 2 x 2 x 5

Number of atoms: 38
Number of atomic orbitals: 990
Number of bands in calculation: 354
Number of valence electrons: 583
Bands to converge: occupied

... initialized

Initializing position-dependent things.

Density initialized from atomic densities
Creating initial wave functions:
  354 bands from LCAO basis set

                                                
                                                
                                                
                                                
                                                
                                                
                          H                     
                          O                     
                 Pd     Pd     Pd               
                                                
           Pd     PPd    PPd     Pd             
             Pd     PPd    PPd     Pd           
                                                
              PPd    PPd    PPd                 
                                                
                Pd     Pd     Pd                
                  Pd     Pd     Pd              
          Pd     Pd     Pd                      
            Pd     Pd     Pd                    
              Pd     Pd     Pd                  
                                                
                                                
                                                
                                                

Positions:
   0 Pd     0.000000    0.000000    9.999999    ( 0.0000,  0.0000,  0.0000)
   1 Pd     1.418446    0.818940   12.316312    ( 0.0000,  0.0000,  0.0000)
   2 Pd    -0.000000    1.637341   14.614319    ( 0.0000,  0.0000,  0.0000)
   3 Pd     2.836318   -0.000221   16.938702    ( 0.0000,  0.0000,  0.0000)
   4 Pd    -1.418446    2.456821    9.999999    ( 0.0000,  0.0000,  0.0000)
   5 Pd    -0.000000    3.275761   12.316312    ( 0.0000,  0.0000,  0.0000)
   6 Pd    -1.417250    4.095392   14.618454    ( 0.0000,  0.0000,  0.0000)
   7 Pd     1.417968    2.456434   16.938702    ( 0.0000,  0.0000,  0.0000)
   8 Pd    -2.836893    4.913642    9.999999    ( 0.0000,  0.0000,  0.0000)
   9 Pd    -1.418446    5.732582   12.316312    ( 0.0000,  0.0000,  0.0000)
  10 Pd    -2.837360    6.551793   14.614319    ( 0.0000,  0.0000,  0.0000)
  11 Pd    -0.000000    4.913642   16.946916    ( 0.0000,  0.0000,  0.0000)
  12 Pd     2.836893    0.000000    9.999999    ( 0.0000,  0.0000,  0.0000)
  13 Pd     4.255339    0.818940   12.316312    ( 0.0000,  0.0000,  0.0000)
  14 Pd     2.837300    1.638116   14.617798    ( 0.0000,  0.0000,  0.0000)
  15 Pd     5.674360   -0.000221   16.938702    ( 0.0000,  0.0000,  0.0000)
  16 Pd     1.418446    2.456821    9.999999    ( 0.0000,  0.0000,  0.0000)
  17 Pd     2.836893    3.275761   12.316312    ( 0.0000,  0.0000,  0.0000)
  18 Pd     1.417250    4.095392   14.618454    ( 0.0000,  0.0000,  0.0000)
  19 Pd     4.255339    2.456821   16.946466    ( 0.0000,  0.0000,  0.0000)
  20 Pd     0.000000    4.913642    9.999999    ( 0.0000,  0.0000,  0.0000)
  21 Pd     1.418446    5.732582   12.316312    ( 0.0000,  0.0000,  0.0000)
  22 Pd    -0.000000    6.550142   14.618454    ( 0.0000,  0.0000,  0.0000)
  23 Pd     2.836989    4.914250   16.938702    ( 0.0000,  0.0000,  0.0000)
  24 Pd     5.673785    0.000000    9.999999    ( 0.0000,  0.0000,  0.0000)
  25 Pd     7.092231    0.818940   12.316312    ( 0.0000,  0.0000,  0.0000)
  26 Pd     5.673378    1.638116   14.617798    ( 0.0000,  0.0000,  0.0000)
  27 Pd     8.510678    0.000000   16.935460    ( 0.0000,  0.0000,  0.0000)
  28 Pd     4.255339    2.456821    9.999999    ( 0.0000,  0.0000,  0.0000)
  29 Pd     5.673785    3.275761   12.316312    ( 0.0000,  0.0000,  0.0000)
  30 Pd     4.255339    4.094232   14.617798    ( 0.0000,  0.0000,  0.0000)
  31 Pd     7.092710    2.456434   16.938702    ( 0.0000,  0.0000,  0.0000)
  32 Pd     2.836893    4.913642    9.999999    ( 0.0000,  0.0000,  0.0000)
  33 Pd     4.255339    5.732582   12.316312    ( 0.0000,  0.0000,  0.0000)
  34 Pd     2.837360    6.551793   14.614319    ( 0.0000,  0.0000,  0.0000)
  35 Pd     5.673689    4.914250   16.938702    ( 0.0000,  0.0000,  0.0000)
  36 O      4.255339    2.456821   18.946466    ( 0.0000,  0.0000,  0.0000)
  37 H      4.255339    2.456821   19.906466    ( 0.0000,  0.0000,  0.0000)

Unit cell:
           periodic     x           y           z      points  spacing
  1. axis:    yes    8.510678    0.000000    0.000000    40     0.1843
  2. axis:    yes   -4.255339    7.370463    0.000000    40     0.1843
  3. axis:    no     0.000000    0.000000   26.948937   148     0.1821

  Lengths:   8.510678   8.510678  26.948937
  Angles:   90.000000  90.000000 120.000000

Effective grid spacing dv^(1/3) = 0.1925

     iter     time        total  log10-change:
                         energy  eigst   dens
iter:   1 11:58:31 -5259.808131
iter:   2 11:58:58 -5358.041684  -0.11  -1.14
iter:   3 11:59:23 -5248.098609  -0.92  -1.00
iter:   4 11:59:49 -5239.374013  -0.86  -1.20
iter:   5 12:00:15 -5228.062929  -1.02  -1.26
iter:   6 12:00:41 -5228.862961  -1.11  -1.40
iter:   7 12:01:07 -5223.414433  -2.10  -1.48
iter:   8 12:01:32 -5223.073399  -1.15  -1.50
iter:   9 12:01:58 -5220.230345  -1.42  -1.66
iter:  10 12:02:24 -5219.833511  -2.26  -1.85
iter:  11 12:02:50 -5220.856357  -2.05  -1.89
iter:  12 12:03:16 -5219.057065  -1.79  -1.93
iter:  13 12:03:41 -5218.787066  -2.74  -2.11
iter:  14 12:04:07 -5218.728796  -2.70  -2.19
iter:  15 12:04:33 -5218.693607c -3.17  -2.31
iter:  16 12:04:59 -5218.623976c -2.74  -2.44
iter:  17 12:05:25 -5218.648397c -3.51  -2.54
iter:  18 12:05:50 -5218.621505c -3.88  -2.51
iter:  19 12:06:16 -5218.549264c -3.34  -2.58
iter:  20 12:06:42 -5218.546916c -3.42  -2.92
iter:  21 12:07:08 -5218.547969c -3.88  -3.02
iter:  22 12:07:34 -5218.545596c -4.81  -3.09
iter:  23 12:08:00 -5218.542091c -4.94  -3.09
iter:  24 12:08:25 -5218.545164c -4.56  -3.26
iter:  25 12:08:51 -5218.545814c -5.14  -3.26
iter:  26 12:09:17 -5218.546024c -4.86  -3.33
iter:  27 12:09:43 -5218.545939c -5.74  -3.70
iter:  28 12:10:09 -5218.546292c -5.95  -3.74
iter:  29 12:10:34 -5218.546352c -5.72  -3.78
iter:  30 12:11:00 -5218.546743c -5.81  -3.94
iter:  31 12:11:26 -5218.546368c -5.87  -3.80
iter:  32 12:11:52 -5218.546389c -6.42  -4.13c
iter:  33 12:12:18 -5218.546394c -6.51  -4.19c
iter:  34 12:12:43 -5218.546353c -6.59  -4.28c
iter:  35 12:13:09 -5218.546322c -6.99  -4.33c
iter:  36 12:13:35 -5218.546165c -7.06  -4.28c
iter:  37 12:14:01 -5218.546098c -7.16  -4.43c
iter:  38 12:14:27 -5218.546094c -7.06  -4.57c
iter:  39 12:14:52 -5218.546108c -7.89c -4.76c

Converged after 39 iterations.

Dipole moment: (-4.447822, -7.443453, 0.007328) |e|*Ang

Energy contributions relative to reference atoms: (reference = -4942243.008314)

Kinetic:       +807.597721
Potential:     -903.483352
External:        +0.000000
XC:            -5111.464391
Entropy (-ST):   -2.632595
Local:           -9.879789
--------------------------
Free energy:   -5219.862405
Extrapolated:  -5218.546108

Showing only first 2 kpts
 Kpt  Band  Eigenvalues  Occupancy
  0   289     -5.52764    1.67174
  0   290     -5.50279    1.59776
  0   291     -5.49870    1.58445
  0   292     -5.47972    1.51852

  1   289     -5.48430    1.53508
  1   290     -5.47248    1.49157
  1   291     -5.45179    1.40920
  1   292     -5.44891    1.39715


Fermi level: -5.36486

No gap

Forces in eV/Ang:
  0 Pd   -0.00000   -0.00000   -0.00930
  1 Pd   -0.01510   -0.00872    0.02829
  2 Pd    0.00000    0.02291    0.02399
  3 Pd   -0.08068   -0.11142   -0.01461
  4 Pd   -0.00085    0.00992   -0.02706
  5 Pd    0.00000   -0.00309    0.02179
  6 Pd    0.01293    0.00746   -0.01337
  7 Pd   -0.13683   -0.01416   -0.01461
  8 Pd    0.00817   -0.00569   -0.02706
  9 Pd   -0.00267    0.00154    0.02179
 10 Pd    0.01984   -0.01146    0.02399
 11 Pd    0.00000    0.00000   -0.02052
 12 Pd    0.00901   -0.00423   -0.02706
 13 Pd    0.00000    0.01465    0.05651
 14 Pd    0.06615    0.03819    0.04639
 15 Pd    0.08068   -0.11142   -0.01461
 16 Pd    0.00085    0.00992   -0.02706
 17 Pd    0.01269   -0.00733    0.05651
 18 Pd   -0.01293    0.00746   -0.01337
 19 Pd    0.00000    0.00000   -0.22392
 20 Pd    0.00000    0.00000   -0.05713
 21 Pd    0.00267    0.00154    0.02179
 22 Pd    0.00000   -0.01493   -0.01337
 23 Pd   -0.05615    0.12558   -0.01461
 24 Pd   -0.00901   -0.00423   -0.02706
 25 Pd    0.01510   -0.00872    0.02829
 26 Pd   -0.06615    0.03819    0.04639
 27 Pd    0.00000   -0.00000    0.00541
 28 Pd   -0.00000    0.00000   -0.06717
 29 Pd   -0.01269   -0.00733    0.05651
 30 Pd   -0.00000   -0.07639    0.04639
 31 Pd    0.13683   -0.01416   -0.01461
 32 Pd   -0.00817   -0.00569   -0.02706
 33 Pd    0.00000    0.01744    0.02829
 34 Pd   -0.01984   -0.01146    0.02399
 35 Pd    0.05615    0.12558   -0.01461
 36 O     0.00000    0.00000    0.18702
 37 H    -0.00000    0.00000   -0.04939

      Step     Time          Energy         fmax
BFGS:    0 12:15:07    -5218.546108        0.2239
System changes: positions 

Initializing position-dependent things.

Density initialized from wave functions
                                                
                                                
                                                
                                                
                                                
                                                
                          H                     
                          O                     
                 Pd     Pd     Pd               
                                                
           Pd     PPd    PPd     Pd             
             Pd     PPd    PPd     Pd           
                                                
              PPd    PPd    PPd                 
                                                
                Pd     Pd     Pd                
                  Pd     Pd     Pd              
          Pd     Pd     Pd                      
            Pd     Pd     Pd                    
              Pd     Pd     Pd                  
                                                
                                                
                                                
                                                

Positions:
   0 Pd     0.000000    0.000000    9.999999    ( 0.0000,  0.0000,  0.0000)
   1 Pd     1.418446    0.818940   12.316312    ( 0.0000,  0.0000,  0.0000)
   2 Pd    -0.000000    1.637668   14.614662    ( 0.0000,  0.0000,  0.0000)
   3 Pd     2.835165   -0.001812   16.938493    ( 0.0000,  0.0000,  0.0000)
   4 Pd    -1.418446    2.456821    9.999999    ( 0.0000,  0.0000,  0.0000)
   5 Pd    -0.000000    3.275761   12.316312    ( 0.0000,  0.0000,  0.0000)
   6 Pd    -1.417066    4.095499   14.618263    ( 0.0000,  0.0000,  0.0000)
   7 Pd     1.416013    2.456231   16.938493    ( 0.0000,  0.0000,  0.0000)
   8 Pd    -2.836893    4.913642    9.999999    ( 0.0000,  0.0000,  0.0000)
   9 Pd    -1.418446    5.732582   12.316312    ( 0.0000,  0.0000,  0.0000)
  10 Pd    -2.837077    6.551629   14.614662    ( 0.0000,  0.0000,  0.0000)
  11 Pd    -0.000000    4.913642   16.946623    ( 0.0000,  0.0000,  0.0000)
  12 Pd     2.836893    0.000000    9.999999    ( 0.0000,  0.0000,  0.0000)
  13 Pd     4.255339    0.818940   12.316312    ( 0.0000,  0.0000,  0.0000)
  14 Pd     2.838245    1.638661   14.618461    ( 0.0000,  0.0000,  0.0000)
  15 Pd     5.675512   -0.001812   16.938493    ( 0.0000,  0.0000,  0.0000)
  16 Pd     1.418446    2.456821    9.999999    ( 0.0000,  0.0000,  0.0000)
  17 Pd     2.836893    3.275761   12.316312    ( 0.0000,  0.0000,  0.0000)
  18 Pd     1.417066    4.095499   14.618263    ( 0.0000,  0.0000,  0.0000)
  19 Pd     4.255339    2.456821   16.943267    ( 0.0000,  0.0000,  0.0000)
  20 Pd     0.000000    4.913642    9.999999    ( 0.0000,  0.0000,  0.0000)
  21 Pd     1.418446    5.732582   12.316312    ( 0.0000,  0.0000,  0.0000)
  22 Pd    -0.000000    6.549929   14.618263    ( 0.0000,  0.0000,  0.0000)
  23 Pd     2.836187    4.916044   16.938493    ( 0.0000,  0.0000,  0.0000)
  24 Pd     5.673785    0.000000    9.999999    ( 0.0000,  0.0000,  0.0000)
  25 Pd     7.092231    0.818940   12.316312    ( 0.0000,  0.0000,  0.0000)
  26 Pd     5.672433    1.638661   14.618461    ( 0.0000,  0.0000,  0.0000)
  27 Pd     8.510678   -0.000000   16.935537    ( 0.0000,  0.0000,  0.0000)
  28 Pd     4.255339    2.456821    9.999999    ( 0.0000,  0.0000,  0.0000)
  29 Pd     5.673785    3.275761   12.316312    ( 0.0000,  0.0000,  0.0000)
  30 Pd     4.255339    4.093140   14.618461    ( 0.0000,  0.0000,  0.0000)
  31 Pd     7.094664    2.456231   16.938493    ( 0.0000,  0.0000,  0.0000)
  32 Pd     2.836893    4.913642    9.999999    ( 0.0000,  0.0000,  0.0000)
  33 Pd     4.255339    5.732582   12.316312    ( 0.0000,  0.0000,  0.0000)
  34 Pd     2.837077    6.551629   14.614662    ( 0.0000,  0.0000,  0.0000)
  35 Pd     5.674491    4.916044   16.938493    ( 0.0000,  0.0000,  0.0000)
  36 O      4.255339    2.456821   18.949138    ( 0.0000,  0.0000,  0.0000)
  37 H      4.255339    2.456821   19.905760    ( 0.0000,  0.0000,  0.0000)

Unit cell:
           periodic     x           y           z      points  spacing
  1. axis:    yes    8.510678    0.000000    0.000000    40     0.1843
  2. axis:    yes   -4.255339    7.370463    0.000000    40     0.1843
  3. axis:    no     0.000000    0.000000   26.948937   148     0.1821

  Lengths:   8.510678   8.510678  26.948937
  Angles:   90.000000  90.000000 120.000000

Effective grid spacing dv^(1/3) = 0.1925

     iter     time        total  log10-change:
                         energy  eigst   dens
iter:   1 12:16:11 -5218.551565  -3.84
iter:   2 12:16:37 -5218.625113  -4.09  -3.44
iter:   3 12:17:03 -5218.548830c -4.52  -2.70
iter:   4 12:17:29 -5218.548600c -5.42  -3.87
iter:   5 12:17:55 -5218.548863c -6.34  -3.94
iter:   6 12:18:21 -5218.548628c -5.96  -3.79
iter:   7 12:18:47 -5218.548675c -6.12  -4.33c
iter:   8 12:19:13 -5218.548484c -6.05  -4.25c
iter:   9 12:19:39 -5218.548485c -6.62  -4.70c
iter:  10 12:20:05 -5218.548482c -7.31  -4.78c
iter:  11 12:20:31 -5218.548483c -7.50c -4.79c

Converged after 11 iterations.

Dipole moment: (-4.667629, -7.317778, 0.002152) |e|*Ang

Energy contributions relative to reference atoms: (reference = -4942243.008314)

Kinetic:       +808.443516
Potential:     -904.271907
External:        +0.000000
XC:            -5111.524101
Entropy (-ST):   -2.633195
Local:           -9.879393
--------------------------
Free energy:   -5219.865080
Extrapolated:  -5218.548483

Showing only first 2 kpts
 Kpt  Band  Eigenvalues  Occupancy
  0   289     -5.53201    1.67259
  0   290     -5.50684    1.59774
  0   291     -5.50273    1.58436
  0   292     -5.48372    1.51829

  1   289     -5.48839    1.53516
  1   290     -5.47691    1.49296
  1   291     -5.45579    1.40896
  1   292     -5.45297    1.39717


Fermi level: -5.36892

No gap

Forces in eV/Ang:
  0 Pd   -0.00000    0.00000   -0.00775
  1 Pd   -0.01576   -0.00910    0.03435
  2 Pd    0.00000    0.01576    0.01139
  3 Pd   -0.06612   -0.08939   -0.00793
  4 Pd   -0.00100    0.00976   -0.02552
  5 Pd    0.00000   -0.00525    0.02264
  6 Pd    0.00835    0.00482   -0.01580
  7 Pd   -0.11047   -0.01256   -0.00793
  8 Pd    0.00795   -0.00574   -0.02552
  9 Pd   -0.00455    0.00262    0.02264
 10 Pd    0.01365   -0.00788    0.01139
 11 Pd    0.00000    0.00000   -0.01569
 12 Pd    0.00895   -0.00402   -0.02552
 13 Pd    0.00000    0.01371    0.05669
 14 Pd    0.05150    0.02973    0.03999
 15 Pd    0.06612   -0.08939   -0.00793
 16 Pd    0.00100    0.00976   -0.02552
 17 Pd    0.01188   -0.00686    0.05669
 18 Pd   -0.00835    0.00482   -0.01580
 19 Pd   -0.00000   -0.00000   -0.13276
 20 Pd    0.00000    0.00000   -0.05610
 21 Pd    0.00455    0.00262    0.02264
 22 Pd    0.00000   -0.00964   -0.01580
 23 Pd   -0.04435    0.10195   -0.00793
 24 Pd   -0.00895   -0.00402   -0.02552
 25 Pd    0.01576   -0.00910    0.03435
 26 Pd   -0.05150    0.02973    0.03999
 27 Pd    0.00000   -0.00000    0.00586
 28 Pd    0.00000    0.00000   -0.06576
 29 Pd   -0.01188   -0.00686    0.05669
 30 Pd   -0.00000   -0.05947    0.03999
 31 Pd    0.11047   -0.01256   -0.00793
 32 Pd   -0.00795   -0.00574   -0.02552
 33 Pd    0.00000    0.01820    0.03435
 34 Pd   -0.01365   -0.00788    0.01139
 35 Pd    0.04435    0.10195   -0.00793
 36 O    -0.00000    0.00000   -0.05812
 37 H    -0.00000    0.00000    0.12686

BFGS:    1 12:20:46    -5218.548483        0.1328
System changes: positions 

Initializing position-dependent things.

Density initialized from wave functions
                                                
                                                
                                                
                                                
                                                
                                                
                          H                     
                          O                     
                 Pd     Pd     Pd               
                                                
           Pd     PPd    PPd     Pd             
             Pd     PPd    PPd     Pd           
                                                
              PPd    PPd    PPd                 
                                                
                Pd     Pd     Pd                
                  Pd     Pd     Pd              
          Pd     Pd     Pd                      
            Pd     Pd     Pd                    
              Pd     Pd     Pd                  
                                                
                                                
                                                
                                                

Positions:
   0 Pd     0.000000    0.000000    9.999999    ( 0.0000,  0.0000,  0.0000)
   1 Pd     1.418446    0.818940   12.316312    ( 0.0000,  0.0000,  0.0000)
   2 Pd    -0.000000    1.638586   14.615460    ( 0.0000,  0.0000,  0.0000)
   3 Pd     2.831594   -0.006683   16.937975    ( 0.0000,  0.0000,  0.0000)
   4 Pd    -1.418446    2.456821    9.999999    ( 0.0000,  0.0000,  0.0000)
   5 Pd    -0.000000    3.275761   12.316312    ( 0.0000,  0.0000,  0.0000)
   6 Pd    -1.416565    4.095788   14.617517    ( 0.0000,  0.0000,  0.0000)
   7 Pd     1.410009    2.455574   16.937975    ( 0.0000,  0.0000,  0.0000)
   8 Pd    -2.836893    4.913642    9.999999    ( 0.0000,  0.0000,  0.0000)
   9 Pd    -1.418446    5.732582   12.316312    ( 0.0000,  0.0000,  0.0000)
  10 Pd    -2.836282    6.551170   14.615460    ( 0.0000,  0.0000,  0.0000)
  11 Pd    -0.000000    4.913642   16.945750    ( 0.0000,  0.0000,  0.0000)
  12 Pd     2.836893    0.000000    9.999999    ( 0.0000,  0.0000,  0.0000)
  13 Pd     4.255339    0.818940   12.316312    ( 0.0000,  0.0000,  0.0000)
  14 Pd     2.841087    1.640302   14.620577    ( 0.0000,  0.0000,  0.0000)
  15 Pd     5.679084   -0.006683   16.937975    ( 0.0000,  0.0000,  0.0000)
  16 Pd     1.418446    2.456821    9.999999    ( 0.0000,  0.0000,  0.0000)
  17 Pd     2.836893    3.275761   12.316312    ( 0.0000,  0.0000,  0.0000)
  18 Pd     1.416565    4.095788   14.617517    ( 0.0000,  0.0000,  0.0000)
  19 Pd     4.255339    2.456821   16.934972    ( 0.0000,  0.0000,  0.0000)
  20 Pd     0.000000    4.913642    9.999999    ( 0.0000,  0.0000,  0.0000)
  21 Pd     1.418446    5.732582   12.316312    ( 0.0000,  0.0000,  0.0000)
  22 Pd    -0.000000    6.549350   14.617517    ( 0.0000,  0.0000,  0.0000)
  23 Pd     2.833754    4.921572   16.937975    ( 0.0000,  0.0000,  0.0000)
  24 Pd     5.673785    0.000000    9.999999    ( 0.0000,  0.0000,  0.0000)
  25 Pd     7.092231    0.818940   12.316312    ( 0.0000,  0.0000,  0.0000)
  26 Pd     5.669591    1.640302   14.620577    ( 0.0000,  0.0000,  0.0000)
  27 Pd     8.510678   -0.000000   16.935822    ( 0.0000,  0.0000,  0.0000)
  28 Pd     4.255339    2.456821    9.999999    ( 0.0000,  0.0000,  0.0000)
  29 Pd     5.673785    3.275761   12.316312    ( 0.0000,  0.0000,  0.0000)
  30 Pd     4.255339    4.089859   14.620577    ( 0.0000,  0.0000,  0.0000)
  31 Pd     7.100668    2.455574   16.937975    ( 0.0000,  0.0000,  0.0000)
  32 Pd     2.836893    4.913642    9.999999    ( 0.0000,  0.0000,  0.0000)
  33 Pd     4.255339    5.732582   12.316312    ( 0.0000,  0.0000,  0.0000)
  34 Pd     2.836282    6.551170   14.615460    ( 0.0000,  0.0000,  0.0000)
  35 Pd     5.676924    4.921572   16.937975    ( 0.0000,  0.0000,  0.0000)
  36 O      4.255339    2.456821   18.950683    ( 0.0000,  0.0000,  0.0000)
  37 H      4.255339    2.456821   19.908904    ( 0.0000,  0.0000,  0.0000)

Unit cell:
           periodic     x           y           z      points  spacing
  1. axis:    yes    8.510678    0.000000    0.000000    40     0.1843
  2. axis:    yes   -4.255339    7.370463    0.000000    40     0.1843
  3. axis:    no     0.000000    0.000000   26.948937   148     0.1821

  Lengths:   8.510678   8.510678  26.948937
  Angles:   90.000000  90.000000 120.000000

Effective grid spacing dv^(1/3) = 0.1925

     iter     time        total  log10-change:
                         energy  eigst   dens
iter:   1 12:21:50 -5218.628292  -2.98
iter:   2 12:22:16 -5220.508972  -2.73  -2.75
iter:   3 12:22:42 -5218.576062  -3.07  -2.04
iter:   4 12:23:09 -5218.562277  -4.01  -3.00
iter:   5 12:23:35 -5218.553993c -5.10  -3.17
iter:   6 12:24:01 -5218.553474c -5.59  -3.71
iter:   7 12:24:27 -5218.553304c -5.94  -3.88
iter:   8 12:24:54 -5218.552819c -5.69  -3.87
iter:   9 12:25:20 -5218.552824c -5.97  -4.13c
iter:  10 12:25:46 -5218.552757c -6.27  -4.01c
iter:  11 12:26:13 -5218.552671c -6.60  -4.37c
iter:  12 12:26:39 -5218.552688c -7.02  -4.38c
iter:  13 12:27:05 -5218.552677c -7.09  -4.33c
iter:  14 12:27:31 -5218.552678c -6.89  -4.29c
iter:  15 12:27:58 -5218.552714c -6.81  -4.48c
iter:  16 12:28:24 -5218.552734c -7.13  -4.55c
iter:  17 12:28:50 -5218.552742c -7.72c -4.88c

Converged after 17 iterations.

Dipole moment: (-5.335838, -6.932608, -0.002372) |e|*Ang

Energy contributions relative to reference atoms: (reference = -4942243.008314)

Kinetic:       +808.275988
Potential:     -904.133404
External:        +0.000000
XC:            -5111.487492
Entropy (-ST):   -2.635149
Local:           -9.890260
--------------------------
Free energy:   -5219.870317
Extrapolated:  -5218.552742

Showing only first 2 kpts
 Kpt  Band  Eigenvalues  Occupancy
  0   289     -5.53793    1.67343
  0   290     -5.51231    1.59728
  0   291     -5.50817    1.58379
  0   292     -5.48913    1.51755

  1   289     -5.49401    1.53518
  1   290     -5.48327    1.49580
  1   291     -5.46117    1.40800
  1   292     -5.45842    1.39648


Fermi level: -5.37453

No gap

Forces in eV/Ang:
  0 Pd    0.00000    0.00000   -0.01399
  1 Pd   -0.00989   -0.00571    0.04434
  2 Pd    0.00000    0.00585   -0.00170
  3 Pd   -0.04635   -0.06274   -0.00474
  4 Pd   -0.00065    0.01005   -0.02995
  5 Pd   -0.00000   -0.00412    0.01823
  6 Pd    0.00510    0.00294   -0.01125
  7 Pd   -0.07751   -0.00877   -0.00474
  8 Pd    0.00838   -0.00559   -0.02995
  9 Pd   -0.00357    0.00206    0.01823
 10 Pd    0.00506   -0.00292   -0.00170
 11 Pd    0.00000    0.00000   -0.01638
 12 Pd    0.00903   -0.00446   -0.02995
 13 Pd    0.00000    0.01600    0.05587
 14 Pd    0.01980    0.01143    0.02597
 15 Pd    0.04635   -0.06274   -0.00474
 16 Pd    0.00065    0.01005   -0.02995
 17 Pd    0.01386   -0.00800    0.05587
 18 Pd   -0.00510    0.00294   -0.01125
 19 Pd    0.00000   -0.00000   -0.01932
 20 Pd    0.00000    0.00000   -0.05982
 21 Pd    0.00357    0.00206    0.01823
 22 Pd   -0.00000   -0.00588   -0.01125
 23 Pd   -0.03116    0.07151   -0.00474
 24 Pd   -0.00903   -0.00446   -0.02995
 25 Pd    0.00989   -0.00571    0.04434
 26 Pd   -0.01980    0.01143    0.02597
 27 Pd    0.00000   -0.00000    0.00652
 28 Pd    0.00000    0.00000   -0.06945
 29 Pd   -0.01386   -0.00800    0.05587
 30 Pd    0.00000   -0.02287    0.02597
 31 Pd    0.07751   -0.00877   -0.00474
 32 Pd   -0.00838   -0.00559   -0.02995
 33 Pd    0.00000    0.01142    0.04434
 34 Pd   -0.00506   -0.00292   -0.00170
 35 Pd    0.03116    0.07151   -0.00474
 36 O     0.00000    0.00000   -0.09899
 37 H    -0.00000   -0.00000    0.05013

BFGS:    2 12:29:05    -5218.552742        0.0990
System changes: positions 

Initializing position-dependent things.

Density initialized from wave functions
                                                
                                                
                                                
                                                
                                                
                                                
                          H                     
                          O                     
                 Pd     Pd     Pd               
                                                
           Pd     PPd    PPd     Pd             
             Pd     PPd    PPd     Pd           
                                                
              PPd    PPd    PPd                 
                                                
                Pd     Pd     Pd                
                  Pd     Pd     Pd              
          Pd     Pd     Pd                      
            Pd     Pd     Pd                    
              Pd     Pd     Pd                  
                                                
                                                
                                                
                                                

Positions:
   0 Pd     0.000000    0.000000    9.999999    ( 0.0000,  0.0000,  0.0000)
   1 Pd     1.418446    0.818940   12.316312    ( 0.0000,  0.0000,  0.0000)
   2 Pd    -0.000000    1.639648   14.616226    ( 0.0000,  0.0000,  0.0000)
   3 Pd     2.826843   -0.013166   16.937310    ( 0.0000,  0.0000,  0.0000)
   4 Pd    -1.418446    2.456821    9.999999    ( 0.0000,  0.0000,  0.0000)
   5 Pd    -0.000000    3.275761   12.316312    ( 0.0000,  0.0000,  0.0000)
   6 Pd    -1.415921    4.096159   14.616522    ( 0.0000,  0.0000,  0.0000)
   7 Pd     1.402020    2.454701   16.937310    ( 0.0000,  0.0000,  0.0000)
   8 Pd    -2.836893    4.913642    9.999999    ( 0.0000,  0.0000,  0.0000)
   9 Pd    -1.418446    5.732582   12.316312    ( 0.0000,  0.0000,  0.0000)
  10 Pd    -2.835362    6.550639   14.616226    ( 0.0000,  0.0000,  0.0000)
  11 Pd    -0.000000    4.913642   16.944423    ( 0.0000,  0.0000,  0.0000)
  12 Pd     2.836893    0.000000    9.999999    ( 0.0000,  0.0000,  0.0000)
  13 Pd     4.255339    0.818940   12.316312    ( 0.0000,  0.0000,  0.0000)
  14 Pd     2.844365    1.642195   14.623328    ( 0.0000,  0.0000,  0.0000)
  15 Pd     5.683834   -0.013166   16.937310    ( 0.0000,  0.0000,  0.0000)
  16 Pd     1.418446    2.456821    9.999999    ( 0.0000,  0.0000,  0.0000)
  17 Pd     2.836893    3.275761   12.316312    ( 0.0000,  0.0000,  0.0000)
  18 Pd     1.415921    4.096159   14.616522    ( 0.0000,  0.0000,  0.0000)
  19 Pd     4.255339    2.456821   16.926195    ( 0.0000,  0.0000,  0.0000)
  20 Pd     0.000000    4.913642    9.999999    ( 0.0000,  0.0000,  0.0000)
  21 Pd     1.418446    5.732582   12.316312    ( 0.0000,  0.0000,  0.0000)
  22 Pd    -0.000000    6.548607   14.616522    ( 0.0000,  0.0000,  0.0000)
  23 Pd     2.830515    4.928928   16.937310    ( 0.0000,  0.0000,  0.0000)
  24 Pd     5.673785    0.000000    9.999999    ( 0.0000,  0.0000,  0.0000)
  25 Pd     7.092231    0.818940   12.316312    ( 0.0000,  0.0000,  0.0000)
  26 Pd     5.666313    1.642195   14.623328    ( 0.0000,  0.0000,  0.0000)
  27 Pd     8.510678   -0.000000   16.936275    ( 0.0000,  0.0000,  0.0000)
  28 Pd     4.255339    2.456821    9.999999    ( 0.0000,  0.0000,  0.0000)
  29 Pd     5.673785    3.275761   12.316312    ( 0.0000,  0.0000,  0.0000)
  30 Pd     4.255339    4.086073   14.623328    ( 0.0000,  0.0000,  0.0000)
  31 Pd     7.108658    2.454701   16.937310    ( 0.0000,  0.0000,  0.0000)
  32 Pd     2.836893    4.913642    9.999999    ( 0.0000,  0.0000,  0.0000)
  33 Pd     4.255339    5.732582   12.316312    ( 0.0000,  0.0000,  0.0000)
  34 Pd     2.835362    6.550639   14.616226    ( 0.0000,  0.0000,  0.0000)
  35 Pd     5.680162    4.928928   16.937310    ( 0.0000,  0.0000,  0.0000)
  36 O      4.255339    2.456821   18.951017    ( 0.0000,  0.0000,  0.0000)
  37 H      4.255339    2.456821   19.911828    ( 0.0000,  0.0000,  0.0000)

Unit cell:
           periodic     x           y           z      points  spacing
  1. axis:    yes    8.510678    0.000000    0.000000    40     0.1843
  2. axis:    yes   -4.255339    7.370463    0.000000    40     0.1843
  3. axis:    no     0.000000    0.000000   26.948937   148     0.1821

  Lengths:   8.510678   8.510678  26.948937
  Angles:   90.000000  90.000000 120.000000

Effective grid spacing dv^(1/3) = 0.1925

     iter     time        total  log10-change:
                         energy  eigst   dens
iter:   1 12:30:09 -5218.625926  -2.81
iter:   2 12:30:35 -5220.201561  -2.77  -2.72
iter:   3 12:31:01 -5218.566571  -3.36  -2.07
iter:   4 12:31:27 -5218.558655  -3.87  -3.13
iter:   5 12:31:53 -5218.554943c -4.71  -3.36
iter:   6 12:32:19 -5218.554473c -5.40  -3.63
iter:   7 12:32:45 -5218.554252c -5.70  -3.76
iter:   8 12:33:12 -5218.553983c -5.49  -3.81
iter:   9 12:33:38 -5218.553927c -5.74  -4.15c
iter:  10 12:34:04 -5218.553951c -6.36  -4.24c
iter:  11 12:34:30 -5218.553993c -6.67  -4.20c
iter:  12 12:34:56 -5218.554013c -6.45  -4.17c
iter:  13 12:35:22 -5218.553987c -6.75  -4.23c
iter:  14 12:35:49 -5218.553940c -6.72  -4.30c
iter:  15 12:36:15 -5218.553917c -7.28  -4.66c
iter:  16 12:36:41 -5218.553907c -7.64c -4.71c

Converged after 16 iterations.

Dipole moment: (-6.223255, -6.416455, -0.007207) |e|*Ang

Energy contributions relative to reference atoms: (reference = -4942243.008314)

Kinetic:       +808.365136
Potential:     -904.236836
External:        +0.000000
XC:            -5111.471982
Entropy (-ST):   -2.636992
Local:           -9.891729
--------------------------
Free energy:   -5219.872403
Extrapolated:  -5218.553907

Showing only first 2 kpts
 Kpt  Band  Eigenvalues  Occupancy
  0   289     -5.54112    1.67236
  0   290     -5.51569    1.59662
  0   291     -5.51148    1.58290
  0   292     -5.49269    1.51748

  1   289     -5.49755    1.53503
  1   290     -5.48791    1.49976
  1   291     -5.46465    1.40758
  1   292     -5.46178    1.39553


Fermi level: -5.37811

No gap

Forces in eV/Ang:
  0 Pd    0.00000    0.00000   -0.01079
  1 Pd   -0.00667   -0.00385    0.05971
  2 Pd    0.00000   -0.01100   -0.02057
  3 Pd   -0.01094   -0.01076    0.00349
  4 Pd   -0.00018    0.01013   -0.02629
  5 Pd    0.00000   -0.00529    0.01672
  6 Pd   -0.00439   -0.00254   -0.00409
  7 Pd   -0.01479   -0.00410    0.00349
  8 Pd    0.00869   -0.00522   -0.02629
  9 Pd   -0.00458    0.00265    0.01672
 10 Pd   -0.00953    0.00550   -0.02057
 11 Pd   -0.00000    0.00000   -0.00923
 12 Pd    0.00886   -0.00491   -0.02629
 13 Pd    0.00000    0.01695    0.05909
 14 Pd   -0.01908   -0.01102    0.01257
 15 Pd    0.01094   -0.01076    0.00349
 16 Pd    0.00018    0.01013   -0.02629
 17 Pd    0.01468   -0.00847    0.05909
 18 Pd    0.00439   -0.00254   -0.00409
 19 Pd    0.00000    0.00000    0.10889
 20 Pd    0.00000    0.00000   -0.05686
 21 Pd    0.00458    0.00265    0.01672
 22 Pd    0.00000    0.00507   -0.00409
 23 Pd   -0.00385    0.01485    0.00349
 24 Pd   -0.00886   -0.00491   -0.02629
 25 Pd    0.00667   -0.00385    0.05971
 26 Pd    0.01908   -0.01102    0.01257
 27 Pd    0.00000    0.00000    0.00736
 28 Pd    0.00000    0.00000   -0.06553
 29 Pd   -0.01468   -0.00847    0.05909
 30 Pd    0.00000    0.02203    0.01257
 31 Pd    0.01479   -0.00410    0.00349
 32 Pd   -0.00869   -0.00522   -0.02629
 33 Pd    0.00000    0.00770    0.05971
 34 Pd    0.00953    0.00550   -0.02057
 35 Pd    0.00385    0.01485    0.00349
 36 O     0.00000    0.00000   -0.07048
 37 H    -0.00000   -0.00000   -0.08127

BFGS:    3 12:36:56    -5218.553907        0.1089
System changes: positions 

Initializing position-dependent things.

Density initialized from wave functions
                                                
                                                
                                                
                                                
                                                
                                                
                          H                     
                          O                     
                 Pd     Pd     Pd               
                                                
           Pd     PPd    PPd     Pd             
             Pd     PPd    PPd     Pd           
                                                
              PPd    PPd    PPd                 
                                                
                Pd     Pd     Pd                
                  Pd     Pd     Pd              
          Pd     Pd     Pd                      
            Pd     Pd     Pd                    
              Pd     Pd     Pd                  
                                                
                                                
                                                
                                                

Positions:
   0 Pd     0.000000    0.000000    9.999999    ( 0.0000,  0.0000,  0.0000)
   1 Pd     1.418446    0.818940   12.316312    ( 0.0000,  0.0000,  0.0000)
   2 Pd    -0.000000    1.639421   14.615902    ( 0.0000,  0.0000,  0.0000)
   3 Pd     2.827094   -0.012772   16.937408    ( 0.0000,  0.0000,  0.0000)
   4 Pd    -1.418446    2.456821    9.999999    ( 0.0000,  0.0000,  0.0000)
   5 Pd    -0.000000    3.275761   12.316312    ( 0.0000,  0.0000,  0.0000)
   6 Pd    -1.416029    4.096097   14.616552    ( 0.0000,  0.0000,  0.0000)
   7 Pd     1.402487    2.454721   16.937408    ( 0.0000,  0.0000,  0.0000)
   8 Pd    -2.836893    4.913642    9.999999    ( 0.0000,  0.0000,  0.0000)
   9 Pd    -1.418446    5.732582   12.316312    ( 0.0000,  0.0000,  0.0000)
  10 Pd    -2.835558    6.550752   14.615902    ( 0.0000,  0.0000,  0.0000)
  11 Pd    -0.000000    4.913642   16.944412    ( 0.0000,  0.0000,  0.0000)
  12 Pd     2.836893    0.000000    9.999999    ( 0.0000,  0.0000,  0.0000)
  13 Pd     4.255339    0.818940   12.316312    ( 0.0000,  0.0000,  0.0000)
  14 Pd     2.843849    1.641897   14.623258    ( 0.0000,  0.0000,  0.0000)
  15 Pd     5.683583   -0.012772   16.937408    ( 0.0000,  0.0000,  0.0000)
  16 Pd     1.418446    2.456821    9.999999    ( 0.0000,  0.0000,  0.0000)
  17 Pd     2.836893    3.275761   12.316312    ( 0.0000,  0.0000,  0.0000)
  18 Pd     1.416029    4.096097   14.616552    ( 0.0000,  0.0000,  0.0000)
  19 Pd     4.255339    2.456821   16.928315    ( 0.0000,  0.0000,  0.0000)
  20 Pd     0.000000    4.913642    9.999999    ( 0.0000,  0.0000,  0.0000)
  21 Pd     1.418446    5.732582   12.316312    ( 0.0000,  0.0000,  0.0000)
  22 Pd    -0.000000    6.548731   14.616552    ( 0.0000,  0.0000,  0.0000)
  23 Pd     2.830731    4.928513   16.937408    ( 0.0000,  0.0000,  0.0000)
  24 Pd     5.673785    0.000000    9.999999    ( 0.0000,  0.0000,  0.0000)
  25 Pd     7.092231    0.818940   12.316312    ( 0.0000,  0.0000,  0.0000)
  26 Pd     5.666829    1.641897   14.623258    ( 0.0000,  0.0000,  0.0000)
  27 Pd     8.510678   -0.000000   16.936331    ( 0.0000,  0.0000,  0.0000)
  28 Pd     4.255339    2.456821    9.999999    ( 0.0000,  0.0000,  0.0000)
  29 Pd     5.673785    3.275761   12.316312    ( 0.0000,  0.0000,  0.0000)
  30 Pd     4.255339    4.086670   14.623258    ( 0.0000,  0.0000,  0.0000)
  31 Pd     7.108191    2.454721   16.937408    ( 0.0000,  0.0000,  0.0000)
  32 Pd     2.836893    4.913642    9.999999    ( 0.0000,  0.0000,  0.0000)
  33 Pd     4.255339    5.732582   12.316312    ( 0.0000,  0.0000,  0.0000)
  34 Pd     2.835558    6.550752   14.615902    ( 0.0000,  0.0000,  0.0000)
  35 Pd     5.679946    4.928513   16.937408    ( 0.0000,  0.0000,  0.0000)
  36 O      4.255339    2.456821   18.950082    ( 0.0000,  0.0000,  0.0000)
  37 H      4.255339    2.456821   19.910541    ( 0.0000,  0.0000,  0.0000)

Unit cell:
           periodic     x           y           z      points  spacing
  1. axis:    yes    8.510678    0.000000    0.000000    40     0.1843
  2. axis:    yes   -4.255339    7.370463    0.000000    40     0.1843
  3. axis:    no     0.000000    0.000000   26.948937   148     0.1821

  Lengths:   8.510678   8.510678  26.948937
  Angles:   90.000000  90.000000 120.000000

Effective grid spacing dv^(1/3) = 0.1925

     iter     time        total  log10-change:
                         energy  eigst   dens
iter:   1 12:37:59 -5218.641318  -4.04
iter:   2 12:38:25 -5221.084113  -2.65  -2.68
iter:   3 12:38:52 -5218.600891  -3.25  -1.99
iter:   4 12:39:18 -5218.555429  -3.85  -2.86
iter:   5 12:39:44 -5218.554682c -4.46  -3.73
iter:   6 12:40:11 -5218.554686c -5.19  -4.14c
iter:   7 12:40:37 -5218.554666c -5.75  -4.44c
iter:   8 12:41:03 -5218.554608c -6.21  -4.51c
iter:   9 12:41:30 -5218.554562c -6.69  -4.76c
iter:  10 12:41:56 -5218.554535c -7.11  -4.58c
iter:  11 12:42:22 -5218.554482c -7.37  -4.82c
iter:  12 12:42:49 -5218.554455c -7.58c -4.87c

Converged after 12 iterations.

Dipole moment: (-6.173493, -6.444884, -0.004847) |e|*Ang

Energy contributions relative to reference atoms: (reference = -4942243.008314)

Kinetic:       +808.407776
Potential:     -904.280467
External:        +0.000000
XC:            -5111.480505
Entropy (-ST):   -2.636522
Local:           -9.882998
--------------------------
Free energy:   -5219.872716
Extrapolated:  -5218.554455

Showing only first 2 kpts
 Kpt  Band  Eigenvalues  Occupancy
  0   289     -5.53949    1.67252
  0   290     -5.51402    1.59668
  0   291     -5.50983    1.58300
  0   292     -5.49102    1.51754

  1   289     -5.49583    1.53492
  1   290     -5.48598    1.49884
  1   291     -5.46296    1.40753
  1   292     -5.46008    1.39548


Fermi level: -5.37643

No gap

Forces in eV/Ang:
  0 Pd    0.00000    0.00000   -0.01179
  1 Pd   -0.00755   -0.00436    0.05394
  2 Pd    0.00000   -0.00746   -0.01876
  3 Pd   -0.01564   -0.01714    0.00093
  4 Pd    0.00013    0.00994   -0.02777
  5 Pd    0.00000   -0.00544    0.01332
  6 Pd   -0.00450   -0.00260   -0.00724
  7 Pd   -0.02266   -0.00497    0.00093
  8 Pd    0.00867   -0.00486   -0.02777
  9 Pd   -0.00472    0.00272    0.01332
 10 Pd   -0.00646    0.00373   -0.01876
 11 Pd    0.00000    0.00000   -0.00755
 12 Pd    0.00854   -0.00508   -0.02777
 13 Pd    0.00000    0.01732    0.05745
 14 Pd   -0.00723   -0.00417    0.01326
 15 Pd    0.01564   -0.01714    0.00093
 16 Pd   -0.00013    0.00994   -0.02777
 17 Pd    0.01500   -0.00866    0.05745
 18 Pd    0.00450   -0.00260   -0.00724
 19 Pd    0.00000    0.00000    0.05864
 20 Pd    0.00000    0.00000   -0.05925
 21 Pd    0.00472    0.00272    0.01332
 22 Pd    0.00000    0.00519   -0.00724
 23 Pd   -0.00702    0.02211    0.00093
 24 Pd   -0.00854   -0.00508   -0.02777
 25 Pd    0.00755   -0.00436    0.05394
 26 Pd    0.00723   -0.00417    0.01326
 27 Pd    0.00000   -0.00000    0.00916
 28 Pd   -0.00000    0.00000   -0.06695
 29 Pd   -0.01500   -0.00866    0.05745
 30 Pd    0.00000    0.00835    0.01326
 31 Pd    0.02266   -0.00497    0.00093
 32 Pd   -0.00867   -0.00486   -0.02777
 33 Pd    0.00000    0.00872    0.05394
 34 Pd    0.00646    0.00373   -0.01876
 35 Pd    0.00702    0.02211    0.00093
 36 O     0.00000    0.00000   -0.04596
 37 H     0.00000    0.00000   -0.06502

BFGS:    4 12:43:04    -5218.554455        0.0650
System changes: positions 

Initializing position-dependent things.

Density initialized from wave functions
                                                
                                                
                                                
                                                
                                                
                                                
                          H                     
                          O                     
                 Pd     Pd     Pd               
                                                
           Pd     PPd    PPd     Pd             
             Pd     PPd    PPd     Pd           
                                                
              PPd    PPd    PPd                 
                                                
                Pd     Pd     Pd                
                  Pd     Pd     Pd              
          Pd     Pd     Pd                      
            Pd     Pd     Pd                    
              Pd     Pd     Pd                  
                                                
                                                
                                                
                                                

Positions:
   0 Pd     0.000000    0.000000    9.999999    ( 0.0000,  0.0000,  0.0000)
   1 Pd     1.418446    0.818940   12.316312    ( 0.0000,  0.0000,  0.0000)
   2 Pd    -0.000000    1.639061   14.614996    ( 0.0000,  0.0000,  0.0000)
   3 Pd     2.826061   -0.013973   16.937455    ( 0.0000,  0.0000,  0.0000)
   4 Pd    -1.418446    2.456821    9.999999    ( 0.0000,  0.0000,  0.0000)
   5 Pd    -0.000000    3.275761   12.316312    ( 0.0000,  0.0000,  0.0000)
   6 Pd    -1.416203    4.095997   14.616183    ( 0.0000,  0.0000,  0.0000)
   7 Pd     1.400930    2.454427   16.937455    ( 0.0000,  0.0000,  0.0000)
   8 Pd    -2.836893    4.913642    9.999999    ( 0.0000,  0.0000,  0.0000)
   9 Pd    -1.418446    5.732582   12.316312    ( 0.0000,  0.0000,  0.0000)
  10 Pd    -2.835870    6.550933   14.614996    ( 0.0000,  0.0000,  0.0000)
  11 Pd    -0.000000    4.913642   16.943910    ( 0.0000,  0.0000,  0.0000)
  12 Pd     2.836893    0.000000    9.999999    ( 0.0000,  0.0000,  0.0000)
  13 Pd     4.255339    0.818940   12.316312    ( 0.0000,  0.0000,  0.0000)
  14 Pd     2.843507    1.641699   14.624110    ( 0.0000,  0.0000,  0.0000)
  15 Pd     5.684617   -0.013973   16.937455    ( 0.0000,  0.0000,  0.0000)
  16 Pd     1.418446    2.456821    9.999999    ( 0.0000,  0.0000,  0.0000)
  17 Pd     2.836893    3.275761   12.316312    ( 0.0000,  0.0000,  0.0000)
  18 Pd     1.416203    4.095997   14.616183    ( 0.0000,  0.0000,  0.0000)
  19 Pd     4.255339    2.456821   16.931512    ( 0.0000,  0.0000,  0.0000)
  20 Pd     0.000000    4.913642    9.999999    ( 0.0000,  0.0000,  0.0000)
  21 Pd     1.418446    5.732582   12.316312    ( 0.0000,  0.0000,  0.0000)
  22 Pd    -0.000000    6.548933   14.616183    ( 0.0000,  0.0000,  0.0000)
  23 Pd     2.830208    4.930009   16.937455    ( 0.0000,  0.0000,  0.0000)
  24 Pd     5.673785    0.000000    9.999999    ( 0.0000,  0.0000,  0.0000)
  25 Pd     7.092231    0.818940   12.316312    ( 0.0000,  0.0000,  0.0000)
  26 Pd     5.667171    1.641699   14.624110    ( 0.0000,  0.0000,  0.0000)
  27 Pd     8.510678   -0.000000   16.936783    ( 0.0000,  0.0000,  0.0000)
  28 Pd     4.255339    2.456821    9.999999    ( 0.0000,  0.0000,  0.0000)
  29 Pd     5.673785    3.275761   12.316312    ( 0.0000,  0.0000,  0.0000)
  30 Pd     4.255339    4.087064   14.624110    ( 0.0000,  0.0000,  0.0000)
  31 Pd     7.109748    2.454427   16.937455    ( 0.0000,  0.0000,  0.0000)
  32 Pd     2.836893    4.913642    9.999999    ( 0.0000,  0.0000,  0.0000)
  33 Pd     4.255339    5.732582   12.316312    ( 0.0000,  0.0000,  0.0000)
  34 Pd     2.835870    6.550933   14.614996    ( 0.0000,  0.0000,  0.0000)
  35 Pd     5.680470    4.930009   16.937455    ( 0.0000,  0.0000,  0.0000)
  36 O      4.255339    2.456821   18.947490    ( 0.0000,  0.0000,  0.0000)
  37 H      4.255339    2.456821   19.907127    ( 0.0000,  0.0000,  0.0000)

Unit cell:
           periodic     x           y           z      points  spacing
  1. axis:    yes    8.510678    0.000000    0.000000    40     0.1843
  2. axis:    yes   -4.255339    7.370463    0.000000    40     0.1843
  3. axis:    no     0.000000    0.000000   26.948937   148     0.1821

  Lengths:   8.510678   8.510678  26.948937
  Angles:   90.000000  90.000000 120.000000

Effective grid spacing dv^(1/3) = 0.1925

     iter     time        total  log10-change:
                         energy  eigst   dens
iter:   1 12:44:07 -5218.558123  -3.94
iter:   2 12:44:33 -5218.607388  -4.19  -3.44
iter:   3 12:44:59 -5218.567435c -4.31  -2.79
iter:   4 12:45:25 -5218.556027c -5.39  -3.11
iter:   5 12:45:52 -5218.555712c -6.16  -3.82
iter:   6 12:46:18 -5218.555693c -6.63  -4.19c
iter:   7 12:46:44 -5218.555696c -6.75  -4.32c
iter:   8 12:47:10 -5218.555690c -6.57  -4.46c
iter:   9 12:47:36 -5218.555598c -6.69  -4.42c
iter:  10 12:48:03 -5218.555587c -7.31  -4.76c
iter:  11 12:48:29 -5218.555577c -7.56c -4.79c

Converged after 11 iterations.

Dipole moment: (-6.350777, -6.339443, -0.001433) |e|*Ang

Energy contributions relative to reference atoms: (reference = -4942243.008314)

Kinetic:       +808.422023
Potential:     -904.286902
External:        +0.000000
XC:            -5111.496054
Entropy (-ST):   -2.635544
Local:           -9.876872
--------------------------
Free energy:   -5219.873349
Extrapolated:  -5218.555577

Showing only first 2 kpts
 Kpt  Band  Eigenvalues  Occupancy
  0   289     -5.53620    1.67219
  0   290     -5.51099    1.59712
  0   291     -5.50674    1.58327
  0   292     -5.48805    1.51828

  1   289     -5.49250    1.53435
  1   290     -5.48262    1.49812
  1   291     -5.45982    1.40767
  1   292     -5.45694    1.39560


Fermi level: -5.37325

No gap

Forces in eV/Ang:
  0 Pd   -0.00000    0.00000   -0.01207
  1 Pd   -0.00430   -0.00249    0.05147
  2 Pd   -0.00000   -0.00181   -0.01363
  3 Pd   -0.00434   -0.00516   -0.00098
  4 Pd   -0.00026    0.01002   -0.02770
  5 Pd    0.00000   -0.00490    0.01208
  6 Pd   -0.00759   -0.00438   -0.00275
  7 Pd   -0.00664   -0.00118   -0.00098
  8 Pd    0.00854   -0.00523   -0.02770
  9 Pd   -0.00424    0.00245    0.01208
 10 Pd   -0.00157    0.00091   -0.01363
 11 Pd    0.00000    0.00000   -0.00326
 12 Pd    0.00880   -0.00478   -0.02770
 13 Pd    0.00000    0.02103    0.06158
 14 Pd    0.00447    0.00258    0.01643
 15 Pd    0.00434   -0.00516   -0.00098
 16 Pd    0.00026    0.01002   -0.02770
 17 Pd    0.01821   -0.01051    0.06158
 18 Pd    0.00759   -0.00438   -0.00275
 19 Pd    0.00000    0.00000   -0.00899
 20 Pd    0.00000    0.00000   -0.05933
 21 Pd    0.00424    0.00245    0.01208
 22 Pd   -0.00000    0.00877   -0.00275
 23 Pd   -0.00230    0.00634   -0.00098
 24 Pd   -0.00880   -0.00478   -0.02770
 25 Pd    0.00430   -0.00249    0.05147
 26 Pd   -0.00447    0.00258    0.01643
 27 Pd   -0.00000    0.00000    0.00841
 28 Pd    0.00000    0.00000   -0.06604
 29 Pd   -0.01821   -0.01051    0.06158
 30 Pd    0.00000   -0.00516    0.01643
 31 Pd    0.00664   -0.00118   -0.00098
 32 Pd   -0.00854   -0.00523   -0.02770
 33 Pd   -0.00000    0.00497    0.05147
 34 Pd    0.00157    0.00091   -0.01363
 35 Pd    0.00230    0.00634   -0.00098
 36 O    -0.00000    0.00000   -0.02885
 37 H    -0.00000    0.00000   -0.02569

BFGS:    5 12:48:44    -5218.555577        0.0288
Timing:                                      incl.     excl.
-------------------------------------------------------------------
Density initialized from wave functions:     1.480     1.126   0.0% |
 Symmetrize density:                         0.353     0.353   0.0% |
Forces:                                     90.380    90.380   2.9% ||
Hamiltonian:                                16.206     0.001   0.0% |
 Atomic:                                     0.001     0.001   0.0% |
  XC Correction:                             0.000     0.000   0.0% |
 Calculate atomic Hamiltonians:              0.001     0.001   0.0% |
 Communicate:                                0.670     0.670   0.0% |
 Hartree integrate/restrict:                 0.017     0.017   0.0% |
 Initialize Hamiltonian:                     0.000     0.000   0.0% |
 Poisson:                                    0.319     0.009   0.0% |
  Communicate from 1D:                       0.054     0.054   0.0% |
  Communicate from 2D:                       0.050     0.050   0.0% |
  Communicate to 1D:                         0.046     0.046   0.0% |
  Communicate to 2D:                         0.060     0.060   0.0% |
  FFT 1D:                                    0.058     0.058   0.0% |
  FFT 2D:                                    0.043     0.043   0.0% |
 XC 3D grid:                                15.010     1.186   0.0% |
  VdW-DF integral:                          13.824     0.746   0.0% |
   Convolution:                              1.231     1.231   0.0% |
   FFT:                                      0.814     0.814   0.0% |
   gather:                                   2.501     2.501   0.1% |
   hmm1:                                     0.232     0.232   0.0% |
   hmm2:                                     0.505     0.505   0.0% |
   iFFT:                                     0.786     0.786   0.0% |
   potential:                                3.352     0.069   0.0% |
    collect:                                 0.280     0.280   0.0% |
    p1:                                      2.027     2.027   0.1% |
    p2:                                      0.721     0.721   0.0% |
    sum:                                     0.255     0.255   0.0% |
   splines:                                  3.657     3.657   0.1% |
 vbar:                                       0.187     0.187   0.0% |
LCAO initialization:                        26.737     1.089   0.0% |
 LCAO eigensolver:                          17.451     0.008   0.0% |
  Calculate projections:                     0.000     0.000   0.0% |
  DenseAtomicCorrection:                     0.000     0.000   0.0% |
  Distribute overlap matrix:                15.144    15.144   0.5% |
  Orbital Layouts:                           1.737     1.737   0.1% |
  Potential matrix:                          0.055     0.055   0.0% |
  Sum over cells:                            0.507     0.507   0.0% |
 LCAO to grid:                               7.151     7.151   0.2% |
 Set positions (LCAO WFS):                   1.045     0.692   0.0% |
  Basic WFS set positions:                   0.005     0.005   0.0% |
  Basis functions set positions:             0.000     0.000   0.0% |
  P tci:                                     0.001     0.001   0.0% |
  ST tci:                                    0.234     0.234   0.0% |
  mktci:                                     0.113     0.113   0.0% |
Redistribute:                                0.004     0.004   0.0% |
SCF-cycle:                                2773.353    13.802   0.4% |
 Davidson:                                2517.715   678.198  22.1% |--------|
  Apply hamiltonian:                        57.627    57.627   1.9% ||
  Subspace diag:                           263.450     0.037   0.0% |
   calc_h_matrix:                          123.867    68.426   2.2% ||
    Apply hamiltonian:                      55.441    55.441   1.8% ||
   diagonalize:                             14.481    14.481   0.5% |
   rotate_psi:                             125.065   125.065   4.1% |-|
  calc. matrices:                         1141.706   473.619  15.4% |-----|
   Apply hamiltonian:                      668.087   668.087  21.7% |--------|
  diagonalize:                             133.157   133.157   4.3% |-|
  rotate_psi:                              243.577   243.577   7.9% |--|
 Density:                                   11.400     0.002   0.0% |
  Atomic density matrices:                   0.532     0.532   0.0% |
  Mix:                                       0.345     0.345   0.0% |
  Multipole moments:                         0.039     0.039   0.0% |
  Pseudo density:                           10.481     3.186   0.1% |
   Symmetrize density:                       7.295     7.295   0.2% |
 Hamiltonian:                              207.583     0.010   0.0% |
  Atomic:                                    0.020     0.020   0.0% |
   XC Correction:                            0.000     0.000   0.0% |
  Calculate atomic Hamiltonians:             0.024     0.024   0.0% |
  Communicate:                              11.016    11.016   0.4% |
  Hartree integrate/restrict:                0.232     0.232   0.0% |
  Poisson:                                   5.226     0.128   0.0% |
   Communicate from 1D:                      0.859     0.859   0.0% |
   Communicate from 2D:                      0.800     0.800   0.0% |
   Communicate to 1D:                        0.733     0.733   0.0% |
   Communicate to 2D:                        1.017     1.017   0.0% |
   FFT 1D:                                   0.971     0.971   0.0% |
   FFT 2D:                                   0.718     0.718   0.0% |
  XC 3D grid:                              190.998    19.477   0.6% |
   VdW-DF integral:                        171.521    12.604   0.4% |
    Convolution:                            20.800    20.800   0.7% |
    FFT:                                    14.189    14.189   0.5% |
    gather:                                 42.429    42.429   1.4% ||
    hmm1:                                    3.834     3.834   0.1% |
    hmm2:                                    8.575     8.575   0.3% |
    iFFT:                                   13.120    13.120   0.4% |
    potential:                              55.969     1.174   0.0% |
     collect:                                4.827     4.827   0.2% |
     p1:                                    33.720    33.720   1.1% |
     p2:                                    12.041    12.041   0.4% |
     sum:                                    4.207     4.207   0.1% |
    splines:                                 0.001     0.001   0.0% |
  vbar:                                      0.057     0.057   0.0% |
 Orthonormalize:                            22.853     0.003   0.0% |
  calc_s_matrix:                             1.664     1.664   0.1% |
  inverse-cholesky:                         17.551    17.551   0.6% |
  projections:                               0.001     0.001   0.0% |
  rotate_psi_s:                              3.634     3.634   0.1% |
Set symmetry:                                0.003     0.003   0.0% |
Other:                                     167.309   167.309   5.4% |-|
-------------------------------------------------------------------
Total:                                              3075.471 100.0%

Memory usage: 1.23 GiB
Date: Tue Sep 26 12:48:44 2023
