
  ___ ___ ___ _ _ _  
 |   |   |_  | | | | 
 | | | | | . | | | | 
 |__ |  _|___|_____|  22.8.0
 |___|_|             

User:   s204775@a114.nifl.fysik.dtu.dk
Date:   Tue Sep 26 11:57:29 2023
Arch:   x86_64
Pid:    39972
CWD:    /home/cat/s204775/projects/Bachelor_project/OH_missing_features
Python: 3.10.4
gpaw:   /home/modules/software/GPAW/22.8.0-intel-2022a/lib/python3.10/site-packages/gpaw
_gpaw:  /home/modules/software/GPAW/22.8.0-intel-2022a/lib/python3.10/site-packages/
        _gpaw.cpython-310-x86_64-linux-gnu.so
ase:    /home/modules/software/ASE/3.22.1-intel-2022a/lib/python3.10/site-packages/ase (version 3.22.1)
numpy:  /home/modules/software/SciPy-bundle/2022.05-intel-2022a/lib/python3.10/site-packages/numpy (version 1.22.3)
scipy:  /home/modules/software/SciPy-bundle/2022.05-intel-2022a/lib/python3.10/site-packages/scipy (version 1.8.1)
libxc:  5.2.3
units:  Angstrom and eV
cores: 40
OpenMP: False
OMP_NUM_THREADS: 1

Input parameters:
  basis: dzp
  h: 0.18
  kpts: {size: (4, 4, 1)}
  xc: BEEF-vdW

System changes: positions, numbers, cell, pbc, initial_charges, initial_magmoms 

Initialize ...

species:
  Pt:
    name: Platinum
    id: 5ed695806aff0c961dba1a84acd7f4b2
    Z: 78.0
    valence: 16
    core: 62
    charge: 0.0
    file: /home/modules/software/GPAW-setups/0.9.20000/Pt.PBE.gz
    compensation charges: {type: gauss,
                           rc: 0.41,
                           lmax: 2}
    cutoffs: {filter: 2.26,
              core: 2.26}
    valence states:
      #              energy  rcut
      - 6s(1.00)    -5.628   1.307
      - 5p(6.00)   -56.051   1.371
      - 6p(0.00)    -0.845   1.371
      - 5d(9.00)    -6.153   1.307
      -  s          21.583   1.307
      -  d          21.058   1.307
  
    # LCAO basis set for Pt:
    #   Name: dzp
    #   File: /home/modules/software/GPAW-setups/0.9.20000/Pt.dzp.basis.gz
    #   Number of radial functions: 9
    #   Number of spherical harmonics: 27
    #     l=0, rc=8.5938 Bohr: 6s-sz confined orbital
    #     l=1, rc=3.5781 Bohr: 5p-sz confined orbital
    #     l=1, rc=13.6250 Bohr: 6p-sz confined orbital
    #     l=2, rc=6.0938 Bohr: 5d-sz confined orbital
    #     l=0, rc=5.0625 Bohr: 6s-dz split-valence wave
    #     l=1, rc=2.4219 Bohr: 5p-dz split-valence wave
    #     l=1, rc=8.3281 Bohr: 6p-dz split-valence wave
    #     l=2, rc=3.6406 Bohr: 5d-dz split-valence wave
    #     l=1, rc=8.5938 Bohr: p-type Gaussian polarization
    #   Number of RI-basis functions 0

  O:
    name: Oxygen
    id: 32ecd46bf208036f09c70b0ec9a88b78
    Z: 8.0
    valence: 6
    core: 2
    charge: 0.0
    file: /home/modules/software/GPAW-setups/0.9.20000/O.PBE.gz
    compensation charges: {type: gauss,
                           rc: 0.21,
                           lmax: 2}
    cutoffs: {filter: 1.17,
              core: 0.83}
    valence states:
      #              energy  rcut
      - 2s(2.00)   -23.961   0.688
      - 2p(4.00)    -9.029   0.598
      -  s           3.251   0.688
      -  p          18.182   0.598
      -  d           0.000   0.619
  
    # LCAO basis set for O:
    #   Name: dzp
    #   File: /home/modules/software/GPAW-setups/0.9.20000/O.dzp.basis.gz
    #   Number of radial functions: 5
    #   Number of spherical harmonics: 13
    #     l=0, rc=4.3438 Bohr: 2s-sz confined orbital
    #     l=1, rc=5.3906 Bohr: 2p-sz confined orbital
    #     l=0, rc=2.2969 Bohr: 2s-dz split-valence wave
    #     l=1, rc=2.8906 Bohr: 2p-dz split-valence wave
    #     l=2, rc=5.3906 Bohr: d-type Gaussian polarization
    #   Number of RI-basis functions 0

  H:
    name: Hydrogen
    id: d65de229564ff8ea4db303e23b6d1ecf
    Z: 1.0
    valence: 1
    core: 0
    charge: 0.0
    file: /home/modules/software/GPAW-setups/0.9.20000/H.PBE.gz
    compensation charges: {type: gauss,
                           rc: 0.15,
                           lmax: 2}
    cutoffs: {filter: 0.85,
              core: 0.53}
    valence states:
      #              energy  rcut
      - 1s(1.00)    -6.494   0.476
      -  s          20.717   0.476
      -  p           0.000   0.476
  
    # LCAO basis set for H:
    #   Name: dzp
    #   File: /home/modules/software/GPAW-setups/0.9.20000/H.dzp.basis.gz
    #   Number of radial functions: 3
    #   Number of spherical harmonics: 5
    #     l=0, rc=6.4219 Bohr: 1s-sz confined orbital
    #     l=0, rc=3.6094 Bohr: 1s-dz split-valence wave
    #     l=1, rc=6.4219 Bohr: p-type Gaussian polarization
    #   Number of RI-basis functions 0

Reference energy: -18015566.402091  # eV

Spin-paired calculation

Convergence criteria:
 Maximum [total energy] change in last 3 cyles: 0.0005 eV / electron
 Maximum integral of absolute [dens]ity change: 0.0001 electrons / valence electron
 Maximum integral of absolute [eigenst]ate change: 4e-08 eV^2 / valence electron
 Maximum number of scf [iter]ations: 333
 (Square brackets indicate name in SCF output, whereas a 'c' in
 the SCF output indicates the quantity has converged.)

Symmetries present (total): 1

  ( 1  0  0)
  ( 0  1  0)
  ( 0  0  1)

16 k-points: 4 x 4 x 1 Monkhorst-Pack grid
8 k-points in the irreducible part of the Brillouin zone
       k-points in crystal coordinates                weights
   0:     0.12500000   -0.37500000    0.00000000          2/16
   1:     0.12500000   -0.12500000    0.00000000          2/16
   2:     0.12500000    0.12500000    0.00000000          2/16
   3:     0.12500000    0.37500000    0.00000000          2/16
   4:     0.37500000   -0.37500000    0.00000000          2/16
   5:     0.37500000   -0.12500000    0.00000000          2/16
   6:     0.37500000    0.12500000    0.00000000          2/16
   7:     0.37500000    0.37500000    0.00000000          2/16

Wave functions: Uniform real-space grid
  Kinetic energy operator: 8*3+1=25 point O(h^6) finite-difference Laplacian
  ScaLapack parameters: grid=1x1, blocksize=None
  Wavefunction extrapolation:
    Improved wavefunction reuse through dual PAW basis 

Occupation numbers: Fermi-Dirac:
  width: 0.1000  # eV
 

Eigensolver
   Davidson(niter=2) 

Densities:
  Coarse grid: 40*40*148 grid
  Fine grid: 80*80*296 grid
  Total Charge: 0.000000 

Density mixing:
  Method: separate
  Backend: pulay
  Linear mixing parameter: 0.05
  old densities: 5
  Damping of long wavelength oscillations: 50 

Hamiltonian:
  XC and Coulomb potentials evaluated on a 80*80*296 grid
  Using the BEEF-vdW Exchange-Correlation functional
  Interpolation: tri-quintic (5. degree polynomial)
  Poisson solver: FastPoissonSolver using
    Stencil: 8*3+1=25 point O(h^6) finite-difference Laplacian
    FFT axes: [0, 1]
    FST axes: [2]
 

XC parameters: BEEF-vdW with 2 nearest neighbor stencil

Memory estimate:
  Process memory now: 197.64 MiB
  Calculator: 601.68 MiB
    Density: 61.18 MiB
      Arrays: 9.35 MiB
      Localized functions: 48.29 MiB
      Mixer: 3.54 MiB
    Hamiltonian: 9.11 MiB
      Arrays: 6.12 MiB
      XC: 0.00 MiB
      Poisson: 0.00 MiB
      vbar: 3.00 MiB
    Wavefunctions: 531.39 MiB
      Arrays psit_nG: 250.63 MiB
      Eigensolver: 273.31 MiB
      Projections: 0.72 MiB
      Projectors: 6.72 MiB

Total number of cores used: 40
Parallelization over k-points: 8
Domain decomposition: 1 x 1 x 5

Number of atoms: 38
Number of atomic orbitals: 990
Number of bands in calculation: 354
Number of valence electrons: 583
Bands to converge: occupied

... initialized

Initializing position-dependent things.

Density initialized from atomic densities
Creating initial wave functions:
  354 bands from LCAO basis set

                                            
                                            
                                            
                                            
                                            
                                            
                   H                        
                   O                        
          Pt     Pt     Pt                  
                                            
           PPt    PPt    PPt                
             PPt    PPt    PPt              
                                            
              PPt    PPt    PPt             
                                            
                Pt     Pt     Pt            
                  Pt     Pt     Pt          
          Pt     Pt     Pt                  
            Pt     Pt     Pt                
              Pt     Pt     Pt              
                                            
                                            
                                            
                                            

Positions:
   0 Pt     0.000000    0.000000    9.999999    ( 0.0000,  0.0000,  0.0000)
   1 Pt     1.419843    0.819746   12.318592    ( 0.0000,  0.0000,  0.0000)
   2 Pt    -0.000000    1.640639   14.624752    ( 0.0000,  0.0000,  0.0000)
   3 Pt     0.000000    0.000000   16.964617    ( 0.0000,  0.0000,  0.0000)
   4 Pt    -1.419843    2.459239    9.999999    ( 0.0000,  0.0000,  0.0000)
   5 Pt     0.000000    3.278986   12.318592    ( 0.0000,  0.0000,  0.0000)
   6 Pt    -1.421365    4.097854   14.620818    ( 0.0000,  0.0000,  0.0000)
   7 Pt    -1.420304    2.459321   16.958214    ( 0.0000,  0.0000,  0.0000)
   8 Pt    -2.839685    4.918479    9.999999    ( 0.0000,  0.0000,  0.0000)
   9 Pt    -1.419843    5.738225   12.318592    ( 0.0000,  0.0000,  0.0000)
  10 Pt    -2.838693    6.557399   14.624752    ( 0.0000,  0.0000,  0.0000)
  11 Pt    -2.839845    4.918039   16.958214    ( 0.0000,  0.0000,  0.0000)
  12 Pt     2.839685    0.000000    9.999999    ( 0.0000,  0.0000,  0.0000)
  13 Pt     4.259528    0.819746   12.318592    ( 0.0000,  0.0000,  0.0000)
  14 Pt     2.839698    1.639501   14.619309    ( 0.0000,  0.0000,  0.0000)
  15 Pt     2.839987    0.000358   16.958214    ( 0.0000,  0.0000,  0.0000)
  16 Pt     1.419843    2.459239    9.999999    ( 0.0000,  0.0000,  0.0000)
  17 Pt     2.839685    3.278986   12.318592    ( 0.0000,  0.0000,  0.0000)
  18 Pt     1.421365    4.097854   14.620818    ( 0.0000,  0.0000,  0.0000)
  19 Pt     1.420304    2.459321   16.958214    ( 0.0000,  0.0000,  0.0000)
  20 Pt     0.000000    4.918479    9.999999    ( 0.0000,  0.0000,  0.0000)
  21 Pt     1.419843    5.738225   12.318592    ( 0.0000,  0.0000,  0.0000)
  22 Pt    -0.000000    6.559730   14.620818    ( 0.0000,  0.0000,  0.0000)
  23 Pt    -0.000000    4.918479   16.949331    ( 0.0000,  0.0000,  0.0000)
  24 Pt     5.679370    0.000000    9.999999    ( 0.0000,  0.0000,  0.0000)
  25 Pt     7.099213    0.819746   12.318592    ( 0.0000,  0.0000,  0.0000)
  26 Pt     5.679357    1.639501   14.619309    ( 0.0000,  0.0000,  0.0000)
  27 Pt     5.679069    0.000358   16.958214    ( 0.0000,  0.0000,  0.0000)
  28 Pt     4.259528    2.459239    9.999999    ( 0.0000,  0.0000,  0.0000)
  29 Pt     5.679370    3.278986   12.318592    ( 0.0000,  0.0000,  0.0000)
  30 Pt     4.259528    4.098717   14.619309    ( 0.0000,  0.0000,  0.0000)
  31 Pt     4.259528    2.459239   16.950151    ( 0.0000,  0.0000,  0.0000)
  32 Pt     2.839685    4.918479    9.999999    ( 0.0000,  0.0000,  0.0000)
  33 Pt     4.259528    5.738225   12.318592    ( 0.0000,  0.0000,  0.0000)
  34 Pt     2.838693    6.557399   14.624752    ( 0.0000,  0.0000,  0.0000)
  35 Pt     2.839845    4.918039   16.958214    ( 0.0000,  0.0000,  0.0000)
  36 O      1.420304    2.459321   18.958214    ( 0.0000,  0.0000,  0.0000)
  37 H      1.420304    2.459321   19.918214    ( 0.0000,  0.0000,  0.0000)

Unit cell:
           periodic     x           y           z      points  spacing
  1. axis:    yes    8.519055    0.000000    0.000000    40     0.1844
  2. axis:    yes   -4.259528    7.377718    0.000000    40     0.1844
  3. axis:    no     0.000000    0.000000   26.955778   148     0.1821

  Lengths:   8.519055   8.519055  26.955778
  Angles:   90.000000  90.000000 120.000000

Effective grid spacing dv^(1/3) = 0.1927

     iter     time        total  log10-change:
                         energy  eigst   dens
iter:   1 11:58:52 -11913.795917
iter:   2 11:59:28 -11946.972982  -0.66  -1.36
iter:   3 12:00:02 -11907.801289  -1.35  -1.24
iter:   4 12:00:37 -11911.058633  -1.42  -1.45
iter:   5 12:01:12 -11901.983291  -1.71  -1.45
iter:   6 12:01:47 -11901.046054  -1.81  -1.63
iter:   7 12:02:22 -11901.139946  -2.56  -1.74
iter:   8 12:02:57 -11902.865641  -1.58  -1.74
iter:   9 12:03:32 -11901.140131  -2.34  -1.88
iter:  10 12:04:07 -11900.712279  -3.07  -2.01
iter:  11 12:04:42 -11900.530740  -2.60  -2.09
iter:  12 12:05:16 -11900.531357c -2.51  -2.21
iter:  13 12:05:51 -11900.510432c -2.51  -2.31
iter:  14 12:06:26 -11900.495319c -3.03  -2.39
iter:  15 12:07:01 -11900.607466c -3.19  -2.46
iter:  16 12:07:36 -11900.490507c -3.31  -2.38
iter:  17 12:08:11 -11900.476702c -3.51  -2.57
iter:  18 12:08:46 -11900.476974c -3.58  -2.78
iter:  19 12:09:21 -11900.471220c -4.14  -2.94
iter:  20 12:09:56 -11900.471941c -4.55  -3.11
iter:  21 12:10:31 -11900.478310c -4.18  -3.15
iter:  22 12:11:06 -11900.468534c -4.71  -3.07
iter:  23 12:11:41 -11900.467814c -5.79  -3.62
iter:  24 12:12:16 -11900.467536c -6.08  -3.68
iter:  25 12:12:50 -11900.467316c -5.29  -3.74
iter:  26 12:13:25 -11900.467824c -5.64  -3.93
iter:  27 12:14:00 -11900.467654c -6.54  -3.93
iter:  28 12:14:35 -11900.467586c -7.14  -3.97
iter:  29 12:15:10 -11900.467622c -5.96  -4.00
iter:  30 12:15:45 -11900.467692c -6.57  -3.99
iter:  31 12:16:20 -11900.467681c -6.89  -4.18c
iter:  32 12:16:55 -11900.467707c -7.28  -4.25c
iter:  33 12:17:30 -11900.467764c -6.72  -4.27c
iter:  34 12:18:05 -11900.467706c -6.70  -4.30c
iter:  35 12:18:40 -11900.467630c -7.24  -4.57c
iter:  36 12:19:15 -11900.467585c -7.62c -4.78c

Converged after 36 iterations.

Dipole moment: (-4.207342, -7.340918, 0.144609) |e|*Ang

Energy contributions relative to reference atoms: (reference = -18015566.402091)

Kinetic:       +800.130628
Potential:     -820.516138
External:        +0.000000
XC:            -11860.108276
Entropy (-ST):   -2.407476
Local:          -18.770061
--------------------------
Free energy:   -11901.671323
Extrapolated:  -11900.467585

Showing only first 2 kpts
 Kpt  Band  Eigenvalues  Occupancy
  0   289     -5.73043    1.23220
  0   290     -5.71171    1.14194
  0   291     -5.67373    0.95305
  0   292     -5.66110    0.89029

  1   289     -5.92258    1.83281
  1   290     -5.85432    1.69417
  1   291     -5.83068    1.62779
  1   292     -5.81582    1.58066


Fermi level: -5.68313

No gap

Forces in eV/Ang:
  0 Pt   -0.00744   -0.00192   -0.12827
  1 Pt    0.00933    0.02451    0.10027
  2 Pt    0.09930    0.04035    0.10639
  3 Pt   -0.13721   -0.23074   -0.07015
  4 Pt   -0.00992   -0.00242   -0.10427
  5 Pt    0.00314   -0.00486    0.13293
  6 Pt   -0.00103    0.00265   -0.01181
  7 Pt   -0.28082   -0.00175   -0.07900
  8 Pt    0.00379   -0.00708   -0.09210
  9 Pt   -0.00755    0.00006    0.12592
 10 Pt   -0.00014   -0.00484   -0.00402
 11 Pt    0.00046   -0.00382    0.02589
 12 Pt    0.02158   -0.00371   -0.10508
 13 Pt    0.00636   -0.01509    0.13116
 14 Pt   -0.08270    0.04692    0.10493
 15 Pt    0.13649   -0.23806   -0.07770
 16 Pt    0.00692    0.00788   -0.12837
 17 Pt   -0.02631    0.00512    0.09303
 18 Pt    0.00645   -0.10737    0.10053
 19 Pt    0.01301   -0.00508   -0.02183
 20 Pt    0.00743    0.01024   -0.06561
 21 Pt   -0.00755    0.01621    0.16314
 22 Pt   -0.00671   -0.00737   -0.02748
 23 Pt   -0.13514    0.24237   -0.07372
 24 Pt   -0.01124    0.00004   -0.18348
 25 Pt   -0.03493    0.01056    0.13310
 26 Pt    0.00312    0.00808   -0.02090
 27 Pt   -0.00493    0.00246    0.04751
 28 Pt    0.00773   -0.00842   -0.06620
 29 Pt    0.00858    0.01070    0.08984
 30 Pt    0.01061   -0.00032   -0.00487
 31 Pt    0.27277    0.00393   -0.07836
 32 Pt   -0.00802   -0.00097   -0.10350
 33 Pt   -0.00310   -0.01781    0.09794
 34 Pt    0.01965   -0.00404   -0.02181
 35 Pt    0.13074    0.23077   -0.07462
 36 O    -0.00805    0.00144    0.29387
 37 H     0.00377   -0.00187   -0.11628

      Step     Time          Energy         fmax
BFGS:    0 12:19:32   -11900.467585        0.2940
System changes: positions 

Initializing position-dependent things.

Density initialized from wave functions
                                            
                                            
                                            
                                            
                                            
                                            
                   H                        
                   O                        
          Pt     Pt     Pt                  
                                            
           PPt    PPt    PPt                
             PPt    PPt    PPt              
                                            
              PPt    PPt    PPt             
                                            
                Pt     Pt     Pt            
                  Pt     Pt     Pt          
          Pt     Pt     Pt                  
            Pt     Pt     Pt                
              Pt     Pt     Pt              
                                            
                                            
                                            
                                            

Positions:
   0 Pt     0.000000    0.000000    9.999999    ( 0.0000,  0.0000,  0.0000)
   1 Pt     1.419843    0.819746   12.318592    ( 0.0000,  0.0000,  0.0000)
   2 Pt     0.001419    1.641215   14.626272    ( 0.0000,  0.0000,  0.0000)
   3 Pt    -0.001960   -0.003296   16.963614    ( 0.0000,  0.0000,  0.0000)
   4 Pt    -1.419843    2.459239    9.999999    ( 0.0000,  0.0000,  0.0000)
   5 Pt     0.000000    3.278986   12.318592    ( 0.0000,  0.0000,  0.0000)
   6 Pt    -1.421379    4.097892   14.620650    ( 0.0000,  0.0000,  0.0000)
   7 Pt    -1.424315    2.459296   16.957085    ( 0.0000,  0.0000,  0.0000)
   8 Pt    -2.839685    4.918479    9.999999    ( 0.0000,  0.0000,  0.0000)
   9 Pt    -1.419843    5.738225   12.318592    ( 0.0000,  0.0000,  0.0000)
  10 Pt    -2.838695    6.557330   14.624695    ( 0.0000,  0.0000,  0.0000)
  11 Pt    -2.839838    4.917984   16.958584    ( 0.0000,  0.0000,  0.0000)
  12 Pt     2.839685    0.000000    9.999999    ( 0.0000,  0.0000,  0.0000)
  13 Pt     4.259528    0.819746   12.318592    ( 0.0000,  0.0000,  0.0000)
  14 Pt     2.838517    1.640171   14.620808    ( 0.0000,  0.0000,  0.0000)
  15 Pt     2.841936   -0.003042   16.957104    ( 0.0000,  0.0000,  0.0000)
  16 Pt     1.419843    2.459239    9.999999    ( 0.0000,  0.0000,  0.0000)
  17 Pt     2.839685    3.278986   12.318592    ( 0.0000,  0.0000,  0.0000)
  18 Pt     1.421457    4.096320   14.622255    ( 0.0000,  0.0000,  0.0000)
  19 Pt     1.420489    2.459249   16.957902    ( 0.0000,  0.0000,  0.0000)
  20 Pt     0.000000    4.918479    9.999999    ( 0.0000,  0.0000,  0.0000)
  21 Pt     1.419843    5.738225   12.318592    ( 0.0000,  0.0000,  0.0000)
  22 Pt    -0.000096    6.559624   14.620426    ( 0.0000,  0.0000,  0.0000)
  23 Pt    -0.001931    4.921941   16.948277    ( 0.0000,  0.0000,  0.0000)
  24 Pt     5.679370    0.000000    9.999999    ( 0.0000,  0.0000,  0.0000)
  25 Pt     7.099213    0.819746   12.318592    ( 0.0000,  0.0000,  0.0000)
  26 Pt     5.679402    1.639616   14.619010    ( 0.0000,  0.0000,  0.0000)
  27 Pt     5.678999    0.000394   16.958892    ( 0.0000,  0.0000,  0.0000)
  28 Pt     4.259528    2.459239    9.999999    ( 0.0000,  0.0000,  0.0000)
  29 Pt     5.679370    3.278986   12.318592    ( 0.0000,  0.0000,  0.0000)
  30 Pt     4.259679    4.098713   14.619239    ( 0.0000,  0.0000,  0.0000)
  31 Pt     4.263424    2.459296   16.949031    ( 0.0000,  0.0000,  0.0000)
  32 Pt     2.839685    4.918479    9.999999    ( 0.0000,  0.0000,  0.0000)
  33 Pt     4.259528    5.738225   12.318592    ( 0.0000,  0.0000,  0.0000)
  34 Pt     2.838974    6.557341   14.624440    ( 0.0000,  0.0000,  0.0000)
  35 Pt     2.841713    4.921335   16.957148    ( 0.0000,  0.0000,  0.0000)
  36 O      1.420189    2.459342   18.962412    ( 0.0000,  0.0000,  0.0000)
  37 H      1.420357    2.459295   19.916553    ( 0.0000,  0.0000,  0.0000)

Unit cell:
           periodic     x           y           z      points  spacing
  1. axis:    yes    8.519055    0.000000    0.000000    40     0.1844
  2. axis:    yes   -4.259528    7.377718    0.000000    40     0.1844
  3. axis:    no     0.000000    0.000000   26.955778   148     0.1821

  Lengths:   8.519055   8.519055  26.955778
  Angles:   90.000000  90.000000 120.000000

Effective grid spacing dv^(1/3) = 0.1927

     iter     time        total  log10-change:
                         energy  eigst   dens
iter:   1 12:21:00 -11900.484848  -3.40
iter:   2 12:21:36 -11900.569993  -3.89  -3.21
iter:   3 12:22:11 -11900.475959c -4.36  -2.60
iter:   4 12:22:46 -11900.476311c -5.43  -3.67
iter:   5 12:23:22 -11900.476862c -5.78  -3.41
iter:   6 12:23:57 -11900.475395c -5.44  -3.39
iter:   7 12:24:33 -11900.475706c -5.60  -4.00
iter:   8 12:25:08 -11900.475323c -5.74  -4.10c
iter:   9 12:25:44 -11900.475102c -6.07  -4.29c
iter:  10 12:26:19 -11900.475222c -6.99  -4.35c
iter:  11 12:26:55 -11900.475171c -7.32  -4.49c
iter:  12 12:27:30 -11900.475122c -6.76  -4.57c
iter:  13 12:28:05 -11900.475119c -7.52c -4.92c

Converged after 13 iterations.

Dipole moment: (-4.006681, -7.056730, 0.138967) |e|*Ang

Energy contributions relative to reference atoms: (reference = -18015566.402091)

Kinetic:       +801.691672
Potential:     -821.941349
External:        +0.000000
XC:            -11860.235101
Entropy (-ST):   -2.407925
Local:          -18.786379
--------------------------
Free energy:   -11901.679082
Extrapolated:  -11900.475119

Showing only first 2 kpts
 Kpt  Band  Eigenvalues  Occupancy
  0   289     -5.73638    1.23022
  0   290     -5.71831    1.14308
  0   291     -5.68029    0.95400
  0   292     -5.66774    0.89167

  1   289     -5.92841    1.83200
  1   290     -5.86174    1.69690
  1   291     -5.83771    1.62979
  1   292     -5.82242    1.58143


Fermi level: -5.68949

No gap

Forces in eV/Ang:
  0 Pt   -0.00828   -0.00179   -0.13656
  1 Pt    0.00959    0.02714    0.10396
  2 Pt    0.08083    0.03293    0.09543
  3 Pt   -0.11971   -0.20227   -0.05654
  4 Pt   -0.01020   -0.00319   -0.11258
  5 Pt    0.00563   -0.00647    0.13667
  6 Pt   -0.00197    0.00298   -0.01681
  7 Pt   -0.24876   -0.00065   -0.06708
  8 Pt    0.00368   -0.00700   -0.10035
  9 Pt   -0.00871   -0.00038    0.12605
 10 Pt    0.00052   -0.00653   -0.00958
 11 Pt    0.00092   -0.00343    0.03270
 12 Pt    0.02240   -0.00360   -0.11344
 13 Pt    0.00208   -0.01250    0.13734
 14 Pt   -0.06679    0.03718    0.09031
 15 Pt    0.12068   -0.21163   -0.06533
 16 Pt    0.00688    0.00793   -0.13590
 17 Pt   -0.02843    0.00361    0.09687
 18 Pt    0.00576   -0.08821    0.08925
 19 Pt    0.01262   -0.00473    0.05555
 20 Pt    0.00797    0.01089   -0.07394
 21 Pt   -0.00723    0.01118    0.16930
 22 Pt   -0.00220   -0.00458   -0.03764
 23 Pt   -0.11753    0.20882   -0.05823
 24 Pt   -0.01121   -0.00000   -0.19256
 25 Pt   -0.03051    0.01298    0.13928
 26 Pt    0.00301    0.00304   -0.03134
 27 Pt   -0.00461    0.00246    0.05456
 28 Pt    0.00802   -0.00919   -0.07454
 29 Pt    0.00848    0.01177    0.09009
 30 Pt    0.01137    0.00037   -0.01055
 31 Pt    0.23573    0.00386   -0.06166
 32 Pt   -0.00859   -0.00031   -0.11180
 33 Pt   -0.00200   -0.01848    0.09829
 34 Pt    0.01432   -0.00202   -0.03230
 35 Pt    0.11511    0.20237   -0.05893
 36 O    -0.00723    0.00700   -0.07882
 37 H     0.00463   -0.00258    0.19242

BFGS:    1 12:28:23   -11900.475119        0.2576
System changes: positions 

Initializing position-dependent things.

Density initialized from wave functions
                                            
                                            
                                            
                                            
                                            
                                            
                   H                        
                   O                        
          Pt     Pt     Pt                  
                                            
           PPt    PPt    PPt                
             PPt    PPt    PPt              
                                            
              PPt    PPt    PPt             
                                            
                Pt     Pt     Pt            
                  Pt     Pt     Pt          
          Pt     Pt     Pt                  
            Pt     Pt     Pt                
              Pt     Pt     Pt              
                                            
                                            
                                            
                                            

Positions:
   0 Pt     0.000000    0.000000    9.999999    ( 0.0000,  0.0000,  0.0000)
   1 Pt     1.419843    0.819746   12.318592    ( 0.0000,  0.0000,  0.0000)
   2 Pt     0.008352    1.644036   14.634078    ( 0.0000,  0.0000,  0.0000)
   3 Pt    -0.011884   -0.020026   16.958741    ( 0.0000,  0.0000,  0.0000)
   4 Pt    -1.419843    2.459239    9.999999    ( 0.0000,  0.0000,  0.0000)
   5 Pt     0.000000    3.278986   12.318592    ( 0.0000,  0.0000,  0.0000)
   6 Pt    -1.421500    4.098112   14.619517    ( 0.0000,  0.0000,  0.0000)
   7 Pt    -1.444787    2.459207   16.951451    ( 0.0000,  0.0000,  0.0000)
   8 Pt    -2.839685    4.918479    9.999999    ( 0.0000,  0.0000,  0.0000)
   9 Pt    -1.419843    5.738225   12.318592    ( 0.0000,  0.0000,  0.0000)
  10 Pt    -2.838678    6.556881   14.624144    ( 0.0000,  0.0000,  0.0000)
  11 Pt    -2.839783    4.917704   16.960889    ( 0.0000,  0.0000,  0.0000)
  12 Pt     2.839685    0.000000    9.999999    ( 0.0000,  0.0000,  0.0000)
  13 Pt     4.259528    0.819746   12.318592    ( 0.0000,  0.0000,  0.0000)
  14 Pt     2.832765    1.643404   14.628344    ( 0.0000,  0.0000,  0.0000)
  15 Pt     2.851876   -0.020428   16.951590    ( 0.0000,  0.0000,  0.0000)
  16 Pt     1.419843    2.459239    9.999999    ( 0.0000,  0.0000,  0.0000)
  17 Pt     2.839685    3.278986   12.318592    ( 0.0000,  0.0000,  0.0000)
  18 Pt     1.421929    4.088788   14.629592    ( 0.0000,  0.0000,  0.0000)
  19 Pt     1.421485    2.458869   16.959517    ( 0.0000,  0.0000,  0.0000)
  20 Pt     0.000000    4.918479    9.999999    ( 0.0000,  0.0000,  0.0000)
  21 Pt     1.419843    5.738225   12.318592    ( 0.0000,  0.0000,  0.0000)
  22 Pt    -0.000425    6.559170   14.617853    ( 0.0000,  0.0000,  0.0000)
  23 Pt    -0.011688    4.939358   16.943206    ( 0.0000,  0.0000,  0.0000)
  24 Pt     5.679370    0.000000    9.999999    ( 0.0000,  0.0000,  0.0000)
  25 Pt     7.099213    0.819746   12.318592    ( 0.0000,  0.0000,  0.0000)
  26 Pt     5.679640    1.640029   14.616937    ( 0.0000,  0.0000,  0.0000)
  27 Pt     5.678629    0.000585   16.962890    ( 0.0000,  0.0000,  0.0000)
  28 Pt     4.259528    2.459239    9.999999    ( 0.0000,  0.0000,  0.0000)
  29 Pt     5.679370    3.278986   12.318592    ( 0.0000,  0.0000,  0.0000)
  30 Pt     4.260537    4.098717   14.618617    ( 0.0000,  0.0000,  0.0000)
  31 Pt     4.283056    2.459598   16.943651    ( 0.0000,  0.0000,  0.0000)
  32 Pt     2.839685    4.918479    9.999999    ( 0.0000,  0.0000,  0.0000)
  33 Pt     4.259528    5.738225   12.318592    ( 0.0000,  0.0000,  0.0000)
  34 Pt     2.840274    6.557114   14.622295    ( 0.0000,  0.0000,  0.0000)
  35 Pt     2.851214    4.938070   16.952015    ( 0.0000,  0.0000,  0.0000)
  36 O      1.419598    2.459692   18.969312    ( 0.0000,  0.0000,  0.0000)
  37 H      1.420687    2.459118   19.920727    ( 0.0000,  0.0000,  0.0000)

Unit cell:
           periodic     x           y           z      points  spacing
  1. axis:    yes    8.519055    0.000000    0.000000    40     0.1844
  2. axis:    yes   -4.259528    7.377718    0.000000    40     0.1844
  3. axis:    no     0.000000    0.000000   26.955778   148     0.1821

  Lengths:   8.519055   8.519055  26.955778
  Angles:   90.000000  90.000000 120.000000

Effective grid spacing dv^(1/3) = 0.1927

     iter     time        total  log10-change:
                         energy  eigst   dens
iter:   1 12:29:49 -11900.719911  -2.07
iter:   2 12:30:25 -11902.805727  -2.48  -2.47
iter:   3 12:31:01 -11900.517898  -2.96  -1.95
iter:   4 12:31:36 -11900.503202  -3.95  -2.91
iter:   5 12:32:12 -11900.501978c -4.63  -3.09
iter:   6 12:32:48 -11900.498355c -4.53  -3.16
iter:   7 12:33:23 -11900.497946c -4.65  -3.41
iter:   8 12:33:59 -11900.497994c -4.87  -3.59
iter:   9 12:34:34 -11900.497188c -5.39  -3.56
iter:  10 12:35:10 -11900.496582c -5.71  -3.54
iter:  11 12:35:45 -11900.496581c -6.00  -3.87
iter:  12 12:36:21 -11900.496820c -6.03  -3.94
iter:  13 12:36:56 -11900.496654c -5.77  -3.83
iter:  14 12:37:32 -11900.496451c -6.19  -4.14c
iter:  15 12:38:07 -11900.496368c -6.79  -4.31c
iter:  16 12:38:43 -11900.496363c -7.56c -4.51c

Converged after 16 iterations.

Dipole moment: (-2.991350, -5.603193, 0.135624) |e|*Ang

Energy contributions relative to reference atoms: (reference = -18015566.402091)

Kinetic:       +802.939954
Potential:     -823.064957
External:        +0.000000
XC:            -11860.378120
Entropy (-ST):   -2.409305
Local:          -18.788587
--------------------------
Free energy:   -11901.701015
Extrapolated:  -11900.496363

Showing only first 2 kpts
 Kpt  Band  Eigenvalues  Occupancy
  0   289     -5.73715    1.22003
  0   290     -5.72229    1.14831
  0   291     -5.68353    0.95561
  0   292     -5.67154    0.89603

  1   289     -5.92859    1.82774
  1   290     -5.86869    1.70713
  1   291     -5.84482    1.64229
  1   292     -5.82622    1.58435


Fermi level: -5.69241

No gap

Forces in eV/Ang:
  0 Pt   -0.01215   -0.00153   -0.13293
  1 Pt    0.01072    0.03756    0.11070
  2 Pt   -0.00746   -0.00216    0.07299
  3 Pt   -0.02592   -0.04330   -0.03813
  4 Pt   -0.01191   -0.00685   -0.10878
  5 Pt    0.01551   -0.01340    0.14438
  6 Pt    0.00440   -0.00106   -0.02986
  7 Pt   -0.06448   -0.00134   -0.05136
  8 Pt    0.00308   -0.00651   -0.09561
  9 Pt   -0.01272   -0.00176    0.11265
 10 Pt    0.00272   -0.00387   -0.02518
 11 Pt    0.00243   -0.00070    0.03428
 12 Pt    0.02623   -0.00341   -0.11005
 13 Pt   -0.01740   -0.00054    0.15934
 14 Pt    0.00710   -0.00917    0.05524
 15 Pt    0.02813   -0.05977   -0.04657
 16 Pt    0.00676    0.00808   -0.12929
 17 Pt   -0.03662   -0.00264    0.10427
 18 Pt   -0.00176    0.00328    0.06667
 19 Pt    0.01092   -0.00583    0.17838
 20 Pt    0.01029    0.01432   -0.07041
 21 Pt   -0.00570   -0.01213    0.19161
 22 Pt    0.03107    0.01332   -0.08323
 23 Pt   -0.01958    0.03057   -0.02054
 24 Pt   -0.01134   -0.00006   -0.19531
 25 Pt   -0.00993    0.02457    0.16153
 26 Pt    0.00279   -0.03379   -0.07779
 27 Pt   -0.00178    0.00134    0.04610
 28 Pt    0.00965   -0.01268   -0.07095
 29 Pt    0.00839    0.01491    0.07722
 30 Pt    0.00534   -0.00121   -0.02593
 31 Pt    0.03535    0.00159   -0.01646
 32 Pt   -0.01091    0.00293   -0.10814
 33 Pt    0.00197   -0.02088    0.08607
 34 Pt   -0.02141    0.01408   -0.07921
 35 Pt    0.02889    0.05304   -0.02527
 36 O    -0.01766    0.01487   -0.35010
 37 H     0.01121   -0.00447    0.34291

BFGS:    2 12:39:00   -11900.496363        0.3509
System changes: positions 

Initializing position-dependent things.

Density initialized from wave functions
                                             
                                             
                                             
                                             
                                             
                                             
                   H                         
                                             
          Pt     PtO    Pt                   
                                             
            Pt    PPt    PPt                 
                                             
             PPt    PPt    PPt               
               Pt     Pt     Pt              
              Pt     Pt     Pt               
                Pt     Pt     Pt             
                                             
          Pt     PPt    PPt     Pt           
                                             
            Pt     Pt     Pt                 
              Pt     Pt     Pt               
                                             
                                             
                                             
                                             

Positions:
   0 Pt     0.000000    0.000000    9.999999    ( 0.0000,  0.0000,  0.0000)
   1 Pt     1.419843    0.819746   12.318592    ( 0.0000,  0.0000,  0.0000)
   2 Pt     0.010686    1.645001   14.638142    ( 0.0000,  0.0000,  0.0000)
   3 Pt    -0.015820   -0.026643   16.956269    ( 0.0000,  0.0000,  0.0000)
   4 Pt    -1.419843    2.459239    9.999999    ( 0.0000,  0.0000,  0.0000)
   5 Pt     0.000000    3.278986   12.318592    ( 0.0000,  0.0000,  0.0000)
   6 Pt    -1.421445    4.098160   14.618635    ( 0.0000,  0.0000,  0.0000)
   7 Pt    -1.453071    2.459140   16.948498    ( 0.0000,  0.0000,  0.0000)
   8 Pt    -2.839685    4.918479    9.999999    ( 0.0000,  0.0000,  0.0000)
   9 Pt    -1.419843    5.738225   12.318592    ( 0.0000,  0.0000,  0.0000)
  10 Pt    -2.838628    6.556680   14.623548    ( 0.0000,  0.0000,  0.0000)
  11 Pt    -2.839724    4.917595   16.962219    ( 0.0000,  0.0000,  0.0000)
  12 Pt     2.839685    0.000000    9.999999    ( 0.0000,  0.0000,  0.0000)
  13 Pt     4.259528    0.819746   12.318592    ( 0.0000,  0.0000,  0.0000)
  14 Pt     2.830839    1.644397   14.632023    ( 0.0000,  0.0000,  0.0000)
  15 Pt     2.855841   -0.027550   16.948762    ( 0.0000,  0.0000,  0.0000)
  16 Pt     1.419843    2.459239    9.999999    ( 0.0000,  0.0000,  0.0000)
  17 Pt     2.839685    3.278986   12.318592    ( 0.0000,  0.0000,  0.0000)
  18 Pt     1.422058    4.086171   14.633386    ( 0.0000,  0.0000,  0.0000)
  19 Pt     1.422022    2.458630   16.962569    ( 0.0000,  0.0000,  0.0000)
  20 Pt     0.000000    4.918479    9.999999    ( 0.0000,  0.0000,  0.0000)
  21 Pt     1.419843    5.738225   12.318592    ( 0.0000,  0.0000,  0.0000)
  22 Pt     0.000007    6.559243   14.615544    ( 0.0000,  0.0000,  0.0000)
  23 Pt    -0.015451    4.946015   16.940983    ( 0.0000,  0.0000,  0.0000)
  24 Pt     5.679370    0.000000    9.999999    ( 0.0000,  0.0000,  0.0000)
  25 Pt     7.099213    0.819746   12.318592    ( 0.0000,  0.0000,  0.0000)
  26 Pt     5.679772    1.639579   14.614898    ( 0.0000,  0.0000,  0.0000)
  27 Pt     5.678471    0.000673   16.964995    ( 0.0000,  0.0000,  0.0000)
  28 Pt     4.259528    2.459239    9.999999    ( 0.0000,  0.0000,  0.0000)
  29 Pt     5.679370    3.278986   12.318592    ( 0.0000,  0.0000,  0.0000)
  30 Pt     4.260911    4.098688   14.617985    ( 0.0000,  0.0000,  0.0000)
  31 Pt     4.290568    2.459728   16.941391    ( 0.0000,  0.0000,  0.0000)
  32 Pt     2.839685    4.918479    9.999999    ( 0.0000,  0.0000,  0.0000)
  33 Pt     4.259528    5.738225   12.318592    ( 0.0000,  0.0000,  0.0000)
  34 Pt     2.840352    6.557284   14.620205    ( 0.0000,  0.0000,  0.0000)
  35 Pt     2.855047    4.944873   16.949680    ( 0.0000,  0.0000,  0.0000)
  36 O      1.419060    2.460027   18.969083    ( 0.0000,  0.0000,  0.0000)
  37 H      1.420999    2.458984   19.925159    ( 0.0000,  0.0000,  0.0000)

Unit cell:
           periodic     x           y           z      points  spacing
  1. axis:    yes    8.519055    0.000000    0.000000    40     0.1844
  2. axis:    yes   -4.259528    7.377718    0.000000    40     0.1844
  3. axis:    no     0.000000    0.000000   26.955778   148     0.1821

  Lengths:   8.519055   8.519055  26.955778
  Angles:   90.000000  90.000000 120.000000

Effective grid spacing dv^(1/3) = 0.1927

     iter     time        total  log10-change:
                         energy  eigst   dens
iter:   1 12:40:28 -11900.543152  -2.82
iter:   2 12:41:04 -11900.997449  -3.19  -2.83
iter:   3 12:41:40 -11900.501753  -3.68  -2.27
iter:   4 12:42:15 -11900.501481  -4.66  -3.48
iter:   5 12:42:51 -11900.500895c -5.25  -3.56
iter:   6 12:43:26 -11900.500744c -5.42  -3.66
iter:   7 12:44:02 -11900.500462c -5.32  -3.80
iter:   8 12:44:38 -11900.500703c -5.71  -4.07c
iter:   9 12:45:13 -11900.500420c -6.50  -3.95
iter:  10 12:45:49 -11900.500416c -6.72  -4.09c
iter:  11 12:46:25 -11900.500315c -6.91  -4.19c
iter:  12 12:47:00 -11900.500223c -6.51  -4.28c
iter:  13 12:47:36 -11900.500265c -7.16  -4.54c
iter:  14 12:48:12 -11900.500277c -7.67c -4.68c

Converged after 14 iterations.

Dipole moment: (-2.595881, -5.008469, 0.140109) |e|*Ang

Energy contributions relative to reference atoms: (reference = -18015566.402091)

Kinetic:       +803.553650
Potential:     -823.653556
External:        +0.000000
XC:            -11860.403636
Entropy (-ST):   -2.409340
Local:          -18.792065
--------------------------
Free energy:   -11901.704947
Extrapolated:  -11900.500277

Showing only first 2 kpts
 Kpt  Band  Eigenvalues  Occupancy
  0   289     -5.73240    1.21645
  0   290     -5.71860    1.14980
  0   291     -5.67952    0.95556
  0   292     -5.66766    0.89660

  1   289     -5.92342    1.82588
  1   290     -5.86582    1.70992
  1   291     -5.84259    1.64745
  1   292     -5.82244    1.58507


Fermi level: -5.68841

No gap

Forces in eV/Ang:
  0 Pt   -0.01365   -0.00184   -0.13291
  1 Pt    0.01084    0.04219    0.11900
  2 Pt   -0.03320   -0.01136    0.05379
  3 Pt    0.01419    0.02828   -0.02485
  4 Pt   -0.01311   -0.00811   -0.10858
  5 Pt    0.02004   -0.01662    0.15313
  6 Pt    0.01169   -0.00464   -0.03570
  7 Pt    0.01807   -0.00423   -0.03650
  8 Pt    0.00283   -0.00630   -0.09516
  9 Pt   -0.01377   -0.00223    0.10657
 10 Pt    0.00257    0.00305   -0.03328
 11 Pt    0.00268    0.00018    0.03670
 12 Pt    0.02784   -0.00386   -0.11021
 13 Pt   -0.02515    0.00451    0.16471
 14 Pt    0.02592   -0.02112    0.03616
 15 Pt   -0.01199    0.00950   -0.03140
 16 Pt    0.00666    0.00813   -0.12680
 17 Pt   -0.04032   -0.00514    0.11292
 18 Pt   -0.00527    0.02910    0.05070
 19 Pt    0.01016   -0.00797    0.13993
 20 Pt    0.01078    0.01605   -0.07054
 21 Pt   -0.00497   -0.02203    0.19751
 22 Pt    0.04133    0.01675   -0.09167
 23 Pt    0.02242   -0.04062   -0.00278
 24 Pt   -0.01158    0.00002   -0.20019
 25 Pt   -0.00126    0.02952    0.16723
 26 Pt    0.00099   -0.04405   -0.08558
 27 Pt   -0.00027    0.00012    0.03573
 28 Pt    0.01080   -0.01386   -0.07096
 29 Pt    0.00853    0.01547    0.07139
 30 Pt   -0.00289   -0.00510   -0.03134
 31 Pt   -0.04669   -0.00118    0.00413
 32 Pt   -0.01145    0.00443   -0.10811
 33 Pt    0.00332   -0.02177    0.08070
 34 Pt   -0.03175    0.01863   -0.09009
 35 Pt   -0.01216   -0.01463   -0.01025
 36 O    -0.02519    0.01818   -0.03675
 37 H     0.01584   -0.00563    0.08793

BFGS:    3 12:48:29   -11900.500277        0.1405
System changes: positions 

Initializing position-dependent things.

Density initialized from wave functions
                                             
                                             
                                             
                                             
                                             
                                             
                   H                         
                                             
          Pt     PtO    Pt                   
                                             
            Pt    PPt    PPt                 
                                             
             PPt    PPt    PPt               
               Pt     Pt                     
              Pt     Pt     PPt              
                Pt     Pt     Pt             
                                             
          Pt     PPt    PPt     Pt           
                                             
            Pt     Pt     Pt                 
              Pt     Pt     Pt               
                                             
                                             
                                             
                                             

Positions:
   0 Pt     0.000000    0.000000    9.999999    ( 0.0000,  0.0000,  0.0000)
   1 Pt     1.419843    0.819746   12.318592    ( 0.0000,  0.0000,  0.0000)
   2 Pt     0.010527    1.644974   14.639663    ( 0.0000,  0.0000,  0.0000)
   3 Pt    -0.016214   -0.027230   16.955461    ( 0.0000,  0.0000,  0.0000)
   4 Pt    -1.419843    2.459239    9.999999    ( 0.0000,  0.0000,  0.0000)
   5 Pt     0.000000    3.278986   12.318592    ( 0.0000,  0.0000,  0.0000)
   6 Pt    -1.421242    4.098090   14.617922    ( 0.0000,  0.0000,  0.0000)
   7 Pt    -1.454085    2.459059   16.947428    ( 0.0000,  0.0000,  0.0000)
   8 Pt    -2.839685    4.918479    9.999999    ( 0.0000,  0.0000,  0.0000)
   9 Pt    -1.419843    5.738225   12.318592    ( 0.0000,  0.0000,  0.0000)
  10 Pt    -2.838579    6.556703   14.622919    ( 0.0000,  0.0000,  0.0000)
  11 Pt    -2.839672    4.917580   16.963013    ( 0.0000,  0.0000,  0.0000)
  12 Pt     2.839685    0.000000    9.999999    ( 0.0000,  0.0000,  0.0000)
  13 Pt     4.259528    0.819746   12.318592    ( 0.0000,  0.0000,  0.0000)
  14 Pt     2.830946    1.644217   14.633202    ( 0.0000,  0.0000,  0.0000)
  15 Pt     2.856272   -0.028519   16.947794    ( 0.0000,  0.0000,  0.0000)
  16 Pt     1.419843    2.459239    9.999999    ( 0.0000,  0.0000,  0.0000)
  17 Pt     2.839685    3.278986   12.318592    ( 0.0000,  0.0000,  0.0000)
  18 Pt     1.421992    4.086219   14.634816    ( 0.0000,  0.0000,  0.0000)
  19 Pt     1.422272    2.458461   16.965193    ( 0.0000,  0.0000,  0.0000)
  20 Pt     0.000000    4.918479    9.999999    ( 0.0000,  0.0000,  0.0000)
  21 Pt     1.419843    5.738225   12.318592    ( 0.0000,  0.0000,  0.0000)
  22 Pt     0.000746    6.559525   14.613703    ( 0.0000,  0.0000,  0.0000)
  23 Pt    -0.015683    4.946414   16.940573    ( 0.0000,  0.0000,  0.0000)
  24 Pt     5.679370    0.000000    9.999999    ( 0.0000,  0.0000,  0.0000)
  25 Pt     7.099213    0.819746   12.318592    ( 0.0000,  0.0000,  0.0000)
  26 Pt     5.679808    1.638794   14.613198    ( 0.0000,  0.0000,  0.0000)
  27 Pt     5.678442    0.000688   16.965889    ( 0.0000,  0.0000,  0.0000)
  28 Pt     4.259528    2.459239    9.999999    ( 0.0000,  0.0000,  0.0000)
  29 Pt     5.679370    3.278986   12.318592    ( 0.0000,  0.0000,  0.0000)
  30 Pt     4.260918    4.098598   14.617383    ( 0.0000,  0.0000,  0.0000)
  31 Pt     4.291003    2.459729   16.941086    ( 0.0000,  0.0000,  0.0000)
  32 Pt     2.839685    4.918479    9.999999    ( 0.0000,  0.0000,  0.0000)
  33 Pt     4.259528    5.738225   12.318592    ( 0.0000,  0.0000,  0.0000)
  34 Pt     2.839851    6.557613   14.618424    ( 0.0000,  0.0000,  0.0000)
  35 Pt     2.855455    4.945713   16.949129    ( 0.0000,  0.0000,  0.0000)
  36 O      1.418562    2.460368   18.969137    ( 0.0000,  0.0000,  0.0000)
  37 H      1.421305    2.458872   19.926705    ( 0.0000,  0.0000,  0.0000)

Unit cell:
           periodic     x           y           z      points  spacing
  1. axis:    yes    8.519055    0.000000    0.000000    40     0.1844
  2. axis:    yes   -4.259528    7.377718    0.000000    40     0.1844
  3. axis:    no     0.000000    0.000000   26.955778   148     0.1821

  Lengths:   8.519055   8.519055  26.955778
  Angles:   90.000000  90.000000 120.000000

Effective grid spacing dv^(1/3) = 0.1927

     iter     time        total  log10-change:
                         energy  eigst   dens
iter:   1 12:49:56 -11900.503845  -3.96
iter:   2 12:50:32 -11900.507721  -4.67  -3.61
iter:   3 12:51:08 -11900.503921c -5.07  -3.19
iter:   4 12:51:43 -11900.501894c -5.98  -3.47
iter:   5 12:52:19 -11900.501875c -6.79  -4.06c
iter:   6 12:52:54 -11900.501808c -6.40  -4.15c
iter:   7 12:53:30 -11900.501637c -6.33  -4.29c
iter:   8 12:54:05 -11900.501654c -6.86  -4.47c
iter:   9 12:54:41 -11900.501683c -7.30  -4.56c
iter:  10 12:55:16 -11900.501698c -7.76c -4.74c

Converged after 10 iterations.

Dipole moment: (-2.564030, -4.933216, 0.141901) |e|*Ang

Energy contributions relative to reference atoms: (reference = -18015566.402091)

Kinetic:       +803.471636
Potential:     -823.589388
External:        +0.000000
XC:            -11860.387645
Entropy (-ST):   -2.408990
Local:          -18.791807
--------------------------
Free energy:   -11901.706194
Extrapolated:  -11900.501698

Showing only first 2 kpts
 Kpt  Band  Eigenvalues  Occupancy
  0   289     -5.73022    1.21652
  0   290     -5.71634    1.14950
  0   291     -5.67728    0.95532
  0   292     -5.66524    0.89552

  1   289     -5.92113    1.82573
  1   290     -5.86344    1.70947
  1   291     -5.84053    1.64783
  1   292     -5.82060    1.58625


Fermi level: -5.68622

No gap

Forces in eV/Ang:
  0 Pt   -0.01421   -0.00153   -0.13197
  1 Pt    0.01015    0.04771    0.12530
  2 Pt   -0.01766   -0.00358    0.04097
  3 Pt    0.01413    0.02522   -0.02134
  4 Pt   -0.01322   -0.00885   -0.10759
  5 Pt    0.02526   -0.01988    0.15900
  6 Pt    0.00970   -0.00292   -0.02604
  7 Pt    0.01510   -0.00319   -0.03049
  8 Pt    0.00275   -0.00618   -0.09341
  9 Pt   -0.01544   -0.00323    0.10232
 10 Pt    0.00131    0.00254   -0.02545
 11 Pt    0.00209   -0.00033    0.03086
 12 Pt    0.02850   -0.00377   -0.10951
 13 Pt   -0.03079    0.00832    0.15646
 14 Pt    0.01176   -0.01140    0.02775
 15 Pt   -0.01076    0.00858   -0.02659
 16 Pt    0.00649    0.00814   -0.12435
 17 Pt   -0.04512   -0.00748    0.11952
 18 Pt   -0.00343    0.01337    0.04079
 19 Pt    0.01027   -0.00987    0.09449
 20 Pt    0.01131    0.01660   -0.06977
 21 Pt   -0.00437   -0.02954    0.18948
 22 Pt    0.02943    0.00855   -0.06491
 23 Pt    0.01990   -0.03634   -0.00212
 24 Pt   -0.01178    0.00011   -0.20223
 25 Pt    0.00525    0.03308    0.15906
 26 Pt   -0.00195   -0.02931   -0.05813
 27 Pt   -0.00072   -0.00049    0.02735
 28 Pt    0.01104   -0.01453   -0.07004
 29 Pt    0.00842    0.01701    0.06755
 30 Pt   -0.00359   -0.00572   -0.02014
 31 Pt   -0.04272   -0.00086    0.00396
 32 Pt   -0.01201    0.00489   -0.10710
 33 Pt    0.00493   -0.02286    0.07696
 34 Pt   -0.01920    0.01131   -0.06651
 35 Pt   -0.01036   -0.01448   -0.00960
 36 O    -0.03008    0.02037    0.03847
 37 H     0.01962   -0.00760    0.00857

BFGS:    4 12:55:34   -11900.501698        0.0956
System changes: positions 

Initializing position-dependent things.

Density initialized from wave functions
                                             
                                             
                                             
                                             
                                             
                                             
                   H                         
                                             
          Pt     PtO    Pt                   
                                             
            Pt    PPt    PPt                 
                                             
             PPt    PPt    PPt               
               Pt     Pt                     
              Pt     Pt     PPt              
                Pt     Pt     Pt             
                                             
          Pt     PPt    PPt     Pt           
                                             
            Pt     Pt     Pt                 
              Pt     Pt     Pt               
                                             
                                             
                                             
                                             

Positions:
   0 Pt     0.000000    0.000000    9.999999    ( 0.0000,  0.0000,  0.0000)
   1 Pt     1.419843    0.819746   12.318592    ( 0.0000,  0.0000,  0.0000)
   2 Pt     0.010265    1.645040   14.643145    ( 0.0000,  0.0000,  0.0000)
   3 Pt    -0.016780   -0.028083   16.953553    ( 0.0000,  0.0000,  0.0000)
   4 Pt    -1.419843    2.459239    9.999999    ( 0.0000,  0.0000,  0.0000)
   5 Pt     0.000000    3.278986   12.318592    ( 0.0000,  0.0000,  0.0000)
   6 Pt    -1.420722    4.097944   14.616255    ( 0.0000,  0.0000,  0.0000)
   7 Pt    -1.455983    2.458868   16.944886    ( 0.0000,  0.0000,  0.0000)
   8 Pt    -2.839685    4.918479    9.999999    ( 0.0000,  0.0000,  0.0000)
   9 Pt    -1.419843    5.738225   12.318592    ( 0.0000,  0.0000,  0.0000)
  10 Pt    -2.838487    6.556769   14.621390    ( 0.0000,  0.0000,  0.0000)
  11 Pt    -2.839543    4.917533   16.965030    ( 0.0000,  0.0000,  0.0000)
  12 Pt     2.839685    0.000000    9.999999    ( 0.0000,  0.0000,  0.0000)
  13 Pt     4.259528    0.819746   12.318592    ( 0.0000,  0.0000,  0.0000)
  14 Pt     2.831032    1.643884   14.635860    ( 0.0000,  0.0000,  0.0000)
  15 Pt     2.857005   -0.030386   16.945499    ( 0.0000,  0.0000,  0.0000)
  16 Pt     1.419843    2.459239    9.999999    ( 0.0000,  0.0000,  0.0000)
  17 Pt     2.839685    3.278986   12.318592    ( 0.0000,  0.0000,  0.0000)
  18 Pt     1.421845    4.086176   14.638175    ( 0.0000,  0.0000,  0.0000)
  19 Pt     1.422958    2.457907   16.971270    ( 0.0000,  0.0000,  0.0000)
  20 Pt     0.000000    4.918479    9.999999    ( 0.0000,  0.0000,  0.0000)
  21 Pt     1.419843    5.738225   12.318592    ( 0.0000,  0.0000,  0.0000)
  22 Pt     0.002461    6.560047   14.609480    ( 0.0000,  0.0000,  0.0000)
  23 Pt    -0.015883    4.946712   16.939734    ( 0.0000,  0.0000,  0.0000)
  24 Pt     5.679370    0.000000    9.999999    ( 0.0000,  0.0000,  0.0000)
  25 Pt     7.099213    0.819746   12.318592    ( 0.0000,  0.0000,  0.0000)
  26 Pt     5.679779    1.637054   14.609396    ( 0.0000,  0.0000,  0.0000)
  27 Pt     5.678358    0.000698   16.968004    ( 0.0000,  0.0000,  0.0000)
  28 Pt     4.259528    2.459239    9.999999    ( 0.0000,  0.0000,  0.0000)
  29 Pt     5.679370    3.278986   12.318592    ( 0.0000,  0.0000,  0.0000)
  30 Pt     4.260866    4.098308   14.616078    ( 0.0000,  0.0000,  0.0000)
  31 Pt     4.291261    2.459726   16.940547    ( 0.0000,  0.0000,  0.0000)
  32 Pt     2.839685    4.918479    9.999999    ( 0.0000,  0.0000,  0.0000)
  33 Pt     4.259528    5.738225   12.318592    ( 0.0000,  0.0000,  0.0000)
  34 Pt     2.838807    6.558297   14.614220    ( 0.0000,  0.0000,  0.0000)
  35 Pt     2.856163    4.947190   16.947879    ( 0.0000,  0.0000,  0.0000)
  36 O      1.416923    2.461473   18.970512    ( 0.0000,  0.0000,  0.0000)
  37 H      1.422355    2.458465   19.929082    ( 0.0000,  0.0000,  0.0000)

Unit cell:
           periodic     x           y           z      points  spacing
  1. axis:    yes    8.519055    0.000000    0.000000    40     0.1844
  2. axis:    yes   -4.259528    7.377718    0.000000    40     0.1844
  3. axis:    no     0.000000    0.000000   26.955778   148     0.1821

  Lengths:   8.519055   8.519055  26.955778
  Angles:   90.000000  90.000000 120.000000

Effective grid spacing dv^(1/3) = 0.1927

     iter     time        total  log10-change:
                         energy  eigst   dens
iter:   1 12:57:01 -11900.571235  -3.23
iter:   2 12:57:37 -11901.993091  -2.85  -2.70
iter:   3 12:58:13 -11900.521573  -3.40  -2.03
iter:   4 12:58:48 -11900.504564  -3.97  -2.99
iter:   5 12:59:24 -11900.504556c -4.83  -3.67
iter:   6 12:59:59 -11900.504388c -5.57  -3.79
iter:   7 13:00:35 -11900.504419c -5.73  -3.95
iter:   8 13:01:11 -11900.504170c -5.83  -4.07c
iter:   9 13:01:46 -11900.504113c -6.61  -4.34c
iter:  10 13:02:22 -11900.504070c -7.09  -4.39c
iter:  11 13:02:57 -11900.504009c -6.54  -4.53c
iter:  12 13:03:33 -11900.504094c -7.30  -4.56c
iter:  13 13:04:08 -11900.504032c -7.56c -4.71c

Converged after 13 iterations.

Dipole moment: (-2.510599, -4.797305, 0.145216) |e|*Ang

Energy contributions relative to reference atoms: (reference = -18015566.402091)

Kinetic:       +803.631153
Potential:     -823.746479
External:        +0.000000
XC:            -11860.396658
Entropy (-ST):   -2.408341
Local:          -18.787877
--------------------------
Free energy:   -11901.708203
Extrapolated:  -11900.504032

Showing only first 2 kpts
 Kpt  Band  Eigenvalues  Occupancy
  0   289     -5.72752    1.21672
  0   290     -5.71343    1.14866
  0   291     -5.67457    0.95549
  0   292     -5.66213    0.89367

  1   289     -5.91826    1.82553
  1   290     -5.86050    1.70899
  1   291     -5.83802    1.64850
  1   292     -5.81791    1.58642


Fermi level: -5.68347

No gap

Forces in eV/Ang:
  0 Pt   -0.01441   -0.00215   -0.13505
  1 Pt    0.00961    0.04951    0.13276
  2 Pt   -0.01243   -0.00098    0.02215
  3 Pt    0.01253    0.02535   -0.01554
  4 Pt   -0.01414   -0.00894   -0.11060
  5 Pt    0.02741   -0.02109    0.16671
  6 Pt    0.00393    0.00116   -0.02044
  7 Pt    0.01666   -0.00348   -0.01760
  8 Pt    0.00253   -0.00610   -0.09543
  9 Pt   -0.01592   -0.00372    0.09289
 10 Pt   -0.00028   -0.00251   -0.02234
 11 Pt    0.00120   -0.00068    0.02008
 12 Pt    0.02909   -0.00447   -0.11281
 13 Pt   -0.03269    0.00961    0.14599
 14 Pt    0.00623   -0.00939    0.01307
 15 Pt   -0.00935    0.00948   -0.01620
 16 Pt    0.00658    0.00811   -0.12690
 17 Pt   -0.04701   -0.00806    0.12734
 18 Pt   -0.00306    0.00746    0.02530
 19 Pt    0.01152   -0.01473    0.04669
 20 Pt    0.01100    0.01749   -0.07285
 21 Pt   -0.00434   -0.03285    0.17919
 22 Pt    0.02081    0.00089   -0.04087
 23 Pt    0.02011   -0.03564    0.00244
 24 Pt   -0.01220    0.00033   -0.20599
 25 Pt    0.00763    0.03478    0.14919
 26 Pt   -0.00368   -0.02027   -0.03102
 27 Pt    0.00123   -0.00188    0.00762
 28 Pt    0.01188   -0.01451   -0.07322
 29 Pt    0.00862    0.01768    0.05888
 30 Pt    0.00106   -0.00367   -0.01167
 31 Pt   -0.03939   -0.00196    0.00707
 32 Pt   -0.01162    0.00547   -0.11013
 33 Pt    0.00655   -0.02404    0.06747
 34 Pt   -0.00961    0.00906   -0.04557
 35 Pt   -0.01245   -0.01586   -0.00442
 36 O    -0.05297    0.03149    0.15223
 37 H     0.03179   -0.01463   -0.05150

BFGS:    5 13:04:25   -11900.504032        0.1642
System changes: positions 

Initializing position-dependent things.

Density initialized from wave functions
                                             
                                             
                                             
                                             
                                             
                                             
                   H                         
                                             
          Pt     PtO    Pt                   
                                             
            Pt    PPt    PPt                 
                                             
             PPt    PPt    PPt               
               Pt     Pt                     
              Pt     Pt     PPt              
                Pt     Pt     Pt             
                                             
          Pt     PPt    PPt     Pt           
                                             
            Pt     Pt     Pt                 
              Pt     Pt     Pt               
                                             
                                             
                                             
                                             

Positions:
   0 Pt     0.000000    0.000000    9.999999    ( 0.0000,  0.0000,  0.0000)
   1 Pt     1.419843    0.819746   12.318592    ( 0.0000,  0.0000,  0.0000)
   2 Pt     0.009227    1.645038   14.649841    ( 0.0000,  0.0000,  0.0000)
   3 Pt    -0.017289   -0.028603   16.949805    ( 0.0000,  0.0000,  0.0000)
   4 Pt    -1.419843    2.459239    9.999999    ( 0.0000,  0.0000,  0.0000)
   5 Pt     0.000000    3.278986   12.318592    ( 0.0000,  0.0000,  0.0000)
   6 Pt    -1.419723    4.097743   14.612657    ( 0.0000,  0.0000,  0.0000)
   7 Pt    -1.458564    2.458427   16.939984    ( 0.0000,  0.0000,  0.0000)
   8 Pt    -2.839685    4.918479    9.999999    ( 0.0000,  0.0000,  0.0000)
   9 Pt    -1.419843    5.738225   12.318592    ( 0.0000,  0.0000,  0.0000)
  10 Pt    -2.838331    6.556765   14.617968    ( 0.0000,  0.0000,  0.0000)
  11 Pt    -2.839281    4.917433   16.969166    ( 0.0000,  0.0000,  0.0000)
  12 Pt     2.839685    0.000000    9.999999    ( 0.0000,  0.0000,  0.0000)
  13 Pt     4.259528    0.819746   12.318592    ( 0.0000,  0.0000,  0.0000)
  14 Pt     2.831548    1.642891   14.640807    ( 0.0000,  0.0000,  0.0000)
  15 Pt     2.857902   -0.033186   16.941067    ( 0.0000,  0.0000,  0.0000)
  16 Pt     1.419843    2.459239    9.999999    ( 0.0000,  0.0000,  0.0000)
  17 Pt     2.839685    3.278986   12.318592    ( 0.0000,  0.0000,  0.0000)
  18 Pt     1.421480    4.086532   14.644751    ( 0.0000,  0.0000,  0.0000)
  19 Pt     1.424519    2.456467   16.983794    ( 0.0000,  0.0000,  0.0000)
  20 Pt     0.000000    4.918479    9.999999    ( 0.0000,  0.0000,  0.0000)
  21 Pt     1.419843    5.738225   12.318592    ( 0.0000,  0.0000,  0.0000)
  22 Pt     0.006164    6.561019   14.600740    ( 0.0000,  0.0000,  0.0000)
  23 Pt    -0.015487    4.945903   16.938440    ( 0.0000,  0.0000,  0.0000)
  24 Pt     5.679370    0.000000    9.999999    ( 0.0000,  0.0000,  0.0000)
  25 Pt     7.099213    0.819746   12.318592    ( 0.0000,  0.0000,  0.0000)
  26 Pt     5.679626    1.633303   14.601707    ( 0.0000,  0.0000,  0.0000)
  27 Pt     5.678269    0.000651   16.971894    ( 0.0000,  0.0000,  0.0000)
  28 Pt     4.259528    2.459239    9.999999    ( 0.0000,  0.0000,  0.0000)
  29 Pt     5.679370    3.278986   12.318592    ( 0.0000,  0.0000,  0.0000)
  30 Pt     4.260851    4.097712   14.613386    ( 0.0000,  0.0000,  0.0000)
  31 Pt     4.290266    2.459651   16.939923    ( 0.0000,  0.0000,  0.0000)
  32 Pt     2.839685    4.918479    9.999999    ( 0.0000,  0.0000,  0.0000)
  33 Pt     4.259528    5.738225   12.318592    ( 0.0000,  0.0000,  0.0000)
  34 Pt     2.836620    6.559827   14.605371    ( 0.0000,  0.0000,  0.0000)
  35 Pt     2.856900    4.949109   16.945660    ( 0.0000,  0.0000,  0.0000)
  36 O      1.412313    2.464456   18.975754    ( 0.0000,  0.0000,  0.0000)
  37 H      1.425227    2.457268   19.933450    ( 0.0000,  0.0000,  0.0000)

Unit cell:
           periodic     x           y           z      points  spacing
  1. axis:    yes    8.519055    0.000000    0.000000    40     0.1844
  2. axis:    yes   -4.259528    7.377718    0.000000    40     0.1844
  3. axis:    no     0.000000    0.000000   26.955778   148     0.1821

  Lengths:   8.519055   8.519055  26.955778
  Angles:   90.000000  90.000000 120.000000

Effective grid spacing dv^(1/3) = 0.1927

     iter     time        total  log10-change:
                         energy  eigst   dens
iter:   1 13:05:53 -11900.613928  -2.65
iter:   2 13:06:29 -11902.583345  -2.65  -2.61
iter:   3 13:07:05 -11900.566605  -3.31  -1.96
iter:   4 13:07:41 -11900.511770  -3.60  -2.71
iter:   5 13:08:16 -11900.507117c -4.61  -3.19
iter:   6 13:08:52 -11900.506869c -5.20  -3.50
iter:   7 13:09:28 -11900.507132c -5.40  -3.66
iter:   8 13:10:03 -11900.506795c -5.25  -3.74
iter:   9 13:10:39 -11900.506531c -5.79  -3.90
iter:  10 13:11:15 -11900.506358c -6.51  -4.09c
iter:  11 13:11:51 -11900.506216c -6.37  -4.17c
iter:  12 13:12:26 -11900.506520c -6.60  -4.15c
iter:  13 13:13:02 -11900.506184c -6.42  -4.14c
iter:  14 13:13:38 -11900.506260c -7.17  -4.48c
iter:  15 13:14:13 -11900.506257c -7.87c -4.77c

Converged after 15 iterations.

Dipole moment: (-2.468030, -4.614962, 0.148605) |e|*Ang

Energy contributions relative to reference atoms: (reference = -18015566.402091)

Kinetic:       +803.899541
Potential:     -823.986797
External:        +0.000000
XC:            -11860.429474
Entropy (-ST):   -2.406652
Local:          -18.786201
--------------------------
Free energy:   -11901.709584
Extrapolated:  -11900.506257

Showing only first 2 kpts
 Kpt  Band  Eigenvalues  Occupancy
  0   289     -5.72397    1.21700
  0   290     -5.70932    1.14617
  0   291     -5.67097    0.95551
  0   292     -5.65771    0.88963

  1   289     -5.91459    1.82543
  1   290     -5.85685    1.70886
  1   291     -5.83462    1.64911
  1   292     -5.81452    1.58709


Fermi level: -5.67987

No gap

Forces in eV/Ang:
  0 Pt   -0.01627   -0.00114   -0.13351
  1 Pt    0.00699    0.06728    0.14945
  2 Pt    0.02128    0.01472   -0.02110
  3 Pt    0.01087    0.01521   -0.01499
  4 Pt   -0.01483   -0.01168   -0.10903
  5 Pt    0.04455   -0.03149    0.18342
  6 Pt   -0.00897    0.01023    0.00811
  7 Pt    0.00985    0.00178   -0.00158
  8 Pt    0.00216   -0.00579   -0.09093
  9 Pt   -0.02047   -0.00635    0.06756
 10 Pt   -0.00382   -0.01259   -0.00057
 11 Pt   -0.00120   -0.00216   -0.01968
 12 Pt    0.03185   -0.00416   -0.11240
 13 Pt   -0.05138    0.02224    0.10850
 14 Pt   -0.02198    0.00865   -0.01415
 15 Pt   -0.00459    0.00576   -0.00544
 16 Pt    0.00625    0.00814   -0.12081
 17 Pt   -0.06262   -0.01521    0.14672
 18 Pt    0.00299   -0.02596   -0.00634
 19 Pt    0.02408   -0.02260   -0.05309
 20 Pt    0.01295    0.01960   -0.07176
 21 Pt   -0.00283   -0.05841    0.14139
 22 Pt   -0.01367   -0.02516    0.03540
 23 Pt    0.01145   -0.02529   -0.00492
 24 Pt   -0.01312    0.00084   -0.21048
 25 Pt    0.02852    0.04786    0.11169
 26 Pt   -0.00785    0.01900    0.04684
 27 Pt    0.00146   -0.00492   -0.03908
 28 Pt    0.01295   -0.01686   -0.07229
 29 Pt    0.00819    0.02155    0.03696
 30 Pt    0.00753   -0.00057    0.02183
 31 Pt   -0.02484   -0.00103   -0.00306
 32 Pt   -0.01349    0.00708   -0.10856
 33 Pt    0.01221   -0.02856    0.04288
 34 Pt    0.02453   -0.00993    0.02493
 35 Pt   -0.00795   -0.01547   -0.01111
 36 O    -0.09819    0.04710    0.17933
 37 H     0.06643   -0.03462   -0.01885

BFGS:    6 13:14:31   -11900.506257        0.2098
System changes: positions 

Initializing position-dependent things.

Density initialized from wave functions
                                             
                                             
                                             
                                             
                                             
                                             
                   H                         
                                             
          Pt     PtO    Pt                   
                                             
            Pt    PPt    PPt                 
                                             
             PPt    PPt    PPt               
               Pt     Pt                     
              Pt     Pt     PPt              
                Pt     Pt     Pt             
                                             
          Pt     PPt    PPt     Pt           
                                             
            Pt     Pt     Pt                 
              Pt     Pt     Pt               
                                             
                                             
                                             
                                             

Positions:
   0 Pt     0.000000    0.000000    9.999999    ( 0.0000,  0.0000,  0.0000)
   1 Pt     1.419843    0.819746   12.318592    ( 0.0000,  0.0000,  0.0000)
   2 Pt     0.009251    1.645100   14.649004    ( 0.0000,  0.0000,  0.0000)
   3 Pt    -0.016759   -0.027766   16.949983    ( 0.0000,  0.0000,  0.0000)
   4 Pt    -1.419843    2.459239    9.999999    ( 0.0000,  0.0000,  0.0000)
   5 Pt     0.000000    3.278986   12.318592    ( 0.0000,  0.0000,  0.0000)
   6 Pt    -1.419870    4.097865   14.612943    ( 0.0000,  0.0000,  0.0000)
   7 Pt    -1.457562    2.458474   16.940396    ( 0.0000,  0.0000,  0.0000)
   8 Pt    -2.839685    4.918479    9.999999    ( 0.0000,  0.0000,  0.0000)
   9 Pt    -1.419843    5.738225   12.318592    ( 0.0000,  0.0000,  0.0000)
  10 Pt    -2.838382    6.556629   14.618123    ( 0.0000,  0.0000,  0.0000)
  11 Pt    -2.839307    4.917422   16.968676    ( 0.0000,  0.0000,  0.0000)
  12 Pt     2.839685    0.000000    9.999999    ( 0.0000,  0.0000,  0.0000)
  13 Pt     4.259528    0.819746   12.318592    ( 0.0000,  0.0000,  0.0000)
  14 Pt     2.831495    1.642907   14.640135    ( 0.0000,  0.0000,  0.0000)
  15 Pt     2.857432   -0.032340   16.941409    ( 0.0000,  0.0000,  0.0000)
  16 Pt     1.419843    2.459239    9.999999    ( 0.0000,  0.0000,  0.0000)
  17 Pt     2.839685    3.278986   12.318592    ( 0.0000,  0.0000,  0.0000)
  18 Pt     1.421515    4.086506   14.644112    ( 0.0000,  0.0000,  0.0000)
  19 Pt     1.424705    2.456279   16.982707    ( 0.0000,  0.0000,  0.0000)
  20 Pt     0.000000    4.918479    9.999999    ( 0.0000,  0.0000,  0.0000)
  21 Pt     1.419843    5.738225   12.318592    ( 0.0000,  0.0000,  0.0000)
  22 Pt     0.005857    6.560698   14.601614    ( 0.0000,  0.0000,  0.0000)
  23 Pt    -0.014999    4.944973   16.938637    ( 0.0000,  0.0000,  0.0000)
  24 Pt     5.679370    0.000000    9.999999    ( 0.0000,  0.0000,  0.0000)
  25 Pt     7.099213    0.819746   12.318592    ( 0.0000,  0.0000,  0.0000)
  26 Pt     5.679534    1.633671   14.602651    ( 0.0000,  0.0000,  0.0000)
  27 Pt     5.678302    0.000588   16.971131    ( 0.0000,  0.0000,  0.0000)
  28 Pt     4.259528    2.459239    9.999999    ( 0.0000,  0.0000,  0.0000)
  29 Pt     5.679370    3.278986   12.318592    ( 0.0000,  0.0000,  0.0000)
  30 Pt     4.260911    4.097732   14.613775    ( 0.0000,  0.0000,  0.0000)
  31 Pt     4.289266    2.459632   16.940125    ( 0.0000,  0.0000,  0.0000)
  32 Pt     2.839685    4.918479    9.999999    ( 0.0000,  0.0000,  0.0000)
  33 Pt     4.259528    5.738225   12.318592    ( 0.0000,  0.0000,  0.0000)
  34 Pt     2.836951    6.559652   14.606113    ( 0.0000,  0.0000,  0.0000)
  35 Pt     2.856415    4.948205   16.945827    ( 0.0000,  0.0000,  0.0000)
  36 O      1.411378    2.464876   18.976662    ( 0.0000,  0.0000,  0.0000)
  37 H      1.425880    2.456913   19.933529    ( 0.0000,  0.0000,  0.0000)

Unit cell:
           periodic     x           y           z      points  spacing
  1. axis:    yes    8.519055    0.000000    0.000000    40     0.1844
  2. axis:    yes   -4.259528    7.377718    0.000000    40     0.1844
  3. axis:    no     0.000000    0.000000   26.955778   148     0.1821

  Lengths:   8.519055   8.519055  26.955778
  Angles:   90.000000  90.000000 120.000000

Effective grid spacing dv^(1/3) = 0.1927

     iter     time        total  log10-change:
                         energy  eigst   dens
iter:   1 13:15:58 -11900.518997  -4.25
iter:   2 13:16:33 -11900.844788  -3.53  -3.04
iter:   3 13:17:09 -11900.507329  -3.91  -2.35
iter:   4 13:17:45 -11900.506807  -5.03  -3.73
iter:   5 13:18:20 -11900.506794c -5.83  -4.32c
iter:   6 13:18:55 -11900.506682c -6.30  -4.36c
iter:   7 13:19:31 -11900.506705c -6.63  -4.49c
iter:   8 13:20:06 -11900.506749c -6.76  -4.46c
iter:   9 13:20:42 -11900.506730c -7.46c -4.77c

Converged after 9 iterations.

Dipole moment: (-2.510269, -4.694758, 0.146407) |e|*Ang

Energy contributions relative to reference atoms: (reference = -18015566.402091)

Kinetic:       +803.901243
Potential:     -823.987945
External:        +0.000000
XC:            -11860.431731
Entropy (-ST):   -2.406902
Local:          -18.784846
--------------------------
Free energy:   -11901.710181
Extrapolated:  -11900.506730

Showing only first 2 kpts
 Kpt  Band  Eigenvalues  Occupancy
  0   289     -5.72577    1.21705
  0   290     -5.71111    1.14618
  0   291     -5.67283    0.95586
  0   292     -5.65959    0.89010

  1   289     -5.91647    1.82556
  1   290     -5.85879    1.70924
  1   291     -5.83607    1.64810
  1   292     -5.81639    1.58738


Fermi level: -5.68166

No gap

Forces in eV/Ang:
  0 Pt   -0.01641   -0.00142   -0.13243
  1 Pt    0.00783    0.06301    0.14717
  2 Pt    0.01282    0.01050   -0.01636
  3 Pt    0.00173   -0.00056   -0.01274
  4 Pt   -0.01525   -0.01171   -0.10791
  5 Pt    0.04045   -0.02875    0.18191
  6 Pt   -0.00778    0.00715    0.00613
  7 Pt   -0.00850   -0.00029   -0.00162
  8 Pt    0.00219   -0.00575   -0.08997
  9 Pt   -0.01914   -0.00566    0.07339
 10 Pt   -0.00277   -0.01041   -0.00092
 11 Pt   -0.00088   -0.00136   -0.01610
 12 Pt    0.03210   -0.00449   -0.11124
 13 Pt   -0.04473    0.01843    0.11939
 14 Pt   -0.01377    0.00328   -0.01303
 15 Pt    0.00412   -0.00807   -0.00371
 16 Pt    0.00620    0.00814   -0.11971
 17 Pt   -0.05833   -0.01325    0.14515
 18 Pt    0.00186   -0.01784   -0.00662
 19 Pt    0.02391   -0.02211   -0.01608
 20 Pt    0.01271    0.01998   -0.07051
 21 Pt   -0.00321   -0.05077    0.15112
 22 Pt   -0.01047   -0.01979    0.02655
 23 Pt    0.00219   -0.00671   -0.00233
 24 Pt   -0.01317    0.00091   -0.21006
 25 Pt    0.02098    0.04451    0.12114
 26 Pt   -0.00550    0.01415    0.03659
 27 Pt    0.00126   -0.00431   -0.03341
 28 Pt    0.01339   -0.01696   -0.07115
 29 Pt    0.00788    0.02000    0.04352
 30 Pt    0.00698   -0.00032    0.01543
 31 Pt   -0.00674   -0.00258    0.00072
 32 Pt   -0.01330    0.00741   -0.10709
 33 Pt    0.01096   -0.02866    0.04847
 34 Pt    0.01910   -0.00666    0.01830
 35 Pt    0.00073   -0.00015   -0.00637
 36 O    -0.09204    0.04244    0.09173
 37 H     0.07486   -0.03885    0.02455

BFGS:    7 13:20:59   -11900.506730        0.1367
System changes: positions 

Initializing position-dependent things.

Density initialized from wave functions
                                             
                                             
                                             
                                             
                                             
                                             
                   H                         
                                             
          Pt     PtO    Pt                   
                                             
            Pt    PPt    PPt                 
                                             
             PPt    PPt    PPt               
               Pt     Pt                     
              Pt     Pt     PPt              
                Pt     Pt     Pt             
                                             
          Pt     PPt    PPt     Pt           
                                             
            Pt     Pt     Pt                 
              Pt     Pt     Pt               
                                             
                                             
                                             
                                             

Positions:
   0 Pt     0.000000    0.000000    9.999999    ( 0.0000,  0.0000,  0.0000)
   1 Pt     1.419843    0.819746   12.318592    ( 0.0000,  0.0000,  0.0000)
   2 Pt     0.009741    1.645693   14.649040    ( 0.0000,  0.0000,  0.0000)
   3 Pt    -0.016293   -0.027133   16.948617    ( 0.0000,  0.0000,  0.0000)
   4 Pt    -1.419843    2.459239    9.999999    ( 0.0000,  0.0000,  0.0000)
   5 Pt     0.000000    3.278986   12.318592    ( 0.0000,  0.0000,  0.0000)
   6 Pt    -1.420155    4.098294   14.612675    ( 0.0000,  0.0000,  0.0000)
   7 Pt    -1.457623    2.458435   16.939508    ( 0.0000,  0.0000,  0.0000)
   8 Pt    -2.839685    4.918479    9.999999    ( 0.0000,  0.0000,  0.0000)
   9 Pt    -1.419843    5.738225   12.318592    ( 0.0000,  0.0000,  0.0000)
  10 Pt    -2.838526    6.555987   14.617437    ( 0.0000,  0.0000,  0.0000)
  11 Pt    -2.839315    4.917317   16.968391    ( 0.0000,  0.0000,  0.0000)
  12 Pt     2.839685    0.000000    9.999999    ( 0.0000,  0.0000,  0.0000)
  13 Pt     4.259528    0.819746   12.318592    ( 0.0000,  0.0000,  0.0000)
  14 Pt     2.830835    1.642906   14.640106    ( 0.0000,  0.0000,  0.0000)
  15 Pt     2.857393   -0.032593   16.940455    ( 0.0000,  0.0000,  0.0000)
  16 Pt     1.419843    2.459239    9.999999    ( 0.0000,  0.0000,  0.0000)
  17 Pt     2.839685    3.278986   12.318592    ( 0.0000,  0.0000,  0.0000)
  18 Pt     1.421571    4.085628   14.644798    ( 0.0000,  0.0000,  0.0000)
  19 Pt     1.426385    2.454751   16.983823    ( 0.0000,  0.0000,  0.0000)
  20 Pt     0.000000    4.918479    9.999999    ( 0.0000,  0.0000,  0.0000)
  21 Pt     1.419843    5.738225   12.318592    ( 0.0000,  0.0000,  0.0000)
  22 Pt     0.005907    6.559657   14.601669    ( 0.0000,  0.0000,  0.0000)
  23 Pt    -0.014356    4.943577   16.938326    ( 0.0000,  0.0000,  0.0000)
  24 Pt     5.679370    0.000000    9.999999    ( 0.0000,  0.0000,  0.0000)
  25 Pt     7.099213    0.819746   12.318592    ( 0.0000,  0.0000,  0.0000)
  26 Pt     5.679149    1.633849   14.603480    ( 0.0000,  0.0000,  0.0000)
  27 Pt     5.678364    0.000316   16.969767    ( 0.0000,  0.0000,  0.0000)
  28 Pt     4.259528    2.459239    9.999999    ( 0.0000,  0.0000,  0.0000)
  29 Pt     5.679370    3.278986   12.318592    ( 0.0000,  0.0000,  0.0000)
  30 Pt     4.261304    4.097603   14.614277    ( 0.0000,  0.0000,  0.0000)
  31 Pt     4.287784    2.459501   16.940105    ( 0.0000,  0.0000,  0.0000)
  32 Pt     2.839685    4.918479    9.999999    ( 0.0000,  0.0000,  0.0000)
  33 Pt     4.259528    5.738225   12.318592    ( 0.0000,  0.0000,  0.0000)
  34 Pt     2.837690    6.559493   14.605635    ( 0.0000,  0.0000,  0.0000)
  35 Pt     2.856175    4.947793   16.945069    ( 0.0000,  0.0000,  0.0000)
  36 O      1.405123    2.467959   18.982165    ( 0.0000,  0.0000,  0.0000)
  37 H      1.430574    2.454526   19.936870    ( 0.0000,  0.0000,  0.0000)

Unit cell:
           periodic     x           y           z      points  spacing
  1. axis:    yes    8.519055    0.000000    0.000000    40     0.1844
  2. axis:    yes   -4.259528    7.377718    0.000000    40     0.1844
  3. axis:    no     0.000000    0.000000   26.955778   148     0.1821

  Lengths:   8.519055   8.519055  26.955778
  Angles:   90.000000  90.000000 120.000000

Effective grid spacing dv^(1/3) = 0.1927

     iter     time        total  log10-change:
                         energy  eigst   dens
iter:   1 13:22:27 -11900.509112  -3.60
iter:   2 13:23:03 -11900.508810  -4.54  -3.80
iter:   3 13:23:39 -11900.510511c -5.14  -3.76
iter:   4 13:24:14 -11900.508794c -5.67  -3.52
iter:   5 13:24:50 -11900.508702c -6.11  -3.95
iter:   6 13:25:26 -11900.508789c -5.75  -4.16c
iter:   7 13:26:01 -11900.508843c -6.02  -4.40c
iter:   8 13:26:37 -11900.508822c -6.78  -4.49c
iter:   9 13:27:13 -11900.508799c -7.26  -4.54c
iter:  10 13:27:49 -11900.508710c -6.82  -4.63c
iter:  11 13:28:24 -11900.508746c -7.74c -4.52c

Converged after 11 iterations.

Dipole moment: (-2.511263, -4.727115, 0.141365) |e|*Ang

Energy contributions relative to reference atoms: (reference = -18015566.402091)

Kinetic:       +803.798471
Potential:     -823.875796
External:        +0.000000
XC:            -11860.440751
Entropy (-ST):   -2.407123
Local:          -18.787109
--------------------------
Free energy:   -11901.712307
Extrapolated:  -11900.508746

Showing only first 2 kpts
 Kpt  Band  Eigenvalues  Occupancy
  0   289     -5.73012    1.21594
  0   290     -5.71568    1.14614
  0   291     -5.67752    0.95642
  0   292     -5.66431    0.89078

  1   289     -5.92104    1.82555
  1   290     -5.86459    1.71224
  1   291     -5.84011    1.64654
  1   292     -5.82120    1.58814


Fermi level: -5.68624

No gap

Forces in eV/Ang:
  0 Pt   -0.01658   -0.00026   -0.13367
  1 Pt    0.00633    0.06671    0.14537
  2 Pt    0.01225    0.00858   -0.01523
  3 Pt    0.00434    0.00259   -0.01147
  4 Pt   -0.01450   -0.01261   -0.10913
  5 Pt    0.04462   -0.03028    0.18175
  6 Pt   -0.00380    0.00168    0.01077
  7 Pt    0.00209    0.00279    0.00141
  8 Pt    0.00218   -0.00544   -0.09145
  9 Pt   -0.01925   -0.00602    0.06898
 10 Pt   -0.00207   -0.00322    0.00428
 11 Pt    0.00061   -0.00292   -0.01787
 12 Pt    0.03258   -0.00359   -0.11299
 13 Pt   -0.04858    0.02090    0.11882
 14 Pt   -0.00971    0.00152   -0.01735
 15 Pt   -0.00001   -0.00518    0.00003
 16 Pt    0.00584    0.00807   -0.11929
 17 Pt   -0.06141   -0.01374    0.14689
 18 Pt    0.00307   -0.01802   -0.00862
 19 Pt    0.04035   -0.02946    0.03295
 20 Pt    0.01363    0.01983   -0.07177
 21 Pt   -0.00247   -0.05718    0.14778
 22 Pt   -0.01221   -0.01468    0.02856
 23 Pt    0.00275   -0.01416   -0.00237
 24 Pt   -0.01335    0.00103   -0.21215
 25 Pt    0.02476    0.04807    0.11830
 26 Pt   -0.00686    0.01457    0.03249
 27 Pt    0.00107   -0.00591   -0.03098
 28 Pt    0.01287   -0.01787   -0.07239
 29 Pt    0.00728    0.01964    0.04328
 30 Pt    0.00062   -0.00258    0.01421
 31 Pt   -0.00781   -0.00077    0.00133
 32 Pt   -0.01439    0.00756   -0.10816
 33 Pt    0.01127   -0.03066    0.04443
 34 Pt    0.01671   -0.00856    0.02300
 35 Pt   -0.00199   -0.00612   -0.00692
 36 O    -0.19396    0.07494   -0.08219
 37 H     0.12494   -0.06250    0.12715

BFGS:    8 13:28:41   -11900.508746        0.2236
System changes: positions 

Initializing position-dependent things.

Density initialized from wave functions
                                             
                                             
                                             
                                             
                                             
                                             
                   H                         
                                             
          Pt     PtO    Pt                   
                                             
            Pt    PPt    PPt                 
                                             
             PPt    PPt    PPt               
               Pt     Pt                     
              Pt     Pt     PPt              
                Pt     Pt     Pt             
                                             
          Pt     PPt    PPt     Pt           
                                             
            Pt     Pt     Pt                 
              Pt     Pt     Pt               
                                             
                                             
                                             
                                             

Positions:
   0 Pt     0.000000    0.000000    9.999999    ( 0.0000,  0.0000,  0.0000)
   1 Pt     1.419843    0.819746   12.318592    ( 0.0000,  0.0000,  0.0000)
   2 Pt     0.011183    1.646579   14.647218    ( 0.0000,  0.0000,  0.0000)
   3 Pt    -0.015886   -0.026795   16.947876    ( 0.0000,  0.0000,  0.0000)
   4 Pt    -1.419843    2.459239    9.999999    ( 0.0000,  0.0000,  0.0000)
   5 Pt     0.000000    3.278986   12.318592    ( 0.0000,  0.0000,  0.0000)
   6 Pt    -1.420676    4.098677   14.613764    ( 0.0000,  0.0000,  0.0000)
   7 Pt    -1.457301    2.458674   16.939883    ( 0.0000,  0.0000,  0.0000)
   8 Pt    -2.839685    4.918479    9.999999    ( 0.0000,  0.0000,  0.0000)
   9 Pt    -1.419843    5.738225   12.318592    ( 0.0000,  0.0000,  0.0000)
  10 Pt    -2.838749    6.555487   14.617958    ( 0.0000,  0.0000,  0.0000)
  11 Pt    -2.839340    4.917113   16.966581    ( 0.0000,  0.0000,  0.0000)
  12 Pt     2.839685    0.000000    9.999999    ( 0.0000,  0.0000,  0.0000)
  13 Pt     4.259528    0.819746   12.318592    ( 0.0000,  0.0000,  0.0000)
  14 Pt     2.829580    1.643385   14.638542    ( 0.0000,  0.0000,  0.0000)
  15 Pt     2.857329   -0.032695   16.940609    ( 0.0000,  0.0000,  0.0000)
  16 Pt     1.419843    2.459239    9.999999    ( 0.0000,  0.0000,  0.0000)
  17 Pt     2.839685    3.278986   12.318592    ( 0.0000,  0.0000,  0.0000)
  18 Pt     1.421854    4.083828   14.643724    ( 0.0000,  0.0000,  0.0000)
[...]
  22 Pt    -0.020450    6.564694   14.612049    ( 0.0000,  0.0000,  0.0000)
  23 Pt    -0.053014    4.953100   16.947538    ( 0.0000,  0.0000,  0.0000)
  24 Pt     5.679370    0.000000    9.999999    ( 0.0000,  0.0000,  0.0000)
  25 Pt     7.099213    0.819746   12.318592    ( 0.0000,  0.0000,  0.0000)
  26 Pt     5.658426    1.643080   14.608203    ( 0.0000,  0.0000,  0.0000)
  27 Pt     5.633514    0.013371   16.955406    ( 0.0000,  0.0000,  0.0000)
  28 Pt     4.259528    2.459239    9.999999    ( 0.0000,  0.0000,  0.0000)
  29 Pt     5.679370    3.278986   12.318592    ( 0.0000,  0.0000,  0.0000)
  30 Pt     4.240709    4.102746   14.621267    ( 0.0000,  0.0000,  0.0000)
  31 Pt     4.235133    2.467841   16.945910    ( 0.0000,  0.0000,  0.0000)
  32 Pt     2.839685    4.918479    9.999999    ( 0.0000,  0.0000,  0.0000)
  33 Pt     4.259528    5.738225   12.318592    ( 0.0000,  0.0000,  0.0000)
  34 Pt     2.823319    6.560567   14.617263    ( 0.0000,  0.0000,  0.0000)
  35 Pt     2.806807    4.948920   16.953895    ( 0.0000,  0.0000,  0.0000)
  36 O      1.251692    2.538184   19.117036    ( 0.0000,  0.0000,  0.0000)
  37 H      2.060747    2.132744   19.468641    ( 0.0000,  0.0000,  0.0000)

Unit cell:
           periodic     x           y           z      points  spacing
  1. axis:    yes    8.519055    0.000000    0.000000    40     0.1844
  2. axis:    yes   -4.259528    7.377718    0.000000    40     0.1844
  3. axis:    no     0.000000    0.000000   26.955778   148     0.1821

  Lengths:   8.519055   8.519055  26.955778
  Angles:   90.000000  90.000000 120.000000

Effective grid spacing dv^(1/3) = 0.1927

     iter     time        total  log10-change:
                         energy  eigst   dens
iter:   1 03:31:23 -11901.420032  -2.79
iter:   2 03:31:59 -11901.902805  -3.14  -2.87
iter:   3 03:32:34 -11901.392252  -3.56  -2.26
iter:   4 03:33:10 -11901.384231  -4.58  -3.13
iter:   5 03:33:45 -11901.383712c -5.27  -3.66
iter:   6 03:34:21 -11901.383203c -5.31  -3.70
iter:   7 03:34:56 -11901.382988c -5.57  -3.80
iter:   8 03:35:32 -11901.383072c -5.60  -3.88
iter:   9 03:36:07 -11901.383072c -5.94  -3.88
iter:  10 03:36:43 -11901.382966c -6.85  -4.20c
iter:  11 03:37:18 -11901.383031c -6.86  -4.31c
iter:  12 03:37:54 -11901.383029c -6.60  -4.26c
iter:  13 03:38:29 -11901.383053c -6.93  -4.60c
iter:  14 03:39:05 -11901.383076c -7.31  -4.67c
iter:  15 03:39:40 -11901.383075c -7.99c -4.77c

Converged after 15 iterations.

Dipole moment: (2.033907, -7.531102, -0.101079) |e|*Ang

Energy contributions relative to reference atoms: (reference = -18015566.402091)

Kinetic:       +795.684288
Potential:     -817.931047
External:        +0.000000
XC:            -11859.142423
Entropy (-ST):   -2.356457
Local:          -18.815665
--------------------------
Free energy:   -11902.561304
Extrapolated:  -11901.383075

Showing only first 2 kpts
 Kpt  Band  Eigenvalues  Occupancy
  0   289     -5.96348    1.26379
  0   290     -5.93638    1.13385
  0   291     -5.89308    0.91832
  0   292     -5.86944    0.80259

  1   289     -6.15561    1.84282
  1   290     -6.05790    1.63051
  1   291     -6.05609    1.62502
  1   292     -6.04302    1.58357


Fermi level: -5.90945

No gap

Forces in eV/Ang:
  0 Pt   -0.00593    0.00009   -0.13299
  1 Pt   -0.00931    0.06670    0.24765
  2 Pt    0.03899    0.01531    0.00009
  3 Pt    0.00129    0.01221   -0.01256
  4 Pt   -0.00678   -0.01066   -0.11346
  5 Pt    0.03084   -0.02905    0.28058
  6 Pt    0.00677    0.00648   -0.01989
  7 Pt    0.02630   -0.00915   -0.01803
  8 Pt    0.01073   -0.00920   -0.09850
  9 Pt   -0.02440   -0.00054    0.11648
 10 Pt   -0.00487    0.01358   -0.03389
 11 Pt    0.00103    0.00402   -0.00981
 12 Pt    0.03657   -0.00358   -0.11356
 13 Pt   -0.03604   -0.00187    0.07528
 14 Pt   -0.00758    0.01102   -0.00923
 15 Pt   -0.00875    0.01513   -0.03235
 16 Pt    0.01416    0.00707   -0.11826
 17 Pt   -0.08592   -0.01507    0.24512
 18 Pt    0.00377   -0.03136   -0.00413
 19 Pt    0.02673    0.00078   -0.00127
 20 Pt    0.01857    0.01552   -0.07478
 21 Pt   -0.01920   -0.02756    0.14346
 22 Pt    0.01965   -0.00906   -0.01776
 23 Pt    0.00193   -0.00420    0.00041
 24 Pt   -0.00479   -0.00202   -0.19669
 25 Pt   -0.01756    0.02478    0.09525
 26 Pt    0.01124   -0.01289   -0.01539
 27 Pt    0.01592    0.00255    0.00554
 28 Pt    0.01741   -0.01671   -0.07499
 29 Pt   -0.01095    0.01732    0.07724
 30 Pt   -0.00390   -0.00362   -0.02909
 31 Pt   -0.02796    0.00723    0.02076
 32 Pt   -0.00718    0.00022   -0.10821
 33 Pt   -0.01659   -0.01729    0.08426
 34 Pt   -0.01023    0.01110   -0.02630
 35 Pt   -0.01079   -0.02844   -0.00822
 36 O     0.07832   -0.01415   -0.06810
 37 H    -0.10283    0.05117   -0.05715

BFGS:   80 03:39:57   -11901.383075        0.1283
System changes: positions 

Initializing position-dependent things.

Density initialized from wave functions
                                            
                                            
                                            
                                            
                                            
                                            
                  O H                       
                                            
          Pt     Pt     Pt                  
            Pt     Pt     Pt                
           Pt     Pt     Pt                 
             PPt    PPt    PPt              
                                            
              PPt    PPt    PPt             
                                            
                Pt     Pt     Pt            
                  Pt     Pt     Pt          
          Pt     Pt     Pt                  
            Pt     Pt     Pt                
              Pt     Pt     Pt              
                                            
                                            
                                            
                                            

Positions:
   0 Pt     0.000000    0.000000    9.999999    ( 0.0000,  0.0000,  0.0000)
   1 Pt     1.419843    0.819746   12.318592    ( 0.0000,  0.0000,  0.0000)
   2 Pt    -0.002148    1.650348   14.660636    ( 0.0000,  0.0000,  0.0000)
   3 Pt    -0.045845   -0.002512   16.957715    ( 0.0000,  0.0000,  0.0000)
   4 Pt    -1.419843    2.459239    9.999999    ( 0.0000,  0.0000,  0.0000)
   5 Pt     0.000000    3.278986   12.318592    ( 0.0000,  0.0000,  0.0000)
   6 Pt    -1.436869    4.102632   14.617715    ( 0.0000,  0.0000,  0.0000)
   7 Pt    -1.486621    2.469944   16.942239    ( 0.0000,  0.0000,  0.0000)
   8 Pt    -2.839685    4.918479    9.999999    ( 0.0000,  0.0000,  0.0000)
   9 Pt    -1.419843    5.738225   12.318592    ( 0.0000,  0.0000,  0.0000)
  10 Pt    -2.853318    6.560280   14.623185    ( 0.0000,  0.0000,  0.0000)
  11 Pt    -2.878453    4.933199   16.968245    ( 0.0000,  0.0000,  0.0000)
  12 Pt     2.839685    0.000000    9.999999    ( 0.0000,  0.0000,  0.0000)
  13 Pt     4.259528    0.819746   12.318592    ( 0.0000,  0.0000,  0.0000)
  14 Pt     2.805220    1.649825   14.654493    ( 0.0000,  0.0000,  0.0000)
  15 Pt     2.807746    0.002006   16.963158    ( 0.0000,  0.0000,  0.0000)
  16 Pt     1.419843    2.459239    9.999999    ( 0.0000,  0.0000,  0.0000)
  17 Pt     2.839685    3.278986   12.318592    ( 0.0000,  0.0000,  0.0000)
  18 Pt     1.402785    4.081193   14.660182    ( 0.0000,  0.0000,  0.0000)
  19 Pt     1.374716    2.479947   17.100997    ( 0.0000,  0.0000,  0.0000)
  20 Pt     0.000000    4.918479    9.999999    ( 0.0000,  0.0000,  0.0000)
  21 Pt     1.419843    5.738225   12.318592    ( 0.0000,  0.0000,  0.0000)
  22 Pt    -0.017377    6.564502   14.609837    ( 0.0000,  0.0000,  0.0000)
  23 Pt    -0.049316    4.954495   16.945193    ( 0.0000,  0.0000,  0.0000)
  24 Pt     5.679370    0.000000    9.999999    ( 0.0000,  0.0000,  0.0000)
  25 Pt     7.099213    0.819746   12.318592    ( 0.0000,  0.0000,  0.0000)
  26 Pt     5.659510    1.642894   14.607333    ( 0.0000,  0.0000,  0.0000)
  27 Pt     5.638116    0.014939   16.955583    ( 0.0000,  0.0000,  0.0000)
  28 Pt     4.259528    2.459239    9.999999    ( 0.0000,  0.0000,  0.0000)
  29 Pt     5.679370    3.278986   12.318592    ( 0.0000,  0.0000,  0.0000)
  30 Pt     4.242395    4.102729   14.619806    ( 0.0000,  0.0000,  0.0000)
  31 Pt     4.235749    2.469512   16.949171    ( 0.0000,  0.0000,  0.0000)
  32 Pt     2.839685    4.918479    9.999999    ( 0.0000,  0.0000,  0.0000)
  33 Pt     4.259528    5.738225   12.318592    ( 0.0000,  0.0000,  0.0000)
  34 Pt     2.823632    6.561472   14.614159    ( 0.0000,  0.0000,  0.0000)
  35 Pt     2.809641    4.948142   16.952651    ( 0.0000,  0.0000,  0.0000)
  36 O      1.227434    2.549238   19.105730    ( 0.0000,  0.0000,  0.0000)
  37 H      2.029903    2.149918   19.474640    ( 0.0000,  0.0000,  0.0000)

Unit cell:
           periodic     x           y           z      points  spacing
  1. axis:    yes    8.519055    0.000000    0.000000    40     0.1844
  2. axis:    yes   -4.259528    7.377718    0.000000    40     0.1844
  3. axis:    no     0.000000    0.000000   26.955778   148     0.1821

  Lengths:   8.519055   8.519055  26.955778
  Angles:   90.000000  90.000000 120.000000

Effective grid spacing dv^(1/3) = 0.1927

     iter     time        total  log10-change:
                         energy  eigst   dens
iter:   1 03:41:25 -11901.481904  -2.50
iter:   2 03:42:00 -11902.711178  -2.76  -2.67
iter:   3 03:42:36 -11901.408287  -3.16  -2.07
iter:   4 03:43:11 -11901.386820  -4.22  -2.93
iter:   5 03:43:47 -11901.385980c -4.90  -3.49
iter:   6 03:44:22 -11901.384786c -5.10  -3.50
iter:   7 03:44:57 -11901.384302c -5.25  -3.68
iter:   8 03:45:33 -11901.384598c -5.23  -3.76
iter:   9 03:46:08 -11901.384252c -5.55  -3.65
iter:  10 03:46:44 -11901.384148c -6.48  -4.11c
iter:  11 03:47:19 -11901.384252c -6.47  -4.15c
iter:  12 03:47:55 -11901.384301c -6.14  -4.14c
iter:  13 03:48:30 -11901.384310c -6.62  -4.36c
iter:  14 03:49:06 -11901.384324c -7.18  -4.55c
iter:  15 03:49:41 -11901.384324c -7.48c -4.58c

Converged after 15 iterations.

Dipole moment: (1.724990, -7.720496, -0.090865) |e|*Ang

Energy contributions relative to reference atoms: (reference = -18015566.402091)

Kinetic:       +796.700299
Potential:     -818.794313
External:        +0.000000
XC:            -11859.302342
Entropy (-ST):   -2.356321
Local:          -18.809808
--------------------------
Free energy:   -11902.562484
Extrapolated:  -11901.384324

Showing only first 2 kpts
 Kpt  Band  Eigenvalues  Occupancy
  0   289     -5.95370    1.26227
  0   290     -5.92707    1.13458
  0   291     -5.88405    0.92045
  0   292     -5.86004    0.80287

  1   289     -6.14617    1.84284
  1   290     -6.04733    1.62716
  1   291     -6.04701    1.62617
  1   292     -6.03394    1.58481


Fermi level: -5.89999

No gap

Forces in eV/Ang:
  0 Pt   -0.00692   -0.00044   -0.13490
  1 Pt   -0.00576    0.07197    0.23434
  2 Pt    0.00821    0.00182   -0.00755
  3 Pt   -0.00258   -0.00100   -0.00600
  4 Pt   -0.00779   -0.01144   -0.11404
  5 Pt    0.03223   -0.02831    0.26974
  6 Pt    0.00066    0.00141   -0.00449
  7 Pt    0.00859   -0.00270   -0.00729
  8 Pt    0.00957   -0.00927   -0.09932
  9 Pt   -0.02135    0.00060    0.10263
 10 Pt   -0.00225    0.00493   -0.01394
 11 Pt    0.00015    0.00005   -0.01654
 12 Pt    0.03624   -0.00344   -0.11466
 13 Pt   -0.03614    0.00063    0.07290
 14 Pt    0.01215   -0.00298   -0.00644
 15 Pt   -0.00391    0.00194   -0.02025
 16 Pt    0.01354    0.00611   -0.11883
 17 Pt   -0.08373   -0.01599    0.23864
 18 Pt    0.00105   -0.00368   -0.00511
 19 Pt    0.00232    0.00363   -0.02858
 20 Pt    0.01837    0.01594   -0.07524
 21 Pt   -0.01874   -0.03103    0.13067
 22 Pt    0.00586   -0.00238   -0.00452
 23 Pt   -0.00024   -0.00313   -0.00516
 24 Pt   -0.00318   -0.00241   -0.19924
 25 Pt   -0.01483    0.03026    0.08371
 26 Pt    0.00578   -0.00243   -0.00091
 27 Pt    0.00718   -0.00012   -0.00461
 28 Pt    0.01716   -0.01705   -0.07585
 29 Pt   -0.00999    0.01572    0.07066
 30 Pt   -0.00052   -0.00224   -0.01174
 31 Pt   -0.00290    0.00468   -0.00246
 32 Pt   -0.00698    0.00093   -0.10945
 33 Pt   -0.01715   -0.01973    0.07009
 34 Pt    0.00027    0.00375   -0.00688
 35 Pt   -0.00505   -0.00932   -0.01211
 36 O     0.02033    0.00132    0.00622
 37 H    -0.01590    0.00475   -0.03798

BFGS:   81 03:49:58   -11901.384324        0.0414
Timing:                                      incl.     excl.
-------------------------------------------------------------------
Density initialized from wave functions:   154.360   154.358   0.3% |
 Symmetrize density:                         0.003     0.003   0.0% |
Forces:                                   1414.447  1414.447   2.5% ||
Hamiltonian:                               224.140     0.011   0.0% |
 Atomic:                                     0.018     0.017   0.0% |
  XC Correction:                             0.000     0.000   0.0% |
 Calculate atomic Hamiltonians:              0.023     0.023   0.0% |
 Communicate:                               15.753    15.753   0.0% |
 Hartree integrate/restrict:                 0.701     0.701   0.0% |
 Initialize Hamiltonian:                     0.001     0.001   0.0% |
 Poisson:                                   12.700     0.533   0.0% |
  Communicate from 1D:                       0.999     0.999   0.0% |
  Communicate from 2D:                       2.098     2.098   0.0% |
  Communicate to 1D:                         0.562     0.562   0.0% |
  Communicate to 2D:                         2.228     2.228   0.0% |
  FFT 1D:                                    3.261     3.261   0.0% |
  FFT 2D:                                    3.020     3.020   0.0% |
 XC 3D grid:                               194.646    51.766   0.1% |
  VdW-DF integral:                         142.880    10.329   0.0% |
   Convolution:                             16.882    16.882   0.0% |
   FFT:                                     10.988    10.988   0.0% |
   gather:                                  35.181    35.181   0.1% |
   hmm1:                                     3.045     3.045   0.0% |
   hmm2:                                     6.646     6.646   0.0% |
   iFFT:                                    10.610    10.610   0.0% |
   potential:                               45.520     1.287   0.0% |
    collect:                                 3.593     3.593   0.0% |
    p1:                                     27.588    27.588   0.0% |
    p2:                                      9.890     9.890   0.0% |
    sum:                                     3.161     3.161   0.0% |
   splines:                                  3.680     3.680   0.0% |
 vbar:                                       0.287     0.287   0.0% |
LCAO initialization:                        35.523     1.086   0.0% |
 LCAO eigensolver:                          23.214     0.003   0.0% |
  Calculate projections:                     0.000     0.000   0.0% |
  DenseAtomicCorrection:                     0.000     0.000   0.0% |
  Distribute overlap matrix:                22.445    22.445   0.0% |
  Orbital Layouts:                           0.599     0.599   0.0% |
  Potential matrix:                          0.036     0.036   0.0% |
  Sum over cells:                            0.131     0.131   0.0% |
 LCAO to grid:                               9.671     9.671   0.0% |
 Set positions (LCAO WFS):                   1.553     1.099   0.0% |
  Basic WFS set positions:                   0.001     0.001   0.0% |
  Basis functions set positions:             0.000     0.000   0.0% |
  P tci:                                     0.000     0.000   0.0% |
  ST tci:                                    0.369     0.369   0.0% |
  mktci:                                     0.082     0.082   0.0% |
Redistribute:                                0.041     0.041   0.0% |
SCF-cycle:                               51700.648   354.677   0.6% |
 Davidson:                               47190.001 15051.482  26.3% |----------|
  Apply hamiltonian:                       947.088   947.088   1.7% ||
  Subspace diag:                          4501.499     0.156   0.0% |
   calc_h_matrix:                         2172.871  1259.795   2.2% ||
    Apply hamiltonian:                     913.076   913.076   1.6% ||
   diagonalize:                             73.667    73.667   0.1% |
   rotate_psi:                            2254.805  2254.805   3.9% |-|
  calc. matrices:                        21831.445  8110.838  14.2% |-----|
   Apply hamiltonian:                    13720.606 13720.606  24.0% |---------|
  diagonalize:                             690.073   690.073   1.2% |
  rotate_psi:                             4168.414  4168.414   7.3% |--|
 Density:                                   83.475     0.029   0.0% |
  Atomic density matrices:                   6.731     6.731   0.0% |
  Mix:                                      17.553    17.553   0.0% |
  Multipole moments:                         0.462     0.462   0.0% |
  Pseudo density:                           58.701    58.667   0.1% |
   Symmetrize density:                       0.034     0.034   0.0% |
 Hamiltonian:                             3661.163     0.158   0.0% |
  Atomic:                                    0.294     0.290   0.0% |
   XC Correction:                            0.004     0.004   0.0% |
  Calculate atomic Hamiltonians:             0.410     0.410   0.0% |
  Communicate:                             261.421   261.421   0.5% |
  Hartree integrate/restrict:               11.831    11.831   0.0% |
  Poisson:                                 211.792     8.891   0.0% |
   Communicate from 1D:                     16.804    16.804   0.0% |
   Communicate from 2D:                     34.749    34.749   0.1% |
   Communicate to 1D:                        9.472     9.472   0.0% |
   Communicate to 2D:                       36.887    36.887   0.1% |
   FFT 1D:                                  54.553    54.553   0.1% |
   FFT 2D:                                  50.437    50.437   0.1% |
  XC 3D grid:                             3172.742   857.675   1.5% ||
   VdW-DF integral:                       2315.068   171.565   0.3% |
    Convolution:                           280.513   280.513   0.5% |
    FFT:                                   182.257   182.257   0.3% |
    gather:                                585.567   585.567   1.0% |
    hmm1:                                   49.816    49.816   0.1% |
    hmm2:                                  110.436   110.436   0.2% |
    iFFT:                                  176.911   176.911   0.3% |
    potential:                             757.994    21.067   0.0% |
     collect:                               59.634    59.634   0.1% |
     p1:                                   459.531   459.531   0.8% |
     p2:                                   164.250   164.250   0.3% |
     sum:                                   53.512    53.512   0.1% |
    splines:                                 0.009     0.009   0.0% |
  vbar:                                      2.514     2.514   0.0% |
 Orthonormalize:                           411.332     0.015   0.0% |
  calc_s_matrix:                            28.332    28.332   0.0% |
  inverse-cholesky:                        323.617   323.617   0.6% |
  projections:                               0.003     0.003   0.0% |
  rotate_psi_s:                             59.364    59.364   0.1% |
Set symmetry:                                0.001     0.001   0.0% |
Other:                                    3620.211  3620.211   6.3% |--|
-------------------------------------------------------------------
Total:                                             57149.372 100.0%

Memory usage: 1.55 GiB
Date: Wed Sep 27 03:49:58 2023
