
  ___ ___ ___ _ _ _  
 |   |   |_  | | | | 
 | | | | | . | | | | 
 |__ |  _|___|_____|  22.8.0
 |___|_|             

User:   s204775@a030.nifl.fysik.dtu.dk
Date:   Tue Sep 26 11:58:56 2023
Arch:   x86_64
Pid:    169561
CWD:    /home/cat/s204775/projects/Bachelor_project/OH_missing_features
Python: 3.10.4
gpaw:   /home/modules/software/GPAW/22.8.0-intel-2022a/lib/python3.10/site-packages/gpaw
_gpaw:  /home/modules/software/GPAW/22.8.0-intel-2022a/lib/python3.10/site-packages/
        _gpaw.cpython-310-x86_64-linux-gnu.so
ase:    /home/modules/software/ASE/3.22.1-intel-2022a/lib/python3.10/site-packages/ase (version 3.22.1)
numpy:  /home/modules/software/SciPy-bundle/2022.05-intel-2022a/lib/python3.10/site-packages/numpy (version 1.22.3)
scipy:  /home/modules/software/SciPy-bundle/2022.05-intel-2022a/lib/python3.10/site-packages/scipy (version 1.8.1)
libxc:  5.2.3
units:  Angstrom and eV
cores: 40
OpenMP: False
OMP_NUM_THREADS: 1

Input parameters:
  basis: dzp
  h: 0.18
  kpts: {size: (4, 4, 1)}
  xc: BEEF-vdW

System changes: positions, numbers, cell, pbc, initial_charges, initial_magmoms 

Initialize ...

species:
  Rh:
    name: Rhodium
    id: 4e1d209aee696a641de1ffa1459b299f
    Z: 45.0
    valence: 15
    core: 30
    charge: 0.0
    file: /home/modules/software/GPAW-setups/0.9.20000/Rh.PBE.gz
    compensation charges: {type: gauss,
                           rc: 0.38,
                           lmax: 2}
    cutoffs: {filter: 2.48,
              core: 2.35}
    valence states:
      #              energy  rcut
      - 5s(1.00)    -4.297   1.270
      - 4p(6.00)   -50.429   1.381
      - 5p(0.00)    -0.852   1.381
      - 4d(8.00)    -5.942   1.244
      -  s          22.915   1.270
      -  d          21.270   1.244
  
    # LCAO basis set for Rh:
    #   Name: dzp
    #   File: /home/modules/software/GPAW-setups/0.9.20000/Rh.dzp.basis.gz
    #   Number of radial functions: 9
    #   Number of spherical harmonics: 27
    #     l=0, rc=9.5469 Bohr: 5s-sz confined orbital
    #     l=1, rc=3.6250 Bohr: 4p-sz confined orbital
    #     l=1, rc=14.0938 Bohr: 5p-sz confined orbital
    #     l=2, rc=5.9844 Bohr: 4d-sz confined orbital
    #     l=0, rc=5.7031 Bohr: 5s-dz split-valence wave
    #     l=1, rc=2.4531 Bohr: 4p-dz split-valence wave
    #     l=1, rc=8.7031 Bohr: 5p-dz split-valence wave
    #     l=2, rc=3.5625 Bohr: 4d-dz split-valence wave
    #     l=1, rc=9.5469 Bohr: p-type Gaussian polarization
    #   Number of RI-basis functions 0

  O:
    name: Oxygen
    id: 32ecd46bf208036f09c70b0ec9a88b78
    Z: 8.0
    valence: 6
    core: 2
    charge: 0.0
    file: /home/modules/software/GPAW-setups/0.9.20000/O.PBE.gz
    compensation charges: {type: gauss,
                           rc: 0.21,
                           lmax: 2}
    cutoffs: {filter: 1.17,
              core: 0.83}
    valence states:
      #              energy  rcut
      - 2s(2.00)   -23.961   0.688
      - 2p(4.00)    -9.029   0.598
      -  s           3.251   0.688
      -  p          18.182   0.598
      -  d           0.000   0.619
  
    # LCAO basis set for O:
    #   Name: dzp
    #   File: /home/modules/software/GPAW-setups/0.9.20000/O.dzp.basis.gz
    #   Number of radial functions: 5
    #   Number of spherical harmonics: 13
    #     l=0, rc=4.3438 Bohr: 2s-sz confined orbital
    #     l=1, rc=5.3906 Bohr: 2p-sz confined orbital
    #     l=0, rc=2.2969 Bohr: 2s-dz split-valence wave
    #     l=1, rc=2.8906 Bohr: 2p-dz split-valence wave
    #     l=2, rc=5.3906 Bohr: d-type Gaussian polarization
    #   Number of RI-basis functions 0

  H:
    name: Hydrogen
    id: d65de229564ff8ea4db303e23b6d1ecf
    Z: 1.0
    valence: 1
    core: 0
    charge: 0.0
    file: /home/modules/software/GPAW-setups/0.9.20000/H.PBE.gz
    compensation charges: {type: gauss,
                           rc: 0.15,
                           lmax: 2}
    cutoffs: {filter: 0.85,
              core: 0.53}
    valence states:
      #              energy  rcut
      - 1s(1.00)    -6.494   0.476
      -  s          20.717   0.476
      -  p           0.000   0.476
  
    # LCAO basis set for H:
    #   Name: dzp
    #   File: /home/modules/software/GPAW-setups/0.9.20000/H.dzp.basis.gz
    #   Number of radial functions: 3
    #   Number of spherical harmonics: 5
    #     l=0, rc=6.4219 Bohr: 1s-sz confined orbital
    #     l=0, rc=3.6094 Bohr: 1s-dz split-valence wave
    #     l=1, rc=6.4219 Bohr: p-type Gaussian polarization
    #   Number of RI-basis functions 0

Reference energy: -4686900.634470  # eV

Spin-paired calculation

Convergence criteria:
 Maximum [total energy] change in last 3 cyles: 0.0005 eV / electron
 Maximum integral of absolute [dens]ity change: 0.0001 electrons / valence electron
 Maximum integral of absolute [eigenst]ate change: 4e-08 eV^2 / valence electron
 Maximum number of scf [iter]ations: 333
 (Square brackets indicate name in SCF output, whereas a 'c' in
 the SCF output indicates the quantity has converged.)

Symmetries present (total): 1

  ( 1  0  0)
  ( 0  1  0)
  ( 0  0  1)

16 k-points: 4 x 4 x 1 Monkhorst-Pack grid
8 k-points in the irreducible part of the Brillouin zone
       k-points in crystal coordinates                weights
   0:     0.12500000   -0.37500000    0.00000000          2/16
   1:     0.12500000   -0.12500000    0.00000000          2/16
   2:     0.12500000    0.12500000    0.00000000          2/16
   3:     0.12500000    0.37500000    0.00000000          2/16
   4:     0.37500000   -0.37500000    0.00000000          2/16
   5:     0.37500000   -0.12500000    0.00000000          2/16
   6:     0.37500000    0.12500000    0.00000000          2/16
   7:     0.37500000    0.37500000    0.00000000          2/16

Wave functions: Uniform real-space grid
  Kinetic energy operator: 8*3+1=25 point O(h^6) finite-difference Laplacian
  ScaLapack parameters: grid=1x1, blocksize=None
  Wavefunction extrapolation:
    Improved wavefunction reuse through dual PAW basis 

Occupation numbers: Fermi-Dirac:
  width: 0.1000  # eV
 

Eigensolver
   Davidson(niter=2) 

Densities:
  Coarse grid: 40*40*148 grid
  Fine grid: 80*80*296 grid
  Total Charge: 0.000000 

Density mixing:
  Method: separate
  Backend: pulay
  Linear mixing parameter: 0.05
  old densities: 5
  Damping of long wavelength oscillations: 50 

Hamiltonian:
  XC and Coulomb potentials evaluated on a 80*80*296 grid
  Using the BEEF-vdW Exchange-Correlation functional
  Interpolation: tri-quintic (5. degree polynomial)
  Poisson solver: FastPoissonSolver using
    Stencil: 8*3+1=25 point O(h^6) finite-difference Laplacian
    FFT axes: [0, 1]
    FST axes: [2]
 

XC parameters: BEEF-vdW with 2 nearest neighbor stencil

Memory estimate:
  Process memory now: 200.86 MiB
  Calculator: 578.60 MiB
    Density: 66.06 MiB
      Arrays: 9.35 MiB
      Localized functions: 53.17 MiB
      Mixer: 3.54 MiB
    Hamiltonian: 10.35 MiB
      Arrays: 6.12 MiB
      XC: 0.00 MiB
      Poisson: 0.00 MiB
      vbar: 4.23 MiB
    Wavefunctions: 502.19 MiB
      Arrays psit_nG: 235.77 MiB
      Eigensolver: 256.24 MiB
      Projections: 0.68 MiB
      Projectors: 9.51 MiB

Total number of cores used: 40
Parallelization over k-points: 8
Domain decomposition: 1 x 1 x 5

Number of atoms: 38
Number of atomic orbitals: 990
Number of bands in calculation: 333
Number of valence electrons: 547
Bands to converge: occupied

... initialized

Initializing position-dependent things.

Density initialized from atomic densities
Creating initial wave functions:
  333 bands from LCAO basis set

                                           
                                           
                                           
                                           
                                           
                                           
                  H                        
                  O                        
          Rh    Rh     Rh                  
                                           
           RRh   RRh    RRh                
             RRh   RRh    RRh              
                                           
              RRh   RRh    RRh             
                                           
                Rh    Rh     Rh            
                 Rh     Rh     Rh          
          Rh    Rh     Rh                  
            Rh    Rh     Rh                
              Rh    Rh     Rh              
                                           
                                           
                                           
                                           

Positions:
   0 Rh     0.000000    0.000000    9.999999    ( 0.0000,  0.0000,  0.0000)
   1 Rh     1.374814    0.793749   12.245061    ( 0.0000,  0.0000,  0.0000)
   2 Rh     0.000000    1.586401   14.446843    ( 0.0000,  0.0000,  0.0000)
   3 Rh    -0.000000    0.000000   16.662155    ( 0.0000,  0.0000,  0.0000)
   4 Rh    -1.374814    2.381247    9.999999    ( 0.0000,  0.0000,  0.0000)
   5 Rh    -0.000000    3.174997   12.245061    ( 0.0000,  0.0000,  0.0000)
   6 Rh    -1.374325    3.969028   14.447533    ( 0.0000,  0.0000,  0.0000)
   7 Rh    -1.373523    2.379417   16.659614    ( 0.0000,  0.0000,  0.0000)
   8 Rh    -2.749628    4.762495    9.999999    ( 0.0000,  0.0000,  0.0000)
   9 Rh    -1.374814    5.556244   12.245061    ( 0.0000,  0.0000,  0.0000)
  10 Rh    -2.750578    6.350542   14.446843    ( 0.0000,  0.0000,  0.0000)
  11 Rh    -2.750567    4.764528   16.659614    ( 0.0000,  0.0000,  0.0000)
  12 Rh     2.749628    0.000000    9.999999    ( 0.0000,  0.0000,  0.0000)
  13 Rh     4.124441    0.793749   12.245061    ( 0.0000,  0.0000,  0.0000)
  14 Rh     2.749543    1.587450   14.446652    ( 0.0000,  0.0000,  0.0000)
  15 Rh     2.747397   -0.000203   16.659614    ( 0.0000,  0.0000,  0.0000)
  16 Rh     1.374814    2.381247    9.999999    ( 0.0000,  0.0000,  0.0000)
  17 Rh     2.749628    3.174997   12.245061    ( 0.0000,  0.0000,  0.0000)
  18 Rh     1.374325    3.969028   14.447533    ( 0.0000,  0.0000,  0.0000)
  19 Rh     1.373523    2.379417   16.659614    ( 0.0000,  0.0000,  0.0000)
  20 Rh    -0.000000    4.762495    9.999999    ( 0.0000,  0.0000,  0.0000)
  21 Rh     1.374814    5.556244   12.245061    ( 0.0000,  0.0000,  0.0000)
  22 Rh    -0.000000    6.349429   14.447533    ( 0.0000,  0.0000,  0.0000)
  23 Rh    -0.000000    4.762495   16.661084    ( 0.0000,  0.0000,  0.0000)
  24 Rh     5.499255    0.000000    9.999999    ( 0.0000,  0.0000,  0.0000)
  25 Rh     6.874069    0.793749   12.245061    ( 0.0000,  0.0000,  0.0000)
  26 Rh     5.499340    1.587450   14.446652    ( 0.0000,  0.0000,  0.0000)
  27 Rh     5.501486   -0.000203   16.659614    ( 0.0000,  0.0000,  0.0000)
  28 Rh     4.124441    2.381247    9.999999    ( 0.0000,  0.0000,  0.0000)
  29 Rh     5.499255    3.174997   12.245061    ( 0.0000,  0.0000,  0.0000)
  30 Rh     4.124441    3.968843   14.446652    ( 0.0000,  0.0000,  0.0000)
  31 Rh     4.124441    2.381247   16.660091    ( 0.0000,  0.0000,  0.0000)
  32 Rh     2.749628    4.762495    9.999999    ( 0.0000,  0.0000,  0.0000)
  33 Rh     4.124441    5.556244   12.245061    ( 0.0000,  0.0000,  0.0000)
  34 Rh     2.750578    6.350542   14.446843    ( 0.0000,  0.0000,  0.0000)
  35 Rh     2.750567    4.764528   16.659614    ( 0.0000,  0.0000,  0.0000)
  36 O      1.373523    2.379417   18.659614    ( 0.0000,  0.0000,  0.0000)
  37 H      1.373523    2.379417   19.619614    ( 0.0000,  0.0000,  0.0000)

Unit cell:
           periodic     x           y           z      points  spacing
  1. axis:    yes    8.248883    0.000000    0.000000    40     0.1786
  2. axis:    yes   -4.124441    7.143742    0.000000    40     0.1786
  3. axis:    no     0.000000    0.000000   26.735183   148     0.1806

  Lengths:   8.248883   8.248883  26.735183
  Angles:   90.000000  90.000000 120.000000

Effective grid spacing dv^(1/3) = 0.1881

     iter     time        total  log10-change:
                         energy  eigst   dens
iter:   1 12:00:40 -5182.430644
iter:   2 12:01:20 -5353.876274  -0.22  -1.31
iter:   3 12:02:00 -5184.434866  -1.05  -1.00
iter:   4 12:02:40 -5171.571581  -1.38  -1.34
iter:   5 12:03:20 -5168.355763  -1.72  -1.45
iter:   6 12:04:00 -5170.977856  -1.15  -1.53
iter:   7 12:04:39 -5167.886468  -1.73  -1.54
iter:   8 12:05:19 -5164.059034  -1.50  -1.62
iter:   9 12:05:59 -5164.159578  -2.19  -2.02
iter:  10 12:06:38 -5164.054272c -2.93  -2.06
iter:  11 12:07:18 -5163.899100c -3.32  -2.09
iter:  12 12:07:58 -5163.680676  -1.74  -2.15
iter:  13 12:08:38 -5163.589774  -3.06  -2.49
iter:  14 12:09:17 -5163.569397c -3.50  -2.76
iter:  15 12:09:57 -5163.585896c -3.97  -2.93
iter:  16 12:10:37 -5163.575653c -4.13  -2.82
iter:  17 12:11:16 -5163.566170c -4.22  -2.90
iter:  18 12:11:56 -5163.563695c -4.39  -3.20
iter:  19 12:12:36 -5163.565738c -4.91  -3.25
iter:  20 12:13:16 -5163.561508c -4.85  -3.32
iter:  21 12:13:55 -5163.562359c -5.35  -3.36
iter:  22 12:14:35 -5163.575794c -5.03  -3.38
iter:  23 12:15:15 -5163.562068c -5.24  -2.97
iter:  24 12:15:54 -5163.562178c -5.27  -3.45
iter:  25 12:16:34 -5163.563870c -5.27  -3.61
iter:  26 12:17:14 -5163.562899c -5.92  -3.67
iter:  27 12:17:54 -5163.564075c -5.78  -3.71
iter:  28 12:18:33 -5163.563658c -5.31  -3.80
iter:  29 12:19:13 -5163.563780c -6.15  -4.05c
iter:  30 12:19:53 -5163.563620c -6.50  -4.12c
iter:  31 12:20:32 -5163.563545c -6.31  -4.19c
iter:  32 12:21:12 -5163.563385c -6.36  -4.40c
iter:  33 12:21:52 -5163.563566c -6.55  -4.48c
iter:  34 12:22:32 -5163.563408c -7.13  -4.51c
iter:  35 12:23:11 -5163.563474c -7.84c -4.66c

Converged after 35 iterations.

Dipole moment: (-3.940880, -6.756146, 0.122556) |e|*Ang

Energy contributions relative to reference atoms: (reference = -4686900.634470)

Kinetic:       +747.368004
Potential:     -773.748871
External:        +0.000000
XC:            -5126.074294
Entropy (-ST):   -2.251652
Local:           -9.982486
--------------------------
Free energy:   -5164.689300
Extrapolated:  -5163.563474

Showing only first 2 kpts
 Kpt  Band  Eigenvalues  Occupancy
  0   271     -5.22331    1.27794
  0   272     -5.20155    1.17488
  0   273     -5.10837    0.71857
  0   274     -5.09159    0.64325

  1   271     -5.21348    1.23200
  1   272     -5.19886    1.16181
  1   273     -5.18940    1.11543
  1   274     -5.18333    1.08536


Fermi level: -5.16622

No gap

Forces in eV/Ang:
  0 Rh    0.00797    0.00972    0.19564
  1 Rh   -0.03012   -0.04097   -0.20378
  2 Rh    0.15632    0.08890    0.13116
  3 Rh   -0.13511   -0.19286   -0.03072
  4 Rh    0.01417   -0.00286    0.17315
  5 Rh   -0.02381    0.00977   -0.20332
  6 Rh   -0.00008   -0.00205   -0.01602
  7 Rh   -0.23823   -0.02511   -0.02968
  8 Rh   -0.00347    0.00713    0.14664
  9 Rh    0.01388    0.01371   -0.21087
 10 Rh    0.00207    0.00302   -0.01349
 11 Rh   -0.00653    0.00036    0.02176
 12 Rh   -0.01641    0.00567    0.17569
 13 Rh    0.04647   -0.02304   -0.24858
 14 Rh   -0.15597    0.09068    0.14255
 15 Rh    0.13601   -0.19646   -0.02812
 16 Rh   -0.00787   -0.00654    0.16501
 17 Rh    0.02409    0.01347   -0.20590
 18 Rh    0.00157   -0.18089    0.12711
 19 Rh    0.00319    0.00276    0.26518
 20 Rh   -0.00037   -0.01085    0.18611
 21 Rh   -0.00158    0.05909   -0.24569
 22 Rh   -0.03017   -0.02227    0.01674
 23 Rh   -0.09623    0.21586   -0.02755
 24 Rh    0.01120   -0.00080    0.13744
 25 Rh   -0.02656   -0.03918   -0.24711
 26 Rh    0.00498    0.03919    0.02017
 27 Rh    0.00423   -0.00077    0.02364
 28 Rh   -0.00770    0.00323    0.18678
 29 Rh   -0.00492   -0.02265   -0.21237
 30 Rh   -0.00113   -0.00434   -0.01286
 31 Rh    0.23927   -0.01735   -0.02666
 32 Rh    0.00067   -0.00362    0.17490
 33 Rh   -0.02064    0.04265   -0.21027
 34 Rh    0.03829   -0.02143    0.01961
 35 Rh    0.10035    0.20973   -0.02945
 36 O    -0.00477   -0.01948    0.01784
 37 H    -0.00470   -0.00371   -0.07995

      Step     Time          Energy         fmax
BFGS:    0 12:23:34    -5163.563474        0.2652
System changes: positions 

Initializing position-dependent things.

Density initialized from wave functions
                                           
                                           
                                           
                                           
                                           
                                           
                  H                        
                  O                        
          Rh    Rh     Rh                  
                                           
           RRh   RRh    RRh                
             RRh   RRh    RRh              
                                           
              RRh   RRh    RRh             
                                           
                Rh    Rh     Rh            
                 Rh     Rh     Rh          
          Rh    Rh     Rh                  
            Rh    Rh     Rh                
              Rh    Rh     Rh              
                                           
                                           
                                           
                                           

Positions:
   0 Rh     0.000000    0.000000    9.999999    ( 0.0000,  0.0000,  0.0000)
   1 Rh     1.374814    0.793749   12.245061    ( 0.0000,  0.0000,  0.0000)
   2 Rh     0.002233    1.587671   14.448717    ( 0.0000,  0.0000,  0.0000)
   3 Rh    -0.001930   -0.002755   16.661717    ( 0.0000,  0.0000,  0.0000)
   4 Rh    -1.374814    2.381247    9.999999    ( 0.0000,  0.0000,  0.0000)
   5 Rh    -0.000000    3.174997   12.245061    ( 0.0000,  0.0000,  0.0000)
   6 Rh    -1.374326    3.968999   14.447304    ( 0.0000,  0.0000,  0.0000)
   7 Rh    -1.376926    2.379058   16.659190    ( 0.0000,  0.0000,  0.0000)
   8 Rh    -2.749628    4.762495    9.999999    ( 0.0000,  0.0000,  0.0000)
   9 Rh    -1.374814    5.556244   12.245061    ( 0.0000,  0.0000,  0.0000)
  10 Rh    -2.750548    6.350585   14.446651    ( 0.0000,  0.0000,  0.0000)
  11 Rh    -2.750661    4.764533   16.659925    ( 0.0000,  0.0000,  0.0000)
  12 Rh     2.749628    0.000000    9.999999    ( 0.0000,  0.0000,  0.0000)
  13 Rh     4.124441    0.793749   12.245061    ( 0.0000,  0.0000,  0.0000)
  14 Rh     2.747315    1.588745   14.448688    ( 0.0000,  0.0000,  0.0000)
  15 Rh     2.749340   -0.003009   16.659213    ( 0.0000,  0.0000,  0.0000)
  16 Rh     1.374814    2.381247    9.999999    ( 0.0000,  0.0000,  0.0000)
  17 Rh     2.749628    3.174997   12.245061    ( 0.0000,  0.0000,  0.0000)
  18 Rh     1.374348    3.966444   14.449349    ( 0.0000,  0.0000,  0.0000)
  19 Rh     1.373569    2.379456   16.663403    ( 0.0000,  0.0000,  0.0000)
  20 Rh    -0.000000    4.762495    9.999999    ( 0.0000,  0.0000,  0.0000)
  21 Rh     1.374814    5.556244   12.245061    ( 0.0000,  0.0000,  0.0000)
  22 Rh    -0.000431    6.349111   14.447772    ( 0.0000,  0.0000,  0.0000)
  23 Rh    -0.001375    4.765579   16.660690    ( 0.0000,  0.0000,  0.0000)
  24 Rh     5.499255    0.000000    9.999999    ( 0.0000,  0.0000,  0.0000)
  25 Rh     6.874069    0.793749   12.245061    ( 0.0000,  0.0000,  0.0000)
  26 Rh     5.499411    1.588009   14.446940    ( 0.0000,  0.0000,  0.0000)
  27 Rh     5.501546   -0.000214   16.659952    ( 0.0000,  0.0000,  0.0000)
  28 Rh     4.124441    2.381247    9.999999    ( 0.0000,  0.0000,  0.0000)
  29 Rh     5.499255    3.174997   12.245061    ( 0.0000,  0.0000,  0.0000)
  30 Rh     4.124425    3.968781   14.446468    ( 0.0000,  0.0000,  0.0000)
  31 Rh     4.127860    2.381000   16.659710    ( 0.0000,  0.0000,  0.0000)
  32 Rh     2.749628    4.762495    9.999999    ( 0.0000,  0.0000,  0.0000)
  33 Rh     4.124441    5.556244   12.245061    ( 0.0000,  0.0000,  0.0000)
  34 Rh     2.751125    6.350235   14.447124    ( 0.0000,  0.0000,  0.0000)
  35 Rh     2.752001    4.767524   16.659194    ( 0.0000,  0.0000,  0.0000)
  36 O      1.373455    2.379139   18.659869    ( 0.0000,  0.0000,  0.0000)
  37 H      1.373456    2.379364   19.618472    ( 0.0000,  0.0000,  0.0000)

Unit cell:
           periodic     x           y           z      points  spacing
  1. axis:    yes    8.248883    0.000000    0.000000    40     0.1786
  2. axis:    yes   -4.124441    7.143742    0.000000    40     0.1786
  3. axis:    no     0.000000    0.000000   26.735183   148     0.1806

  Lengths:   8.248883   8.248883  26.735183
  Angles:   90.000000  90.000000 120.000000

Effective grid spacing dv^(1/3) = 0.1881

     iter     time        total  log10-change:
                         energy  eigst   dens
iter:   1 12:25:12 -5163.576929  -3.38
iter:   2 12:25:53 -5164.016333  -3.41  -2.98
iter:   3 12:26:34 -5163.589038  -3.79  -2.23
iter:   4 12:27:15 -5163.570941  -4.57  -3.16
iter:   5 12:27:56 -5163.571169c -5.45  -3.50
iter:   6 12:28:37 -5163.570770c -5.66  -3.56
iter:   7 12:29:17 -5163.571101c -6.08  -4.03c
iter:   8 12:29:58 -5163.571030c -6.14  -4.09c
iter:   9 12:30:39 -5163.570809c -6.19  -4.26c
iter:  10 12:31:20 -5163.571145c -6.58  -4.17c
iter:  11 12:32:01 -5163.570911c -7.33  -4.50c
iter:  12 12:32:42 -5163.570963c -7.83c -4.50c

Converged after 12 iterations.

Dipole moment: (-3.738439, -6.537692, 0.125006) |e|*Ang

Energy contributions relative to reference atoms: (reference = -4686900.634470)

Kinetic:       +746.840699
Potential:     -773.280272
External:        +0.000000
XC:            -5126.032420
Entropy (-ST):   -2.252193
Local:           -9.972873
--------------------------
Free energy:   -5164.697060
Extrapolated:  -5163.570963

Showing only first 2 kpts
 Kpt  Band  Eigenvalues  Occupancy
  0   271     -5.22127    1.27781
  0   272     -5.19985    1.17637
  0   273     -5.10635    0.71852
  0   274     -5.08980    0.64424

  1   271     -5.21091    1.22939
  1   272     -5.19661    1.16063
  1   273     -5.18705    1.11373
  1   274     -5.18124    1.08497


Fermi level: -5.16420

No gap

Forces in eV/Ang:
  0 Rh    0.00911    0.01005    0.19664
  1 Rh   -0.02967   -0.04108   -0.20170
  2 Rh    0.12334    0.07028    0.11743
  3 Rh   -0.10775   -0.15247   -0.03098
  4 Rh    0.01489   -0.00198    0.17387
  5 Rh   -0.02389    0.00972   -0.20147
  6 Rh    0.00542   -0.00449   -0.01779
  7 Rh   -0.19141   -0.02235   -0.02923
  8 Rh   -0.00336    0.00709    0.14659
  9 Rh    0.01720    0.01589   -0.21048
 10 Rh    0.00221    0.00834   -0.01591
 11 Rh   -0.00595    0.00065    0.02114
 12 Rh   -0.01772    0.00602    0.17667
 13 Rh    0.04379   -0.02145   -0.23388
 14 Rh   -0.12362    0.07152    0.12935
 15 Rh    0.10870   -0.15917   -0.02845
 16 Rh   -0.00797   -0.00650    0.16576
 17 Rh    0.02447    0.01307   -0.20396
 18 Rh    0.00178   -0.14273    0.11704
 19 Rh    0.00213    0.00280    0.22384
 20 Rh   -0.00078   -0.01191    0.18677
 21 Rh   -0.00143    0.05639   -0.23154
 22 Rh   -0.01593   -0.01366   -0.00365
 23 Rh   -0.07388    0.16740   -0.02743
 24 Rh    0.01122   -0.00081    0.14167
 25 Rh   -0.02409   -0.03786   -0.23281
 26 Rh    0.00412    0.02203   -0.00121
 27 Rh    0.00397   -0.00148    0.01492
 28 Rh   -0.00865    0.00417    0.18774
 29 Rh   -0.00513   -0.02666   -0.21208
 30 Rh   -0.00585   -0.00668   -0.01597
 31 Rh    0.18590   -0.01447   -0.02646
 32 Rh    0.00097   -0.00474    0.17581
 33 Rh   -0.02378    0.04450   -0.20998
 34 Rh    0.02317   -0.01279   -0.00177
 35 Rh    0.07732    0.16473   -0.02890
 36 O    -0.00523   -0.02152   -0.01534
 37 H    -0.00508   -0.00356   -0.01242

BFGS:    1 12:33:06    -5163.570963        0.2239
System changes: positions 

Initializing position-dependent things.

Density initialized from wave functions
                                           
                                           
                                           
                                           
                                           
                                           
                  H                        
                  O                        
          Rh    Rh     Rh                  
                                           
           RRh   RRh    RRh                
             RRh   RRh    RRh              
                                           
              RRh   RRh    RRh             
                                           
                Rh    Rh     Rh            
                 Rh     Rh     Rh          
          Rh    Rh     Rh                  
            Rh    Rh     Rh                
              Rh    Rh     Rh              
                                           
                                           
                                           
                                           

Positions:
   0 Rh     0.000000    0.000000    9.999999    ( 0.0000,  0.0000,  0.0000)
   1 Rh     1.374814    0.793749   12.245061    ( 0.0000,  0.0000,  0.0000)
   2 Rh     0.011545    1.592977   14.457518    ( 0.0000,  0.0000,  0.0000)
   3 Rh    -0.010060   -0.014265   16.659409    ( 0.0000,  0.0000,  0.0000)
   4 Rh    -1.374814    2.381247    9.999999    ( 0.0000,  0.0000,  0.0000)
   5 Rh    -0.000000    3.174997   12.245061    ( 0.0000,  0.0000,  0.0000)
   6 Rh    -1.373943    3.968673   14.445985    ( 0.0000,  0.0000,  0.0000)
   7 Rh    -1.391362    2.377383   16.657011    ( 0.0000,  0.0000,  0.0000)
   8 Rh    -2.749628    4.762495    9.999999    ( 0.0000,  0.0000,  0.0000)
   9 Rh    -1.374814    5.556244   12.245061    ( 0.0000,  0.0000,  0.0000)
  10 Rh    -2.750384    6.351187   14.445474    ( 0.0000,  0.0000,  0.0000)
  11 Rh    -2.751106    4.764580   16.661503    ( 0.0000,  0.0000,  0.0000)
  12 Rh     2.749628    0.000000    9.999999    ( 0.0000,  0.0000,  0.0000)
  13 Rh     4.124441    0.793749   12.245061    ( 0.0000,  0.0000,  0.0000)
  14 Rh     2.737984    1.594145   14.458376    ( 0.0000,  0.0000,  0.0000)
  15 Rh     2.757541   -0.015007   16.657094    ( 0.0000,  0.0000,  0.0000)
  16 Rh     1.374814    2.381247    9.999999    ( 0.0000,  0.0000,  0.0000)
  17 Rh     2.749628    3.174997   12.245061    ( 0.0000,  0.0000,  0.0000)
  18 Rh     1.374479    3.955667   14.458107    ( 0.0000,  0.0000,  0.0000)
  19 Rh     1.373731    2.379665   16.680235    ( 0.0000,  0.0000,  0.0000)
  20 Rh    -0.000000    4.762495    9.999999    ( 0.0000,  0.0000,  0.0000)
  21 Rh     1.374814    5.556244   12.245061    ( 0.0000,  0.0000,  0.0000)
  22 Rh    -0.001670    6.348062   14.447574    ( 0.0000,  0.0000,  0.0000)
  23 Rh    -0.006962    4.778231   16.658646    ( 0.0000,  0.0000,  0.0000)
  24 Rh     5.499255    0.000000    9.999999    ( 0.0000,  0.0000,  0.0000)
  25 Rh     6.874069    0.793749   12.245061    ( 0.0000,  0.0000,  0.0000)
  26 Rh     5.499721    1.589714   14.446928    ( 0.0000,  0.0000,  0.0000)
  27 Rh     5.501843   -0.000322   16.661096    ( 0.0000,  0.0000,  0.0000)
  28 Rh     4.124441    2.381247    9.999999    ( 0.0000,  0.0000,  0.0000)
  29 Rh     5.499255    3.174997   12.245061    ( 0.0000,  0.0000,  0.0000)
  30 Rh     4.124006    3.968291   14.445289    ( 0.0000,  0.0000,  0.0000)
  31 Rh     4.141908    2.379911   16.657737    ( 0.0000,  0.0000,  0.0000)
  32 Rh     2.749628    4.762495    9.999999    ( 0.0000,  0.0000,  0.0000)
  33 Rh     4.124441    5.556244   12.245061    ( 0.0000,  0.0000,  0.0000)
  34 Rh     2.752907    6.349251   14.447069    ( 0.0000,  0.0000,  0.0000)
  35 Rh     2.757847    4.779965   16.657038    ( 0.0000,  0.0000,  0.0000)
  36 O      1.373066    2.377542   18.658847    ( 0.0000,  0.0000,  0.0000)
  37 H      1.373079    2.379098   19.617301    ( 0.0000,  0.0000,  0.0000)

Unit cell:
           periodic     x           y           z      points  spacing
  1. axis:    yes    8.248883    0.000000    0.000000    40     0.1786
  2. axis:    yes   -4.124441    7.143742    0.000000    40     0.1786
  3. axis:    no     0.000000    0.000000   26.735183   148     0.1806

  Lengths:   8.248883   8.248883  26.735183
  Angles:   90.000000  90.000000 120.000000

Effective grid spacing dv^(1/3) = 0.1881

     iter     time        total  log10-change:
                         energy  eigst   dens
iter:   1 12:34:42 -5164.040931  -2.14
iter:   2 12:35:23 -5182.145833  -1.76  -2.22
iter:   3 12:36:03 -5163.878978  -2.22  -1.45
iter:   4 12:36:43 -5163.601387  -2.90  -2.39
iter:   5 12:37:24 -5163.598389  -3.76  -3.07
iter:   6 12:38:04 -5163.594022c -4.51  -3.10
iter:   7 12:38:45 -5163.593125c -4.77  -3.33
iter:   8 12:39:25 -5163.592783c -4.82  -3.50
iter:   9 12:40:06 -5163.593152c -4.94  -3.61
iter:  10 12:40:46 -5163.592316c -5.34  -3.34
iter:  11 12:41:26 -5163.591522c -6.10  -3.90
iter:  12 12:42:07 -5163.592340c -6.45  -3.94
iter:  13 12:42:47 -5163.591969c -5.51  -3.97
iter:  14 12:43:28 -5163.591917c -6.22  -4.03c
iter:  15 12:44:08 -5163.591917c -7.19  -4.28c
iter:  16 12:44:48 -5163.591881c -6.77  -4.32c
iter:  17 12:45:29 -5163.592192c -6.43  -4.51c
iter:  18 12:46:09 -5163.591745c -7.23  -4.65c
iter:  19 12:46:50 -5163.591950c -7.73c -4.66c

Converged after 19 iterations.

Dipole moment: (-2.886270, -5.593849, 0.138889) |e|*Ang

Energy contributions relative to reference atoms: (reference = -4686900.634470)

Kinetic:       +747.176637
Potential:     -773.613082
External:        +0.000000
XC:            -5126.047505
Entropy (-ST):   -2.252731
Local:           -9.981634
--------------------------
Free energy:   -5164.718316
Extrapolated:  -5163.591950

Showing only first 2 kpts
 Kpt  Band  Eigenvalues  Occupancy
  0   271     -5.20958    1.27886
  0   272     -5.18903    1.18168
  0   273     -5.09451    0.71887
  0   274     -5.07856    0.64718

  1   271     -5.19730    1.22134
  1   272     -5.18384    1.15647
  1   273     -5.17373    1.10678
  1   274     -5.16920    1.08434


Fermi level: -5.15229

No gap

Forces in eV/Ang:
  0 Rh    0.01231    0.00929    0.19534
  1 Rh   -0.02837   -0.03355   -0.19474
  2 Rh    0.03745    0.02346    0.06871
  3 Rh   -0.04674   -0.07567   -0.00783
  4 Rh    0.01512    0.00103    0.17203
  5 Rh   -0.01690    0.00584   -0.19524
  6 Rh   -0.00266    0.00144   -0.01117
  7 Rh   -0.10422   -0.00861   -0.00256
  8 Rh   -0.00311    0.00694    0.14591
  9 Rh    0.02047    0.01817   -0.21624
 10 Rh    0.00210   -0.00275   -0.00981
 11 Rh   -0.00375   -0.00046    0.00915
 12 Rh   -0.02105    0.00523    0.17550
 13 Rh    0.03244   -0.01455   -0.19574
 14 Rh   -0.03537    0.02148    0.08482
 15 Rh    0.05245   -0.09468   -0.00426
 16 Rh   -0.00782   -0.00657    0.16445
 17 Rh    0.01872    0.00831   -0.19723
 18 Rh    0.00536   -0.04039    0.07902
 19 Rh    0.00257    0.00889    0.04544
 20 Rh   -0.00327   -0.01370    0.18490
 21 Rh   -0.00080    0.04299   -0.19493
 22 Rh    0.00547   -0.00102   -0.03577
 23 Rh   -0.03668    0.05990   -0.00600
 24 Rh    0.01115   -0.00070    0.14878
 25 Rh   -0.01242   -0.03145   -0.19604
 26 Rh    0.00195   -0.00370   -0.03512
 27 Rh    0.00187   -0.00215   -0.00444
 28 Rh   -0.00958    0.00730    0.18662
 29 Rh   -0.00565   -0.03081   -0.21805
 30 Rh    0.00329   -0.00087   -0.01169
 31 Rh    0.07595   -0.00547   -0.00526
 32 Rh    0.00323   -0.00715    0.17445
 33 Rh   -0.02560    0.04538   -0.21598
 34 Rh    0.00000    0.00038   -0.03603
 35 Rh    0.03517    0.06546   -0.00421
 36 O    -0.01306   -0.03996    0.14394
 37 H    -0.00462    0.00107   -0.01109

BFGS:    2 12:47:13    -5163.591950        0.1500
System changes: positions 

Initializing position-dependent things.

Density initialized from wave functions
                                           
                                           
                                           
                                           
                                           
                                           
                  H                        
                  O                        
          Rh    Rh     Rh                  
                                           
           RRh   RRh    RRh                
             RRh   RRh    RRh              
                                           
              RRh   RRh    RRh             
                                           
                Rh    Rh     Rh            
                 Rh     Rh     Rh          
          Rh    Rh     Rh                  
            Rh    Rh     Rh                
              Rh    Rh     Rh              
                                           
                                           
                                           
                                           

Positions:
   0 Rh     0.000000    0.000000    9.999999    ( 0.0000,  0.0000,  0.0000)
   1 Rh     1.374814    0.793749   12.245061    ( 0.0000,  0.0000,  0.0000)
   2 Rh     0.018260    1.596854   14.464673    ( 0.0000,  0.0000,  0.0000)
   3 Rh    -0.016264   -0.023279   16.657781    ( 0.0000,  0.0000,  0.0000)
   4 Rh    -1.374814    2.381247    9.999999    ( 0.0000,  0.0000,  0.0000)
   5 Rh    -0.000000    3.174997   12.245061    ( 0.0000,  0.0000,  0.0000)
   6 Rh    -1.373769    3.968506   14.444892    ( 0.0000,  0.0000,  0.0000)
   7 Rh    -1.402893    2.376129   16.655591    ( 0.0000,  0.0000,  0.0000)
   8 Rh    -2.749628    4.762495    9.999999    ( 0.0000,  0.0000,  0.0000)
   9 Rh    -1.374814    5.556244   12.245061    ( 0.0000,  0.0000,  0.0000)
  10 Rh    -2.750230    6.351494   14.444502    ( 0.0000,  0.0000,  0.0000)
  11 Rh    -2.751474    4.764599   16.662709    ( 0.0000,  0.0000,  0.0000)
  12 Rh     2.749628    0.000000    9.999999    ( 0.0000,  0.0000,  0.0000)
  13 Rh     4.124441    0.793749   12.245061    ( 0.0000,  0.0000,  0.0000)
  14 Rh     2.731309    1.598032   14.466475    ( 0.0000,  0.0000,  0.0000)
  15 Rh     2.763928   -0.024788   16.655670    ( 0.0000,  0.0000,  0.0000)
  16 Rh     1.374814    2.381247    9.999999    ( 0.0000,  0.0000,  0.0000)
  17 Rh     2.749628    3.174997   12.245061    ( 0.0000,  0.0000,  0.0000)
  18 Rh     1.374692    3.947969   14.465486    ( 0.0000,  0.0000,  0.0000)
  19 Rh     1.373896    2.380011   16.691828    ( 0.0000,  0.0000,  0.0000)
  20 Rh    -0.000000    4.762495    9.999999    ( 0.0000,  0.0000,  0.0000)
  21 Rh     1.374814    5.556244   12.245061    ( 0.0000,  0.0000,  0.0000)
  22 Rh    -0.002310    6.347382   14.446583    ( 0.0000,  0.0000,  0.0000)
  23 Rh    -0.011337    4.787574   16.657226    ( 0.0000,  0.0000,  0.0000)
  24 Rh     5.499255    0.000000    9.999999    ( 0.0000,  0.0000,  0.0000)
  25 Rh     6.874069    0.793749   12.245061    ( 0.0000,  0.0000,  0.0000)
  26 Rh     5.499961    1.590687   14.446068    ( 0.0000,  0.0000,  0.0000)
  27 Rh     5.502074   -0.000441   16.661701    ( 0.0000,  0.0000,  0.0000)
  28 Rh     4.124441    2.381247    9.999999    ( 0.0000,  0.0000,  0.0000)
  29 Rh     5.499255    3.174997   12.245061    ( 0.0000,  0.0000,  0.0000)
  30 Rh     4.123826    3.967966   14.444271    ( 0.0000,  0.0000,  0.0000)
  31 Rh     4.152512    2.379100   16.656380    ( 0.0000,  0.0000,  0.0000)
  32 Rh     2.749628    4.762495    9.999999    ( 0.0000,  0.0000,  0.0000)
  33 Rh     4.124441    5.556244   12.245061    ( 0.0000,  0.0000,  0.0000)
  34 Rh     2.754018    6.348646   14.446161    ( 0.0000,  0.0000,  0.0000)
  35 Rh     2.762346    4.789311   16.655593    ( 0.0000,  0.0000,  0.0000)
  36 O      1.372507    2.375576   18.661719    ( 0.0000,  0.0000,  0.0000)
  37 H      1.372732    2.378959   19.616292    ( 0.0000,  0.0000,  0.0000)

Unit cell:
           periodic     x           y           z      points  spacing
  1. axis:    yes    8.248883    0.000000    0.000000    40     0.1786
  2. axis:    yes   -4.124441    7.143742    0.000000    40     0.1786
  3. axis:    no     0.000000    0.000000   26.735183   148     0.1806

  Lengths:   8.248883   8.248883  26.735183
  Angles:   90.000000  90.000000 120.000000

Effective grid spacing dv^(1/3) = 0.1881

     iter     time        total  log10-change:
                         energy  eigst   dens
iter:   1 12:48:50 -5164.338141  -2.34
iter:   2 12:49:32 -5194.542709  -1.54  -2.10
iter:   3 12:50:13 -5164.205452  -2.04  -1.37
iter:   4 12:50:54 -5163.607440  -2.67  -2.27
iter:   5 12:51:35 -5163.600306  -3.45  -3.15
iter:   6 12:52:15 -5163.597634c -4.25  -3.18
iter:   7 12:52:56 -5163.597375c -4.81  -3.37
iter:   8 12:53:37 -5163.597148c -5.15  -3.57
iter:   9 12:54:18 -5163.597832c -5.09  -3.60
iter:  10 12:54:59 -5163.596306c -5.30  -3.30
iter:  11 12:55:40 -5163.595430c -5.89  -3.90
iter:  12 12:56:21 -5163.595951c -6.50  -4.04c
iter:  13 12:57:02 -5163.596059c -5.94  -4.06c
iter:  14 12:57:42 -5163.595836c -6.10  -4.07c
iter:  15 12:58:23 -5163.595873c -7.20  -4.24c
iter:  16 12:59:04 -5163.595826c -7.29  -4.34c
iter:  17 12:59:45 -5163.595881c -6.58  -4.28c
iter:  18 13:00:26 -5163.595870c -7.74c -4.61c

Converged after 18 iterations.

Dipole moment: (-2.235148, -4.828346, 0.143141) |e|*Ang

Energy contributions relative to reference atoms: (reference = -4686900.634470)

Kinetic:       +747.705476
Potential:     -774.074579
External:        +0.000000
XC:            -5126.121236
Entropy (-ST):   -2.252801
Local:           -9.979131
--------------------------
Free energy:   -5164.722270
Extrapolated:  -5163.595870

Showing only first 2 kpts
 Kpt  Band  Eigenvalues  Occupancy
  0   271     -5.20521    1.28067
  0   272     -5.18494    1.18493
  0   273     -5.09002    0.72013
  0   274     -5.07411    0.64860

  1   271     -5.19188    1.21824
  1   272     -5.17838    1.15307
  1   273     -5.16822    1.10311
  1   274     -5.16423    1.08334


Fermi level: -5.14752

No gap

Forces in eV/Ang:
  0 Rh    0.01445    0.00903    0.20025
  1 Rh   -0.02695   -0.02644   -0.18716
  2 Rh   -0.04035   -0.02061    0.02889
  3 Rh    0.01523    0.00953    0.00982
  4 Rh    0.01559    0.00281    0.17633
  5 Rh   -0.01017    0.00269   -0.18817
  6 Rh   -0.00572    0.00393   -0.00046
  7 Rh   -0.00316    0.00934    0.01849
  8 Rh   -0.00279    0.00681    0.15056
  9 Rh    0.02212    0.01952   -0.22035
 10 Rh    0.00149   -0.00798    0.00015
 11 Rh   -0.00207   -0.00131    0.00647
 12 Rh   -0.02339    0.00494    0.18044
 13 Rh    0.01893   -0.00656   -0.16744
 14 Rh    0.04982   -0.02757    0.04089
 15 Rh   -0.00184   -0.01435    0.01563
 16 Rh   -0.00782   -0.00656    0.17085
 17 Rh    0.01308    0.00384   -0.18985
 18 Rh    0.00746    0.05473    0.03835
 19 Rh    0.00335    0.01470   -0.03803
 20 Rh   -0.00462   -0.01517    0.18905
 21 Rh   -0.00016    0.02749   -0.16798
 22 Rh    0.02281    0.00955   -0.05602
 23 Rh    0.00043   -0.04061    0.01039
 24 Rh    0.01130   -0.00070    0.15976
 25 Rh    0.00096   -0.02408   -0.16904
 26 Rh    0.00001   -0.02517   -0.05683
 27 Rh    0.00024   -0.00326   -0.01392
 28 Rh   -0.01045    0.00915    0.19158
 29 Rh   -0.00604   -0.03302   -0.22227
 30 Rh    0.00797    0.00259   -0.00335
 31 Rh   -0.02864   -0.00195    0.01157
 32 Rh    0.00451   -0.00896    0.17930
 33 Rh   -0.02620    0.04571   -0.22028
 34 Rh   -0.01897    0.01150   -0.05645
 35 Rh   -0.01066   -0.03476    0.01804
 36 O    -0.01264   -0.04285    0.00290
 37 H    -0.00391    0.00733    0.18890

BFGS:    3 13:00:49    -5163.595870        0.1891
System changes: positions 

Initializing position-dependent things.

Density initialized from wave functions
                                           
                                           
                                           
                                           
                                           
                                           
                  H                        
                  O                        
          Rh    Rh     Rh                  
                                           
           RRh   RRh    RRh                
             RRh   RRh    RRh              
                                           
              RRh   RRh    RRh             
                                           
                Rh    Rh     Rh            
                 Rh     Rh     Rh          
          Rh    Rh     Rh                  
            Rh    Rh     Rh                
              Rh    Rh     Rh              
                                           
                                           
                                           
                                           

Positions:
   0 Rh     0.000000    0.000000    9.999999    ( 0.0000,  0.0000,  0.0000)
   1 Rh     1.374814    0.793749   12.245061    ( 0.0000,  0.0000,  0.0000)
   2 Rh     0.017026    1.596177   14.464254    ( 0.0000,  0.0000,  0.0000)
   3 Rh    -0.015412   -0.022212   16.658096    ( 0.0000,  0.0000,  0.0000)
   4 Rh    -1.374814    2.381247    9.999999    ( 0.0000,  0.0000,  0.0000)
   5 Rh    -0.000000    3.174997   12.245061    ( 0.0000,  0.0000,  0.0000)
   6 Rh    -1.373876    3.968582   14.445006    ( 0.0000,  0.0000,  0.0000)
   7 Rh    -1.401723    2.376382   16.655993    ( 0.0000,  0.0000,  0.0000)
   8 Rh    -2.749628    4.762495    9.999999    ( 0.0000,  0.0000,  0.0000)
   9 Rh    -1.374814    5.556244   12.245061    ( 0.0000,  0.0000,  0.0000)
  10 Rh    -2.750228    6.351343   14.444612    ( 0.0000,  0.0000,  0.0000)
  11 Rh    -2.751460    4.764579   16.662648    ( 0.0000,  0.0000,  0.0000)
  12 Rh     2.749628    0.000000    9.999999    ( 0.0000,  0.0000,  0.0000)
  13 Rh     4.124441    0.793749   12.245061    ( 0.0000,  0.0000,  0.0000)
  14 Rh     2.732656    1.597267   14.466113    ( 0.0000,  0.0000,  0.0000)
  15 Rh     2.763225   -0.023947   16.656036    ( 0.0000,  0.0000,  0.0000)
  16 Rh     1.374814    2.381247    9.999999    ( 0.0000,  0.0000,  0.0000)
  17 Rh     2.749628    3.174997   12.245061    ( 0.0000,  0.0000,  0.0000)
  18 Rh     1.374766    3.949491   14.465171    ( 0.0000,  0.0000,  0.0000)
  19 Rh     1.373921    2.380162   16.689996    ( 0.0000,  0.0000,  0.0000)
  20 Rh    -0.000000    4.762495    9.999999    ( 0.0000,  0.0000,  0.0000)
  21 Rh     1.374814    5.556244   12.245061    ( 0.0000,  0.0000,  0.0000)
  22 Rh    -0.001960    6.347572   14.445988    ( 0.0000,  0.0000,  0.0000)
  23 Rh    -0.010873    4.786065   16.657524    ( 0.0000,  0.0000,  0.0000)
  24 Rh     5.499255    0.000000    9.999999    ( 0.0000,  0.0000,  0.0000)
  25 Rh     6.874069    0.793749   12.245061    ( 0.0000,  0.0000,  0.0000)
  26 Rh     5.499935    1.590273   14.445449    ( 0.0000,  0.0000,  0.0000)
  27 Rh     5.502051   -0.000468   16.661455    ( 0.0000,  0.0000,  0.0000)
  28 Rh     4.124441    2.381247    9.999999    ( 0.0000,  0.0000,  0.0000)
  29 Rh     5.499255    3.174997   12.245061    ( 0.0000,  0.0000,  0.0000)
  30 Rh     4.123960    3.968041   14.444342    ( 0.0000,  0.0000,  0.0000)
  31 Rh     4.151025    2.379167   16.656686    ( 0.0000,  0.0000,  0.0000)
  32 Rh     2.749628    4.762495    9.999999    ( 0.0000,  0.0000,  0.0000)
  33 Rh     4.124441    5.556244   12.245061    ( 0.0000,  0.0000,  0.0000)
  34 Rh     2.753666    6.348852   14.445551    ( 0.0000,  0.0000,  0.0000)
  35 Rh     2.761741    4.787880   16.655989    ( 0.0000,  0.0000,  0.0000)
  36 O      1.372398    2.375230   18.661804    ( 0.0000,  0.0000,  0.0000)
  37 H      1.372721    2.379067   19.618531    ( 0.0000,  0.0000,  0.0000)

Unit cell:
           periodic     x           y           z      points  spacing
  1. axis:    yes    8.248883    0.000000    0.000000    40     0.1786
  2. axis:    yes   -4.124441    7.143742    0.000000    40     0.1786
  3. axis:    no     0.000000    0.000000   26.735183   148     0.1806

  Lengths:   8.248883   8.248883  26.735183
  Angles:   90.000000  90.000000 120.000000

Effective grid spacing dv^(1/3) = 0.1881

     iter     time        total  log10-change:
                         energy  eigst   dens
iter:   1 13:02:26 -5163.650343  -3.90
iter:   2 13:03:06 -5166.315162  -2.75  -2.67
iter:   3 13:03:47 -5163.600925  -3.10  -1.83
iter:   4 13:04:28 -5163.598336  -4.07  -3.54
iter:   5 13:05:09 -5163.597958c -4.89  -3.54
iter:   6 13:05:49 -5163.596713c -5.58  -3.76
iter:   7 13:06:30 -5163.596662c -6.12  -4.20c
iter:   8 13:07:11 -5163.596683c -6.47  -4.32c
iter:   9 13:07:52 -5163.596620c -6.44  -4.50c
iter:  10 13:08:32 -5163.596535c -6.80  -4.49c
iter:  11 13:09:13 -5163.596721c -7.50c -4.63c

Converged after 11 iterations.

Dipole moment: (-2.327019, -4.902401, 0.142106) |e|*Ang

Energy contributions relative to reference atoms: (reference = -4686900.634470)

Kinetic:       +747.537248
Potential:     -773.933266
External:        +0.000000
XC:            -5126.078537
Entropy (-ST):   -2.252571
Local:           -9.995880
--------------------------
Free energy:   -5164.723006
Extrapolated:  -5163.596721

Showing only first 2 kpts
 Kpt  Band  Eigenvalues  Occupancy
  0   271     -5.20604    1.28002
  0   272     -5.18585    1.18464
  0   273     -5.09092    0.71982
  0   274     -5.07500    0.64822

  1   271     -5.19312    1.21949
  1   272     -5.17934    1.15301
  1   273     -5.16919    1.10312
  1   274     -5.16517    1.08317


Fermi level: -5.14850

No gap

Forces in eV/Ang:
  0 Rh    0.01371    0.00945    0.20006
  1 Rh   -0.02695   -0.02334   -0.18635
  2 Rh   -0.01568   -0.00745    0.02777
  3 Rh   -0.00209   -0.01430    0.00456
  4 Rh    0.01563    0.00195    0.17626
  5 Rh   -0.00728    0.00147   -0.18739
  6 Rh   -0.00642    0.00344   -0.00008
  7 Rh   -0.03024    0.00395    0.01200
  8 Rh   -0.00286    0.00685    0.15051
  9 Rh    0.01958    0.01804   -0.22260
 10 Rh    0.00090   -0.00759    0.00171
 11 Rh   -0.00372   -0.00091   -0.00031
 12 Rh   -0.02270    0.00539    0.18024
 13 Rh    0.01722   -0.00573   -0.17876
 14 Rh    0.02178   -0.01299    0.03877
 15 Rh    0.01246   -0.03538    0.01023
 16 Rh   -0.00782   -0.00652    0.17164
 17 Rh    0.01013    0.00242   -0.18925
 18 Rh    0.00644    0.02439    0.03516
 19 Rh    0.00262    0.01142   -0.01132
 20 Rh   -0.00384   -0.01487    0.18892
 21 Rh   -0.00021    0.02545   -0.17917
 22 Rh    0.01035    0.00256   -0.03577
 23 Rh   -0.01018   -0.01177    0.00618
 24 Rh    0.01127   -0.00065    0.15612
 25 Rh    0.00265   -0.02311   -0.18005
 26 Rh    0.00117   -0.01082   -0.03561
 27 Rh    0.00159   -0.00349   -0.01567
 28 Rh   -0.01047    0.00825    0.19139
 29 Rh   -0.00591   -0.03000   -0.22447
 30 Rh    0.00850    0.00302   -0.00154
 31 Rh    0.00110   -0.00299    0.00735
 32 Rh    0.00373   -0.00858    0.17915
 33 Rh   -0.02362    0.04433   -0.22241
 34 Rh   -0.00543    0.00470   -0.03396
 35 Rh    0.00349   -0.00532    0.01225
 36 O    -0.01433   -0.04512    0.08437
 37 H    -0.00310    0.00905    0.08000

BFGS:    4 13:09:36    -5163.596721        0.0967
System changes: positions 

Initializing position-dependent things.

Density initialized from wave functions
                                           
                                           
                                           
                                           
                                           
                                           
                  H                        
                  O                        
          Rh    Rh     Rh                  
                                           
           RRh   RRh    RRh                
             RRh   RRh    RRh              
                                           
              RRh   RRh    RRh             
                                           
                Rh    Rh     Rh            
                 Rh     Rh     Rh          
          Rh    Rh     Rh                  
            Rh    Rh     Rh                
              Rh    Rh     Rh              
                                           
                                           
                                           
                                           

Positions:
   0 Rh     0.000000    0.000000    9.999999    ( 0.0000,  0.0000,  0.0000)
   1 Rh     1.374814    0.793749   12.245061    ( 0.0000,  0.0000,  0.0000)
   2 Rh     0.016620    1.596011   14.465644    ( 0.0000,  0.0000,  0.0000)
   3 Rh    -0.015668   -0.022987   16.658232    ( 0.0000,  0.0000,  0.0000)
   4 Rh    -1.374814    2.381247    9.999999    ( 0.0000,  0.0000,  0.0000)
   5 Rh    -0.000000    3.174997   12.245061    ( 0.0000,  0.0000,  0.0000)
   6 Rh    -1.374089    3.968703   14.444940    ( 0.0000,  0.0000,  0.0000)
   7 Rh    -1.403153    2.376509   16.656408    ( 0.0000,  0.0000,  0.0000)
   8 Rh    -2.749628    4.762495    9.999999    ( 0.0000,  0.0000,  0.0000)
   9 Rh    -1.374814    5.556244   12.245061    ( 0.0000,  0.0000,  0.0000)
  10 Rh    -2.750181    6.351083   14.444599    ( 0.0000,  0.0000,  0.0000)
  11 Rh    -2.751586    4.764543   16.662795    ( 0.0000,  0.0000,  0.0000)
  12 Rh     2.749628    0.000000    9.999999    ( 0.0000,  0.0000,  0.0000)
  13 Rh     4.124441    0.793749   12.245061    ( 0.0000,  0.0000,  0.0000)
  14 Rh     2.733316    1.596897   14.467943    ( 0.0000,  0.0000,  0.0000)
  15 Rh     2.763881   -0.025511   16.656377    ( 0.0000,  0.0000,  0.0000)
  16 Rh     1.374814    2.381247    9.999999    ( 0.0000,  0.0000,  0.0000)
  17 Rh     2.749628    3.174997   12.245061    ( 0.0000,  0.0000,  0.0000)
  18 Rh     1.375010    3.950199   14.466846    ( 0.0000,  0.0000,  0.0000)
  19 Rh     1.374032    2.380612   16.689982    ( 0.0000,  0.0000,  0.0000)
  20 Rh    -0.000000    4.762495    9.999999    ( 0.0000,  0.0000,  0.0000)
  21 Rh     1.374814    5.556244   12.245061    ( 0.0000,  0.0000,  0.0000)
  22 Rh    -0.001512    6.347693   14.444495    ( 0.0000,  0.0000,  0.0000)
  23 Rh    -0.011377    4.785922   16.657711    ( 0.0000,  0.0000,  0.0000)
  24 Rh     5.499255    0.000000    9.999999    ( 0.0000,  0.0000,  0.0000)
  25 Rh     6.874069    0.793749   12.245061    ( 0.0000,  0.0000,  0.0000)
  26 Rh     5.499975    1.589810   14.443959    ( 0.0000,  0.0000,  0.0000)
  27 Rh     5.502100   -0.000589   16.661000    ( 0.0000,  0.0000,  0.0000)
  28 Rh     4.124441    2.381247    9.999999    ( 0.0000,  0.0000,  0.0000)
  29 Rh     5.499255    3.174997   12.245061    ( 0.0000,  0.0000,  0.0000)
  30 Rh     4.124244    3.968126   14.444215    ( 0.0000,  0.0000,  0.0000)
  31 Rh     4.151390    2.379028   16.656916    ( 0.0000,  0.0000,  0.0000)
  32 Rh     2.749628    4.762495    9.999999    ( 0.0000,  0.0000,  0.0000)
  33 Rh     4.124441    5.556244   12.245061    ( 0.0000,  0.0000,  0.0000)
  34 Rh     2.753399    6.349047   14.444096    ( 0.0000,  0.0000,  0.0000)
  35 Rh     2.761980    4.787942   16.656400    ( 0.0000,  0.0000,  0.0000)
  36 O      1.371902    2.373621   18.663901    ( 0.0000,  0.0000,  0.0000)
  37 H      1.372586    2.379343   19.622423    ( 0.0000,  0.0000,  0.0000)

Unit cell:
           periodic     x           y           z      points  spacing
  1. axis:    yes    8.248883    0.000000    0.000000    40     0.1786
  2. axis:    yes   -4.124441    7.143742    0.000000    40     0.1786
  3. axis:    no     0.000000    0.000000   26.735183   148     0.1806

  Lengths:   8.248883   8.248883  26.735183
  Angles:   90.000000  90.000000 120.000000

Effective grid spacing dv^(1/3) = 0.1881

     iter     time        total  log10-change:
                         energy  eigst   dens
iter:   1 13:11:12 -5163.597014  -3.97
iter:   2 13:11:53 -5163.622253  -4.43  -3.39
iter:   3 13:12:34 -5163.613883c -4.54  -2.92
iter:   4 13:13:15 -5163.596580c -5.28  -2.94
iter:   5 13:13:55 -5163.598245c -6.04  -3.72
iter:   6 13:14:36 -5163.597626c -6.35  -3.98
iter:   7 13:15:17 -5163.597629c -6.73  -4.29c
iter:   8 13:15:58 -5163.597670c -6.56  -4.36c
iter:   9 13:16:38 -5163.597665c -6.54  -4.56c
iter:  10 13:17:19 -5163.597685c -7.26  -4.48c
iter:  11 13:18:00 -5163.597649c -7.95c -4.63c

Converged after 11 iterations.

Dipole moment: (-2.302532, -4.799917, 0.141081) |e|*Ang

Energy contributions relative to reference atoms: (reference = -4686900.634470)

Kinetic:       +747.367734
Potential:     -773.801817
External:        +0.000000
XC:            -5126.041989
Entropy (-ST):   -2.252579
Local:           -9.995287
--------------------------
Free energy:   -5164.723938
Extrapolated:  -5163.597649

Showing only first 2 kpts
 Kpt  Band  Eigenvalues  Occupancy
  0   271     -5.20689    1.27915
  0   272     -5.18692    1.18479
  0   273     -5.09199    0.71994
  0   274     -5.07602    0.64813

  1   271     -5.19442    1.22072
  1   272     -5.18005    1.15140
  1   273     -5.17003    1.10210
  1   274     -5.16595    1.08191


Fermi level: -5.14954

No gap

Forces in eV/Ang:
  0 Rh    0.01318    0.00992    0.20028
  1 Rh   -0.02591   -0.01654   -0.17697
  2 Rh   -0.00949   -0.00547    0.01256
  3 Rh    0.00646    0.00454    0.00082
  4 Rh    0.01572    0.00124    0.17648
  5 Rh   -0.00064   -0.00109   -0.17844
  6 Rh    0.00214   -0.00230    0.00022
  7 Rh   -0.00512    0.00152    0.00722
  8 Rh   -0.00283    0.00684    0.14936
  9 Rh    0.01821    0.01746   -0.22455
 10 Rh    0.00018    0.00323    0.00257
 11 Rh   -0.00478   -0.00074   -0.00024
 12 Rh   -0.02247    0.00595    0.18062
 13 Rh    0.00772   -0.00051   -0.18113
 14 Rh    0.01288   -0.01120    0.01740
 15 Rh    0.00100   -0.01184    0.00665
 16 Rh   -0.00779   -0.00644    0.17389
 17 Rh    0.00408   -0.00160   -0.18033
 18 Rh    0.00372    0.01581    0.01309
 19 Rh    0.00058    0.00744    0.01779
 20 Rh   -0.00321   -0.01488    0.18896
 21 Rh    0.00007    0.01502   -0.18204
 22 Rh    0.00430    0.00010   -0.02174
 23 Rh    0.00178   -0.02511    0.00481
 24 Rh    0.01136   -0.00059    0.15492
 25 Rh    0.01151   -0.01828   -0.18275
 26 Rh    0.00168   -0.00499   -0.02106
 27 Rh    0.00241   -0.00456   -0.01774
 28 Rh   -0.01076    0.00750    0.19173
 29 Rh   -0.00595   -0.02847   -0.22659
 30 Rh    0.00079   -0.00104   -0.00076
 31 Rh   -0.01757   -0.00388    0.00580
 32 Rh    0.00302   -0.00854    0.17946
 33 Rh   -0.02195    0.04359   -0.22452
 34 Rh    0.00073    0.00257   -0.01713
 35 Rh   -0.00524   -0.01711    0.00990
 36 O    -0.01524   -0.04842    0.15188
 37 H    -0.00161    0.01483   -0.01293

BFGS:    5 13:18:23    -5163.597649        0.1601
System changes: positions 

Initializing position-dependent things.

Density initialized from wave functions
                                           
                                           
                                           
                                           
                                           
                                           
                  H                        
                  O                        
          Rh    Rh     Rh                  
                                           
           RRh   RRh    RRh                
             RRh   RRh    RRh              
                                           
              RRh   RRh    RRh             
                                           
                Rh    Rh     Rh            
                 Rh     Rh     Rh          
          Rh    Rh     Rh                  
            Rh    Rh     Rh                
              Rh    Rh     Rh              
                                           
                                           
                                           
                                           

Positions:
   0 Rh     0.000000    0.000000    9.999999    ( 0.0000,  0.0000,  0.0000)
   1 Rh     1.374814    0.793749   12.245061    ( 0.0000,  0.0000,  0.0000)
   2 Rh     0.014863    1.595125   14.467832    ( 0.0000,  0.0000,  0.0000)
   3 Rh    -0.015260   -0.023262   16.658674    ( 0.0000,  0.0000,  0.0000)
   4 Rh    -1.374814    2.381247    9.999999    ( 0.0000,  0.0000,  0.0000)
   5 Rh    -0.000000    3.174997   12.245061    ( 0.0000,  0.0000,  0.0000)
   6 Rh    -1.374412    3.968864   14.444923    ( 0.0000,  0.0000,  0.0000)
   7 Rh    -1.404633    2.376922   16.657523    ( 0.0000,  0.0000,  0.0000)
   8 Rh    -2.749628    4.762495    9.999999    ( 0.0000,  0.0000,  0.0000)
   9 Rh    -1.374814    5.556244   12.245061    ( 0.0000,  0.0000,  0.0000)
  10 Rh    -2.750103    6.350693   14.444730    ( 0.0000,  0.0000,  0.0000)
  11 Rh    -2.751910    4.764453   16.662974    ( 0.0000,  0.0000,  0.0000)
  12 Rh     2.749628    0.000000    9.999999    ( 0.0000,  0.0000,  0.0000)
  13 Rh     4.124441    0.793749   12.245061    ( 0.0000,  0.0000,  0.0000)
  14 Rh     2.735637    1.595469   14.470980    ( 0.0000,  0.0000,  0.0000)
  15 Rh     2.764406   -0.027625   16.657339    ( 0.0000,  0.0000,  0.0000)
  16 Rh     1.374814    2.381247    9.999999    ( 0.0000,  0.0000,  0.0000)
  17 Rh     2.749628    3.174997   12.245061    ( 0.0000,  0.0000,  0.0000)
  18 Rh     1.375540    3.952802   14.469551    ( 0.0000,  0.0000,  0.0000)
  19 Rh     1.374233    2.381619   16.689250    ( 0.0000,  0.0000,  0.0000)
  20 Rh    -0.000000    4.762495    9.999999    ( 0.0000,  0.0000,  0.0000)
  21 Rh     1.374814    5.556244   12.245061    ( 0.0000,  0.0000,  0.0000)
  22 Rh    -0.000458    6.348015   14.441167    ( 0.0000,  0.0000,  0.0000)
  23 Rh    -0.011752    4.783892   16.658340    ( 0.0000,  0.0000,  0.0000)
  24 Rh     5.499255    0.000000    9.999999    ( 0.0000,  0.0000,  0.0000)
  25 Rh     6.874069    0.793749   12.245061    ( 0.0000,  0.0000,  0.0000)
  26 Rh     5.500067    1.588666   14.440637    ( 0.0000,  0.0000,  0.0000)
  27 Rh     5.502231   -0.000926   16.659611    ( 0.0000,  0.0000,  0.0000)
  28 Rh     4.124441    2.381247    9.999999    ( 0.0000,  0.0000,  0.0000)
  29 Rh     5.499255    3.174997   12.245061    ( 0.0000,  0.0000,  0.0000)
  30 Rh     4.124781    3.968270   14.444045    ( 0.0000,  0.0000,  0.0000)
  31 Rh     4.150363    2.378749   16.657644    ( 0.0000,  0.0000,  0.0000)
  32 Rh     2.749628    4.762495    9.999999    ( 0.0000,  0.0000,  0.0000)
  33 Rh     4.124441    5.556244   12.245061    ( 0.0000,  0.0000,  0.0000)
  34 Rh     2.752767    6.349567   14.440953    ( 0.0000,  0.0000,  0.0000)
  35 Rh     2.761754    4.786515   16.657588    ( 0.0000,  0.0000,  0.0000)
  36 O      1.370623    2.369502   18.671593    ( 0.0000,  0.0000,  0.0000)
  37 H      1.372326    2.380278   19.629534    ( 0.0000,  0.0000,  0.0000)

Unit cell:
           periodic     x           y           z      points  spacing
  1. axis:    yes    8.248883    0.000000    0.000000    40     0.1786
  2. axis:    yes   -4.124441    7.143742    0.000000    40     0.1786
  3. axis:    no     0.000000    0.000000   26.735183   148     0.1806

  Lengths:   8.248883   8.248883  26.735183
  Angles:   90.000000  90.000000 120.000000

Effective grid spacing dv^(1/3) = 0.1881

     iter     time        total  log10-change:
                         energy  eigst   dens
iter:   1 13:19:59 -5163.608513  -3.29
iter:   2 13:20:40 -5163.683113  -3.85  -3.13
iter:   3 13:21:21 -5163.608689c -4.20  -2.56
iter:   4 13:22:01 -5163.600805c -5.22  -3.07
iter:   5 13:22:42 -5163.598720c -5.84  -3.69
iter:   6 13:23:22 -5163.599685c -5.99  -3.71
iter:   7 13:24:03 -5163.599013c -5.63  -3.87
iter:   8 13:24:44 -5163.598974c -5.88  -4.06c
iter:   9 13:25:24 -5163.599190c -6.16  -4.27c
iter:  10 13:26:05 -5163.599133c -6.69  -4.28c
iter:  11 13:26:45 -5163.599321c -7.01  -4.33c
iter:  12 13:27:26 -5163.598769c -6.89  -4.54c
iter:  13 13:28:06 -5163.599175c -7.01  -4.47c
iter:  14 13:28:47 -5163.599142c -7.74c -4.71c

Converged after 14 iterations.

Dipole moment: (-2.340466, -4.679450, 0.132601) |e|*Ang

Energy contributions relative to reference atoms: (reference = -4686900.634470)

Kinetic:       +746.759951
Potential:     -773.277714
External:        +0.000000
XC:            -5125.968649
Entropy (-ST):   -2.252102
Local:           -9.986679
--------------------------
Free energy:   -5164.725193
Extrapolated:  -5163.599142

Showing only first 2 kpts
 Kpt  Band  Eigenvalues  Occupancy
  0   271     -5.21490    1.27710
  0   272     -5.19545    1.18514
  0   273     -5.10035    0.71950
  0   274     -5.08434    0.64755

  1   271     -5.20362    1.22429
  1   272     -5.18820    1.14992
  1   273     -5.17834    1.10141
  1   274     -5.17409    1.08031


Fermi level: -5.15799

No gap

Forces in eV/Ang:
  0 Rh    0.01204    0.00845    0.19830
  1 Rh   -0.02497   -0.01900   -0.16989
  2 Rh    0.00699    0.00403   -0.00112
  3 Rh    0.00128   -0.00281    0.01120
  4 Rh    0.01390    0.00093    0.17485
  5 Rh   -0.00215    0.00144   -0.17124
  6 Rh    0.00499   -0.00481   -0.00032
  7 Rh   -0.00902   -0.00154    0.01126
  8 Rh   -0.00270    0.00683    0.14592
  9 Rh    0.01539    0.01564   -0.22654
 10 Rh    0.00062    0.00505    0.00062
 11 Rh   -0.00400   -0.00245    0.01704
 12 Rh   -0.02176    0.00441    0.17881
 13 Rh    0.00861   -0.00078   -0.18500
 14 Rh   -0.00764    0.00028   -0.00131
 15 Rh    0.00332   -0.01200    0.01413
 16 Rh   -0.00787   -0.00633    0.17133
 17 Rh    0.00671   -0.00070   -0.17267
 18 Rh    0.00078   -0.00776   -0.00597
 19 Rh    0.00047    0.00672    0.13485
 20 Rh   -0.00400   -0.01356    0.18669
 21 Rh    0.00109    0.01581   -0.18556
 22 Rh   -0.00288   -0.00537    0.00533
 23 Rh   -0.00187   -0.00826    0.01132
 24 Rh    0.01137   -0.00057    0.15296
 25 Rh    0.01121   -0.01864   -0.18703
 26 Rh    0.00055    0.00376    0.00588
 27 Rh    0.00056   -0.00520   -0.00836
 28 Rh   -0.00904    0.00696    0.18988
 29 Rh   -0.00567   -0.02557   -0.22881
 30 Rh   -0.00321   -0.00453    0.00060
 31 Rh   -0.00420   -0.00375    0.01202
 32 Rh    0.00370   -0.00718    0.17767
 33 Rh   -0.01901    0.04197   -0.22662
 34 Rh    0.00810   -0.00323    0.01124
 35 Rh    0.00296   -0.00172    0.01065
 36 O    -0.01259   -0.05266    0.02831
 37 H     0.00251    0.03014    0.01686

BFGS:    6 13:29:10    -5163.599142        0.1350
System changes: positions 

Initializing position-dependent things.

Density initialized from wave functions
                                           
                                           
                                           
                                           
                                           
                                           
                  H                        
                  O                        
          Rh    Rh     Rh                  
                                           
           RRh   RRh    RRh                
             RRh   RRh    RRh              
                                           
              RRh   RRh    RRh             
                                           
                Rh    Rh     Rh            
                 Rh     Rh     Rh          
          Rh    Rh     Rh                  
            Rh    Rh     Rh                
              Rh    Rh     Rh              
                                           
                                           
                                           
                                           

Positions:
   0 Rh     0.000000    0.000000    9.999999    ( 0.0000,  0.0000,  0.0000)
   1 Rh     1.374814    0.793749   12.245061    ( 0.0000,  0.0000,  0.0000)
   2 Rh     0.014416    1.594964   14.470260    ( 0.0000,  0.0000,  0.0000)
   3 Rh    -0.015599   -0.024471   16.659039    ( 0.0000,  0.0000,  0.0000)
   4 Rh    -1.374814    2.381247    9.999999    ( 0.0000,  0.0000,  0.0000)
   5 Rh    -0.000000    3.174997   12.245061    ( 0.0000,  0.0000,  0.0000)
   6 Rh    -1.374526    3.968872   14.444775    ( 0.0000,  0.0000,  0.0000)
   7 Rh    -1.407105    2.377073   16.658403    ( 0.0000,  0.0000,  0.0000)
   8 Rh    -2.749628    4.762495    9.999999    ( 0.0000,  0.0000,  0.0000)
   9 Rh    -1.374814    5.556244   12.245061    ( 0.0000,  0.0000,  0.0000)
  10 Rh    -2.750014    6.350541   14.444713    ( 0.0000,  0.0000,  0.0000)
  11 Rh    -2.752251    4.764342   16.663619    ( 0.0000,  0.0000,  0.0000)
  12 Rh     2.749628    0.000000    9.999999    ( 0.0000,  0.0000,  0.0000)
  13 Rh     4.124441    0.793749   12.245061    ( 0.0000,  0.0000,  0.0000)
  14 Rh     2.736505    1.594840   14.474125    ( 0.0000,  0.0000,  0.0000)
  15 Rh     2.765544   -0.030428   16.658158    ( 0.0000,  0.0000,  0.0000)
  16 Rh     1.374814    2.381247    9.999999    ( 0.0000,  0.0000,  0.0000)
  17 Rh     2.749628    3.174997   12.245061    ( 0.0000,  0.0000,  0.0000)
  18 Rh     1.375965    3.953756   14.472287    ( 0.0000,  0.0000,  0.0000)
  19 Rh     1.374411    2.382530   16.692590    ( 0.0000,  0.0000,  0.0000)
  20 Rh    -0.000000    4.762495    9.999999    ( 0.0000,  0.0000,  0.0000)
  21 Rh     1.374814    5.556244   12.245061    ( 0.0000,  0.0000,  0.0000)
  22 Rh     0.000232    6.348099   14.438660    ( 0.0000,  0.0000,  0.0000)
  23 Rh    -0.012532    4.783262   16.658859    ( 0.0000,  0.0000,  0.0000)
  24 Rh     5.499255    0.000000    9.999999    ( 0.0000,  0.0000,  0.0000)
  25 Rh     6.874069    0.793749   12.245061    ( 0.0000,  0.0000,  0.0000)
  26 Rh     5.500166    1.587959   14.438156    ( 0.0000,  0.0000,  0.0000)
  27 Rh     5.502355   -0.001279   16.658554    ( 0.0000,  0.0000,  0.0000)
  28 Rh     4.124441    2.381247    9.999999    ( 0.0000,  0.0000,  0.0000)
  29 Rh     5.499255    3.174997   12.245061    ( 0.0000,  0.0000,  0.0000)
  30 Rh     4.125082    3.968247   14.443807    ( 0.0000,  0.0000,  0.0000)
  31 Rh     4.150678    2.378381   16.658256    ( 0.0000,  0.0000,  0.0000)
  32 Rh     2.749628    4.762495    9.999999    ( 0.0000,  0.0000,  0.0000)
  33 Rh     4.124441    5.556244   12.245061    ( 0.0000,  0.0000,  0.0000)
  34 Rh     2.752529    6.349840   14.438688    ( 0.0000,  0.0000,  0.0000)
  35 Rh     2.762115    4.786431   16.658502    ( 0.0000,  0.0000,  0.0000)
  36 O      1.369417    2.365342   18.677311    ( 0.0000,  0.0000,  0.0000)
  37 H      1.372142    2.381492   19.635586    ( 0.0000,  0.0000,  0.0000)

Unit cell:
           periodic     x           y           z      points  spacing
  1. axis:    yes    8.248883    0.000000    0.000000    40     0.1786
  2. axis:    yes   -4.124441    7.143742    0.000000    40     0.1786
  3. axis:    no     0.000000    0.000000   26.735183   148     0.1806

  Lengths:   8.248883   8.248883  26.735183
  Angles:   90.000000  90.000000 120.000000

Effective grid spacing dv^(1/3) = 0.1881

     iter     time        total  log10-change:
                         energy  eigst   dens
iter:   1 13:30:46 -5163.603939  -3.40
iter:   2 13:31:27 -5163.827399  -3.65  -3.10
iter:   3 13:32:08 -5163.609894c -4.00  -2.37
iter:   4 13:32:49 -5163.598458c -4.96  -3.17
iter:   5 13:33:30 -5163.600041c -5.95  -3.77
iter:   6 13:34:11 -5163.599701c -6.36  -3.97
iter:   7 13:34:51 -5163.599897c -5.68  -3.99
iter:   8 13:35:32 -5163.599749c -6.10  -4.20c
iter:   9 13:36:13 -5163.599752c -7.06  -4.34c
iter:  10 13:36:54 -5163.599651c -6.87  -4.37c
iter:  11 13:37:34 -5163.599504c -7.35  -4.45c
iter:  12 13:38:15 -5163.600031c -7.22  -4.53c
iter:  13 13:38:56 -5163.599734c -7.57c -4.48c

Converged after 13 iterations.

Dipole moment: (-2.293330, -4.495496, 0.130013) |e|*Ang

Energy contributions relative to reference atoms: (reference = -4686900.634470)

Kinetic:       +746.440063
Potential:     -773.012181
External:        +0.000000
XC:            -5125.916946
Entropy (-ST):   -2.252100
Local:           -9.984620
--------------------------
Free energy:   -5164.725784
Extrapolated:  -5163.599734

Showing only first 2 kpts
 Kpt  Band  Eigenvalues  Occupancy
  0   271     -5.21640    1.27591
  0   272     -5.19734    1.18579
  0   273     -5.10200    0.71904
  0   274     -5.08611    0.64759

  1   271     -5.20563    1.22546
  1   272     -5.18978    1.14904
  1   273     -5.17985    1.10016
  1   274     -5.17555    1.07883


Fermi level: -5.15975

No gap

Forces in eV/Ang:
  0 Rh    0.01093    0.00839    0.20061
  1 Rh   -0.02376   -0.01162   -0.15951
  2 Rh    0.01745    0.00783   -0.01012
  3 Rh    0.00424    0.00467    0.00471
  4 Rh    0.01323   -0.00015    0.17730
  5 Rh    0.00514   -0.00131   -0.16157
  6 Rh    0.00693   -0.00727    0.00441
  7 Rh    0.00384   -0.00443    0.00244
  8 Rh   -0.00264    0.00678    0.14749
  9 Rh    0.01146    0.01357   -0.23067
 10 Rh    0.00020    0.00811    0.00612
 11 Rh   -0.00496   -0.00302    0.01305
 12 Rh   -0.02110    0.00446    0.18139
 13 Rh   -0.00190    0.00512   -0.19078
 14 Rh   -0.02139    0.00505   -0.01774
 15 Rh   -0.00265    0.00160    0.00682
 16 Rh   -0.00785   -0.00632    0.17646
 17 Rh    0.00048   -0.00517   -0.16272
 18 Rh   -0.00168   -0.02258   -0.02357
 19 Rh    0.00111    0.01010    0.15497
 20 Rh   -0.00350   -0.01289    0.18884
 21 Rh    0.00212    0.00407   -0.19118
 22 Rh   -0.01175   -0.01019    0.03032
 23 Rh    0.00299   -0.00943    0.00636
 24 Rh    0.01146   -0.00051    0.15425
 25 Rh    0.02186   -0.01310   -0.19310
 26 Rh    0.00056    0.01271    0.03114
 27 Rh    0.00091   -0.00611   -0.01072
 28 Rh   -0.00863    0.00573    0.19232
 29 Rh   -0.00547   -0.02141   -0.23325
 30 Rh   -0.00533   -0.00624    0.00638
 31 Rh   -0.00910   -0.00457    0.00647
 32 Rh    0.00324   -0.00650    0.18017
 33 Rh   -0.01476    0.03992   -0.23069
 34 Rh    0.01747   -0.00743    0.03690
 35 Rh    0.00198   -0.00223    0.00309
 36 O    -0.01639   -0.07305   -0.00329
 37 H     0.00617    0.04547   -0.00802

BFGS:    7 13:39:19    -5163.599734        0.1553
System changes: positions 

Initializing position-dependent things.

Density initialized from wave functions
                                           
                                           
                                           
                                           
                                           
                                           
                  H                        
                  O                        
          Rh    Rh     Rh                  
                                           
           RRh   RRh    RRh                
              Rh   RRh     Rh              
             Rh           Rh               
              RRh   RRh    RRh             
                                           
                Rh    Rh     Rh            
                 Rh     Rh     Rh          
          Rh    Rh     Rh                  
            Rh    Rh     Rh                
              Rh    Rh     Rh              
                                           
                                           
                                           
                                           

Positions:
   0 Rh     0.000000    0.000000    9.999999    ( 0.0000,  0.0000,  0.0000)
   1 Rh     1.374814    0.793749   12.245061    ( 0.0000,  0.0000,  0.0000)
   2 Rh     0.014925    1.595294   14.472951    ( 0.0000,  0.0000,  0.0000)
   3 Rh    -0.016317   -0.026183   16.659283    ( 0.0000,  0.0000,  0.0000)
   4 Rh    -1.374814    2.381247    9.999999    ( 0.0000,  0.0000,  0.0000)
   5 Rh    -0.000000    3.174997   12.245061    ( 0.0000,  0.0000,  0.0000)
   6 Rh    -1.374450    3.968701   14.444641    ( 0.0000,  0.0000,  0.0000)
   7 Rh    -1.410204    2.377016   16.659105    ( 0.0000,  0.0000,  0.0000)
   8 Rh    -2.749628    4.762495    9.999999    ( 0.0000,  0.0000,  0.0000)
   9 Rh    -1.374814    5.556244   12.245061    ( 0.0000,  0.0000,  0.0000)
  10 Rh    -2.749915    6.350626   14.444749    ( 0.0000,  0.0000,  0.0000)
  11 Rh    -2.752705    4.764181   16.664573    ( 0.0000,  0.0000,  0.0000)
  12 Rh     2.749628    0.000000    9.999999    ( 0.0000,  0.0000,  0.0000)
  13 Rh     4.124441    0.793749   12.245061    ( 0.0000,  0.0000,  0.0000)
  14 Rh     2.736316    1.594676   14.477389    ( 0.0000,  0.0000,  0.0000)
  15 Rh     2.767052   -0.033740   16.658889    ( 0.0000,  0.0000,  0.0000)
  16 Rh     1.374814    2.381247    9.999999    ( 0.0000,  0.0000,  0.0000)
  17 Rh     2.749628    3.174997   12.245061    ( 0.0000,  0.0000,  0.0000)
  18 Rh     1.376339    3.953533   14.474984    ( 0.0000,  0.0000,  0.0000)
  19 Rh     1.374614    2.383623   16.699764    ( 0.0000,  0.0000,  0.0000)
  20 Rh    -0.000000    4.762495    9.999999    ( 0.0000,  0.0000,  0.0000)
  21 Rh     1.374814    5.556244   12.245061    ( 0.0000,  0.0000,  0.0000)
  22 Rh     0.000584    6.347919   14.436853    ( 0.0000,  0.0000,  0.0000)
  23 Rh    -0.013523    4.783213   16.659313    ( 0.0000,  0.0000,  0.0000)
  24 Rh     5.499255    0.000000    9.999999    ( 0.0000,  0.0000,  0.0000)
  25 Rh     6.874069    0.793749   12.245061    ( 0.0000,  0.0000,  0.0000)
  26 Rh     5.500291    1.587632   14.436401    ( 0.0000,  0.0000,  0.0000)
  27 Rh     5.502512   -0.001744   16.657397    ( 0.0000,  0.0000,  0.0000)
  28 Rh     4.124441    2.381247    9.999999    ( 0.0000,  0.0000,  0.0000)
  29 Rh     5.499255    3.174997   12.245061    ( 0.0000,  0.0000,  0.0000)
  30 Rh     4.125216    3.968059   14.443632    ( 0.0000,  0.0000,  0.0000)
  31 Rh     4.151609    2.377868   16.658803    ( 0.0000,  0.0000,  0.0000)
  32 Rh     2.749628    4.762495    9.999999    ( 0.0000,  0.0000,  0.0000)
  33 Rh     4.124441    5.556244   12.245061    ( 0.0000,  0.0000,  0.0000)
  34 Rh     2.752752    6.349901   14.437245    ( 0.0000,  0.0000,  0.0000)
  35 Rh     2.762827    4.787034   16.659262    ( 0.0000,  0.0000,  0.0000)
  36 O      1.367910    2.359791   18.682664    ( 0.0000,  0.0000,  0.0000)
  37 H      1.372066    2.383544   19.641060    ( 0.0000,  0.0000,  0.0000)

Unit cell:
           periodic     x           y           z      points  spacing
  1. axis:    yes    8.248883    0.000000    0.000000    40     0.1786
  2. axis:    yes   -4.124441    7.143742    0.000000    40     0.1786
  3. axis:    no     0.000000    0.000000   26.735183   148     0.1806

  Lengths:   8.248883   8.248883  26.735183
  Angles:   90.000000  90.000000 120.000000

Effective grid spacing dv^(1/3) = 0.1881

     iter     time        total  log10-change:
                         energy  eigst   dens
iter:   1 13:40:56 -5163.612916  -3.23
iter:   2 13:41:37 -5164.351031  -3.22  -2.91
iter:   3 13:42:18 -5163.615019  -3.62  -2.11
iter:   4 13:42:58 -5163.599680  -4.43  -3.21
iter:   5 13:43:39 -5163.600520c -5.33  -3.70
iter:   6 13:44:20 -5163.600316c -5.72  -3.79
iter:   7 13:45:00 -5163.600861c -5.98  -3.94
iter:   8 13:45:41 -5163.600544c -5.94  -3.96
iter:   9 13:46:22 -5163.600789c -6.13  -3.96
iter:  10 13:47:02 -5163.600496c -6.82  -4.34c
iter:  11 13:47:44 -5163.600567c -7.53c -4.48c

Converged after 11 iterations.

Dipole moment: (-2.190369, -4.267794, 0.132016) |e|*Ang

Energy contributions relative to reference atoms: (reference = -4686900.634470)

Kinetic:       +746.162049
Potential:     -772.786620
External:        +0.000000
XC:            -5125.865096
Entropy (-ST):   -2.252441
Local:           -9.984679
--------------------------
Free energy:   -5164.726788
Extrapolated:  -5163.600567

Showing only first 2 kpts
 Kpt  Band  Eigenvalues  Occupancy
  0   271     -5.21488    1.27525
  0   272     -5.19619    1.18684
  0   273     -5.10052    0.71853
  0   274     -5.08484    0.64802

  1   271     -5.20407    1.22457
  1   272     -5.18845    1.14927
  1   273     -5.17818    1.09872
  1   274     -5.17385    1.07722


Fermi level: -5.15838

No gap

Forces in eV/Ang:
  0 Rh    0.00984    0.00941    0.19756
  1 Rh   -0.02229    0.00252   -0.14523
  2 Rh    0.03056    0.01200   -0.02111
  3 Rh    0.01370    0.02821   -0.02075
  4 Rh    0.01356   -0.00154    0.17406
  5 Rh    0.01859   -0.00791   -0.14871
  6 Rh    0.01377   -0.01185    0.00689
  7 Rh    0.03881   -0.00467   -0.02189
  8 Rh   -0.00264    0.00666    0.14303
  9 Rh    0.00885    0.01278   -0.23406
 10 Rh    0.00029    0.01787    0.00889
 11 Rh   -0.00514   -0.00462   -0.00929
 12 Rh   -0.02069    0.00563    0.17853
 13 Rh   -0.01858    0.01435   -0.19115
 14 Rh   -0.03666    0.01062   -0.03814
 15 Rh   -0.01535    0.03541   -0.01951
 16 Rh   -0.00791   -0.00626    0.17771
 17 Rh   -0.01152   -0.01366   -0.14893
 18 Rh   -0.00435   -0.03902   -0.04231
 19 Rh    0.00293    0.01708    0.08623
 20 Rh   -0.00226   -0.01293    0.18527
 21 Rh    0.00369   -0.01394   -0.19217
 22 Rh   -0.02010   -0.01145    0.04720
 23 Rh    0.02130   -0.02615   -0.01125
 24 Rh    0.01169   -0.00049    0.15042
 25 Rh    0.03793   -0.00498   -0.19412
 26 Rh    0.00005    0.01929    0.04777
 27 Rh    0.00075   -0.00808   -0.01968
 28 Rh   -0.00922    0.00432    0.18933
 29 Rh   -0.00586   -0.01914   -0.23702
 30 Rh   -0.01235   -0.01053    0.00803
 31 Rh   -0.03306   -0.00347   -0.01281
 32 Rh    0.00193   -0.00631    0.17711
 33 Rh   -0.01220    0.03867   -0.23390
 34 Rh    0.02353   -0.00903    0.05104
 35 Rh   -0.01266   -0.02059   -0.01394
 36 O    -0.03108   -0.11522    0.01148
 37 H     0.00970    0.06730   -0.02332

BFGS:    8 13:48:07    -5163.600567        0.1199
System changes: positions 

Initializing position-dependent things.

Density initialized from wave functions
                                           
                                           
                                           
                                           
                                           
                                           
                  H                        
                  O                        
          Rh    Rh     Rh                  
                                           
           RRh   RRh    RRh                
              Rh   RRh     Rh              
             Rh           Rh               
              RRh   RRh    RRh             
                                           
                Rh    Rh     Rh            
                 Rh     Rh     Rh          
          Rh    Rh     Rh                  
            Rh    Rh     Rh                
              Rh    Rh     Rh              
                                           
                                           
                                           
                                           

Positions:
   0 Rh     0.000000    0.000000    9.999999    ( 0.0000,  0.0000,  0.0000)
   1 Rh     1.374814    0.793749   12.245061    ( 0.0000,  0.0000,  0.0000)
   2 Rh     0.016093    1.595888   14.474900    ( 0.0000,  0.0000,  0.0000)
   3 Rh    -0.016710   -0.027201   16.659135    ( 0.0000,  0.0000,  0.0000)
   4 Rh    -1.374814    2.381247    9.999999    ( 0.0000,  0.0000,  0.0000)
   5 Rh    -0.000000    3.174997   12.245061    ( 0.0000,  0.0000,  0.0000)
   6 Rh    -1.374071    3.968281   14.444646    ( 0.0000,  0.0000,  0.0000)
   7 Rh    -1.412270    2.376859   16.659334    ( 0.0000,  0.0000,  0.0000)
   8 Rh    -2.749628    4.762495    9.999999    ( 0.0000,  0.0000,  0.0000)
   9 Rh    -1.374814    5.556244   12.245061    ( 0.0000,  0.0000,  0.0000)
  10 Rh    -2.749815    6.351095   14.444944    ( 0.0000,  0.0000,  0.0000)
  11 Rh    -2.753229    4.763926   16.665334    ( 0.0000,  0.0000,  0.0000)
  12 Rh     2.749628    0.000000    9.999999    ( 0.0000,  0.0000,  0.0000)
  13 Rh     4.124441    0.793749   12.245061    ( 0.0000,  0.0000,  0.0000)
  14 Rh     2.735299    1.594789   14.479499    ( 0.0000,  0.0000,  0.0000)
  15 Rh     2.768132   -0.036064   16.659207    ( 0.0000,  0.0000,  0.0000)
  16 Rh     1.374814    2.381247    9.999999    ( 0.0000,  0.0000,  0.0000)
  17 Rh     2.749628    3.174997   12.245061    ( 0.0000,  0.0000,  0.0000)
  18 Rh     1.376585    3.952428   14.476487    ( 0.0000,  0.0000,  0.0000)
  19 Rh     1.374858    2.384974   16.708738    ( 0.0000,  0.0000,  0.0000)
  20 Rh    -0.000000    4.762495    9.999999    ( 0.0000,  0.0000,  0.0000)
  21 Rh     1.374814    5.556244   12.245061    ( 0.0000,  0.0000,  0.0000)
  22 Rh     0.000462    6.347492   14.436260    ( 0.0000,  0.0000,  0.0000)
  23 Rh    -0.013999    4.782667   16.659543    ( 0.0000,  0.0000,  0.0000)
  24 Rh     5.499255    0.000000    9.999999    ( 0.0000,  0.0000,  0.0000)
  25 Rh     6.874069    0.793749   12.245061    ( 0.0000,  0.0000,  0.0000)
  26 Rh     5.500403    1.587767   14.435867    ( 0.0000,  0.0000,  0.0000)
[...]
  17 Rh     2.749628    3.174997   12.245061    ( 0.0000,  0.0000,  0.0000)
  18 Rh     1.375377    3.944676   14.469777    ( 0.0000,  0.0000,  0.0000)
  19 Rh     1.377411    2.350045   16.766008    ( 0.0000,  0.0000,  0.0000)
  20 Rh    -0.000000    4.762495    9.999999    ( 0.0000,  0.0000,  0.0000)
  21 Rh     1.374814    5.556244   12.245061    ( 0.0000,  0.0000,  0.0000)
  22 Rh     0.001460    6.339190   14.446344    ( 0.0000,  0.0000,  0.0000)
  23 Rh    -0.001284    4.746631   16.663405    ( 0.0000,  0.0000,  0.0000)
  24 Rh     5.499255    0.000000    9.999999    ( 0.0000,  0.0000,  0.0000)
  25 Rh     6.874069    0.793749   12.245061    ( 0.0000,  0.0000,  0.0000)
  26 Rh     5.497540    1.579089   14.450664    ( 0.0000,  0.0000,  0.0000)
  27 Rh     5.501759   -0.022935   16.666055    ( 0.0000,  0.0000,  0.0000)
  28 Rh     4.124441    2.381247    9.999999    ( 0.0000,  0.0000,  0.0000)
  29 Rh     5.499255    3.174997   12.245061    ( 0.0000,  0.0000,  0.0000)
  30 Rh     4.122119    3.957950   14.447207    ( 0.0000,  0.0000,  0.0000)
  31 Rh     4.134738    2.370740   16.665664    ( 0.0000,  0.0000,  0.0000)
  32 Rh     2.749628    4.762495    9.999999    ( 0.0000,  0.0000,  0.0000)
  33 Rh     4.124441    5.556244   12.245061    ( 0.0000,  0.0000,  0.0000)
  34 Rh     2.752025    6.343333   14.448871    ( 0.0000,  0.0000,  0.0000)
  35 Rh     2.753303    4.752238   16.659725    ( 0.0000,  0.0000,  0.0000)
  36 O      1.288552    1.893939   18.723791    ( 0.0000,  0.0000,  0.0000)
  37 H      1.424397    2.691581   19.258600    ( 0.0000,  0.0000,  0.0000)

Unit cell:
           periodic     x           y           z      points  spacing
  1. axis:    yes    8.248883    0.000000    0.000000    40     0.1786
  2. axis:    yes   -4.124441    7.143742    0.000000    40     0.1786
  3. axis:    no     0.000000    0.000000   26.735183   148     0.1806

  Lengths:   8.248883   8.248883  26.735183
  Angles:   90.000000  90.000000 120.000000

Effective grid spacing dv^(1/3) = 0.1881

     iter     time        total  log10-change:
                         energy  eigst   dens
iter:   1 19:40:52 -5164.257874  -3.67
iter:   2 19:41:33 -5169.511089  -2.45  -2.52
iter:   3 19:42:14 -5164.153674  -2.83  -1.69
iter:   4 19:42:55 -5164.142817  -3.74  -3.23
iter:   5 19:43:36 -5164.142369c -4.56  -3.91
iter:   6 19:44:17 -5164.142128c -5.26  -4.16c
iter:   7 19:44:58 -5164.141929c -5.85  -4.24c
iter:   8 19:45:39 -5164.142062c -6.12  -4.24c
iter:   9 19:46:21 -5164.142052c -6.74  -4.16c
iter:  10 19:47:02 -5164.141783c -6.88  -4.47c
iter:  11 19:47:43 -5164.141951c -7.26  -4.63c
iter:  12 19:48:24 -5164.141886c -7.63c -4.66c

Converged after 12 iterations.

Dipole moment: (-2.386468, -2.569689, -0.057865) |e|*Ang

Energy contributions relative to reference atoms: (reference = -4686900.634470)

Kinetic:       +741.964311
Potential:     -769.901899
External:        +0.000000
XC:            -5125.109953
Entropy (-ST):   -2.243821
Local:           -9.972434
--------------------------
Free energy:   -5165.263797
Extrapolated:  -5164.141886

Showing only first 2 kpts
 Kpt  Band  Eigenvalues  Occupancy
  0   271     -5.39731    1.27881
  0   272     -5.38084    1.20123
  0   273     -5.27685    0.69421
  0   274     -5.27005    0.66369

  1   271     -5.39015    1.24549
  1   272     -5.37909    1.19287
  1   273     -5.35527    1.07605
  1   274     -5.33758    0.98774


Fermi level: -5.34003

No gap

Forces in eV/Ang:
  0 Rh    0.01278    0.00931    0.19669
  1 Rh   -0.02075   -0.01106   -0.13595
  2 Rh   -0.01274   -0.01427    0.00342
  3 Rh    0.00274    0.01446   -0.00401
  4 Rh    0.00415   -0.00698    0.16954
  5 Rh    0.02290   -0.00177   -0.13237
  6 Rh   -0.01869   -0.00310   -0.01461
  7 Rh    0.02601   -0.01187    0.00457
  8 Rh   -0.00254    0.00315    0.15443
  9 Rh    0.01630   -0.00295   -0.18101
 10 Rh    0.00301   -0.01655   -0.02621
 11 Rh    0.00632    0.00402   -0.01134
 12 Rh   -0.02923    0.00589    0.18030
 13 Rh   -0.01033    0.00143   -0.16364
 14 Rh    0.02764   -0.00161   -0.00160
 15 Rh   -0.01105    0.04195    0.00118
 16 Rh   -0.00852   -0.01377    0.18761
 17 Rh   -0.01560   -0.02252   -0.12746
 18 Rh   -0.00665    0.01750    0.01638
 19 Rh   -0.00217   -0.01937    0.01801
 20 Rh   -0.00250   -0.01630    0.18298
 21 Rh    0.00620    0.00550   -0.21836
 22 Rh   -0.02262    0.00547    0.01382
 23 Rh   -0.00290    0.02464   -0.00271
 24 Rh    0.01652   -0.00239    0.21983
 25 Rh    0.01810   -0.01846   -0.16831
 26 Rh    0.00260    0.00134    0.00097
 27 Rh   -0.01322   -0.00037   -0.01018
 28 Rh    0.00090   -0.00145    0.18843
 29 Rh   -0.00591   -0.04677   -0.19844
 30 Rh    0.00821   -0.00068   -0.00940
 31 Rh    0.02470   -0.00719    0.00411
 32 Rh    0.00139   -0.00606    0.17649
 33 Rh   -0.02250    0.02384   -0.18021
 34 Rh    0.00747   -0.00816   -0.01607
 35 Rh    0.00030    0.00398    0.01356
 36 O     0.01869    0.06981   -0.04030
 37 H    -0.00405   -0.00878   -0.04956

BFGS:   36 19:48:47    -5164.141886        0.0828
System changes: positions 

Initializing position-dependent things.

Density initialized from wave functions
                                           
                                           
                                           
                                           
                                           
                                           
                   H                       
                  O                        
          Rh    Rh     Rh                  
           RRh   RRh    RRh                
              Rh    Rh     Rh              
             Rh    Rh     Rh               
              RRh   RRh    RRh             
                                           
                Rh    Rh     Rh            
                 Rh     Rh     Rh          
          Rh    Rh     Rh                  
            Rh    Rh     Rh                
              Rh    Rh     Rh              
                                           
                                           
                                           
                                           

Positions:
   0 Rh     0.000000    0.000000    9.999999    ( 0.0000,  0.0000,  0.0000)
   1 Rh     1.374814    0.793749   12.245061    ( 0.0000,  0.0000,  0.0000)
   2 Rh     0.009726    1.589680   14.466491    ( 0.0000,  0.0000,  0.0000)
   3 Rh    -0.019634   -0.036341   16.662673    ( 0.0000,  0.0000,  0.0000)
   4 Rh    -1.374814    2.381247    9.999999    ( 0.0000,  0.0000,  0.0000)
   5 Rh    -0.000000    3.174997   12.245061    ( 0.0000,  0.0000,  0.0000)
   6 Rh    -1.373041    3.959068   14.449689    ( 0.0000,  0.0000,  0.0000)
   7 Rh    -1.402557    2.366610   16.666774    ( 0.0000,  0.0000,  0.0000)
   8 Rh    -2.749628    4.762495    9.999999    ( 0.0000,  0.0000,  0.0000)
   9 Rh    -1.374814    5.556244   12.245061    ( 0.0000,  0.0000,  0.0000)
  10 Rh    -2.751310    6.348206   14.451100    ( 0.0000,  0.0000,  0.0000)
  11 Rh    -2.756870    4.746290   16.666405    ( 0.0000,  0.0000,  0.0000)
  12 Rh     2.749628    0.000000    9.999999    ( 0.0000,  0.0000,  0.0000)
  13 Rh     4.124441    0.793749   12.245061    ( 0.0000,  0.0000,  0.0000)
  14 Rh     2.730872    1.588512   14.476706    ( 0.0000,  0.0000,  0.0000)
  15 Rh     2.771937   -0.046999   16.666122    ( 0.0000,  0.0000,  0.0000)
  16 Rh     1.374814    2.381247    9.999999    ( 0.0000,  0.0000,  0.0000)
  17 Rh     2.749628    3.174997   12.245061    ( 0.0000,  0.0000,  0.0000)
  18 Rh     1.375088    3.944671   14.470620    ( 0.0000,  0.0000,  0.0000)
  19 Rh     1.377423    2.349044   16.766700    ( 0.0000,  0.0000,  0.0000)
  20 Rh    -0.000000    4.762495    9.999999    ( 0.0000,  0.0000,  0.0000)
  21 Rh     1.374814    5.556244   12.245061    ( 0.0000,  0.0000,  0.0000)
  22 Rh     0.000723    6.339056   14.445711    ( 0.0000,  0.0000,  0.0000)
  23 Rh    -0.001729    4.746417   16.663239    ( 0.0000,  0.0000,  0.0000)
  24 Rh     5.499255    0.000000    9.999999    ( 0.0000,  0.0000,  0.0000)
  25 Rh     6.874069    0.793749   12.245061    ( 0.0000,  0.0000,  0.0000)
  26 Rh     5.497727    1.578835   14.449864    ( 0.0000,  0.0000,  0.0000)
  27 Rh     5.501381   -0.023560   16.664691    ( 0.0000,  0.0000,  0.0000)
  28 Rh     4.124441    2.381247    9.999999    ( 0.0000,  0.0000,  0.0000)
  29 Rh     5.499255    3.174997   12.245061    ( 0.0000,  0.0000,  0.0000)
  30 Rh     4.122075    3.957511   14.446754    ( 0.0000,  0.0000,  0.0000)
  31 Rh     4.135697    2.370269   16.665624    ( 0.0000,  0.0000,  0.0000)
  32 Rh     2.749628    4.762495    9.999999    ( 0.0000,  0.0000,  0.0000)
  33 Rh     4.124441    5.556244   12.245061    ( 0.0000,  0.0000,  0.0000)
  34 Rh     2.752071    6.342579   14.447990    ( 0.0000,  0.0000,  0.0000)
  35 Rh     2.753259    4.751582   16.660366    ( 0.0000,  0.0000,  0.0000)
  36 O      1.289449    1.894291   18.722069    ( 0.0000,  0.0000,  0.0000)
  37 H      1.424328    2.692518   19.254943    ( 0.0000,  0.0000,  0.0000)

Unit cell:
           periodic     x           y           z      points  spacing
  1. axis:    yes    8.248883    0.000000    0.000000    40     0.1786
  2. axis:    yes   -4.124441    7.143742    0.000000    40     0.1786
  3. axis:    no     0.000000    0.000000   26.735183   148     0.1806

  Lengths:   8.248883   8.248883  26.735183
  Angles:   90.000000  90.000000 120.000000

Effective grid spacing dv^(1/3) = 0.1881

     iter     time        total  log10-change:
                         energy  eigst   dens
iter:   1 19:50:23 -5164.145694  -4.13
iter:   2 19:51:04 -5164.219023  -4.19  -3.39
iter:   3 19:51:45 -5164.141494c -4.58  -2.60
iter:   4 19:52:26 -5164.143564c -5.43  -3.88
iter:   5 19:53:07 -5164.142051c -6.13  -3.97
iter:   6 19:53:47 -5164.142614c -6.50  -4.16c
iter:   7 19:54:28 -5164.142582c -6.74  -4.31c
iter:   8 19:55:09 -5164.142868c -6.43  -4.33c
iter:   9 19:55:50 -5164.142515c -6.55  -3.73
iter:  10 19:56:31 -5164.142741c -6.92  -4.21c
iter:  11 19:57:11 -5164.142335c -7.03  -4.64c
iter:  12 19:57:52 -5164.142542c -7.53c -4.69c

Converged after 12 iterations.

Dipole moment: (-2.358975, -2.519445, -0.056945) |e|*Ang

Energy contributions relative to reference atoms: (reference = -4686900.634470)

Kinetic:       +742.211848
Potential:     -770.113848
External:        +0.000000
XC:            -5125.150525
Entropy (-ST):   -2.243259
Local:           -9.968388
--------------------------
Free energy:   -5165.264172
Extrapolated:  -5164.142542

Showing only first 2 kpts
 Kpt  Band  Eigenvalues  Occupancy
  0   271     -5.39674    1.27939
  0   272     -5.38018    1.20141
  0   273     -5.27616    0.69423
  0   274     -5.26927    0.66332

  1   271     -5.38950    1.24569
  1   272     -5.37867    1.19416
  1   273     -5.35454    1.07590
  1   274     -5.33707    0.98865


Fermi level: -5.33934

No gap

Forces in eV/Ang:
  0 Rh    0.01283    0.00917    0.19516
  1 Rh   -0.01977   -0.00798   -0.13609
  2 Rh   -0.00860   -0.00806   -0.00197
  3 Rh    0.00378    0.01199    0.00177
  4 Rh    0.00408   -0.00707    0.16820
  5 Rh    0.02617   -0.00330   -0.13198
  6 Rh   -0.01570    0.00239   -0.01114
  7 Rh    0.02498   -0.00572    0.00300
  8 Rh   -0.00259    0.00316    0.15207
  9 Rh    0.01555   -0.00468   -0.18584
 10 Rh    0.00386   -0.01219   -0.01973
 11 Rh    0.00942    0.01025   -0.00369
 12 Rh   -0.02927    0.00565    0.17888
 13 Rh   -0.01315    0.00301   -0.16783
 14 Rh    0.02026    0.00158   -0.00826
 15 Rh   -0.01411    0.03660    0.00221
 16 Rh   -0.00863   -0.01386    0.18653
 17 Rh   -0.01939   -0.02353   -0.12732
 18 Rh   -0.00457    0.01276    0.00786
 19 Rh   -0.00274   -0.01269   -0.02268
 20 Rh   -0.00262   -0.01622    0.18120
 21 Rh    0.00464    0.00146   -0.22150
 22 Rh   -0.01701    0.00457    0.01931
 23 Rh   -0.00620    0.02822   -0.00261
 24 Rh    0.01644   -0.00259    0.21774
 25 Rh    0.02126   -0.01730   -0.17287
 26 Rh    0.00184    0.00306    0.00961
 27 Rh   -0.00848    0.00361   -0.00400
 28 Rh    0.00092   -0.00146    0.18684
 29 Rh   -0.00624   -0.04642   -0.20323
 30 Rh    0.00729    0.00319   -0.00580
 31 Rh    0.02507   -0.00381    0.00223
 32 Rh    0.00143   -0.00606    0.17501
 33 Rh   -0.02139    0.02209   -0.18553
 34 Rh    0.00627   -0.00411   -0.00449
 35 Rh    0.00506    0.01195    0.00696
 36 O     0.01576    0.04022   -0.02429
 37 H    -0.00141    0.02177   -0.02783

BFGS:   37 19:58:15    -5164.142542        0.0496
Timing:                                      incl.     excl.
-------------------------------------------------------------------
Density initialized from wave functions:    22.663    22.663   0.1% |
 Symmetrize density:                         0.001     0.001   0.0% |
Forces:                                    877.456   877.456   3.1% ||
Hamiltonian:                               105.668     0.005   0.0% |
 Atomic:                                     0.008     0.008   0.0% |
  XC Correction:                             0.000     0.000   0.0% |
 Calculate atomic Hamiltonians:              0.011     0.011   0.0% |
 Communicate:                                7.450     7.450   0.0% |
 Hartree integrate/restrict:                 0.326     0.326   0.0% |
 Initialize Hamiltonian:                     0.001     0.001   0.0% |
 Poisson:                                    5.755     0.231   0.0% |
  Communicate from 1D:                       0.467     0.467   0.0% |
  Communicate from 2D:                       0.977     0.977   0.0% |
  Communicate to 1D:                         0.257     0.257   0.0% |
  Communicate to 2D:                         1.021     1.021   0.0% |
  FFT 1D:                                    1.438     1.438   0.0% |
  FFT 2D:                                    1.363     1.363   0.0% |
 XC 3D grid:                                91.918    24.591   0.1% |
  VdW-DF integral:                          67.328     4.597   0.0% |
   Convolution:                              7.578     7.578   0.0% |
   FFT:                                      5.005     5.005   0.0% |
   gather:                                  16.373    16.373   0.1% |
   hmm1:                                     1.374     1.374   0.0% |
   hmm2:                                     3.026     3.026   0.0% |
   iFFT:                                     4.815     4.815   0.0% |
   potential:                               20.981     0.571   0.0% |
    collect:                                 1.648     1.648   0.0% |
    p1:                                     12.600    12.600   0.0% |
    p2:                                      4.563     4.563   0.0% |
    sum:                                     1.600     1.600   0.0% |
   splines:                                  3.579     3.579   0.0% |
 vbar:                                       0.193     0.193   0.0% |
LCAO initialization:                        50.129     1.090   0.0% |
 LCAO eigensolver:                          38.452     0.003   0.0% |
  Calculate projections:                     0.000     0.000   0.0% |
  DenseAtomicCorrection:                     0.000     0.000   0.0% |
  Distribute overlap matrix:                37.564    37.564   0.1% |
  Orbital Layouts:                           0.704     0.704   0.0% |
  Potential matrix:                          0.054     0.054   0.0% |
  Sum over cells:                            0.126     0.126   0.0% |
 LCAO to grid:                               8.780     8.780   0.0% |
 Set positions (LCAO WFS):                   1.807     1.270   0.0% |
  Basic WFS set positions:                   0.001     0.001   0.0% |
  Basis functions set positions:             0.000     0.000   0.0% |
  P tci:                                     0.000     0.000   0.0% |
  ST tci:                                    0.438     0.438   0.0% |
  mktci:                                     0.098     0.098   0.0% |
Redistribute:                                0.016     0.016   0.0% |
SCF-cycle:                               25906.394   478.979   1.7% ||
 Davidson:                               23547.989  8523.053  29.6% |-----------|
  Apply hamiltonian:                       396.858   396.858   1.4% ||
  Subspace diag:                          1736.540     0.064   0.0% |
   calc_h_matrix:                          844.294   468.325   1.6% ||
    Apply hamiltonian:                     375.970   375.970   1.3% ||
   diagonalize:                             35.937    35.937   0.1% |
   rotate_psi:                             856.245   856.245   3.0% ||
  calc. matrices:                        11022.436  3039.893  10.6% |---|
   Apply hamiltonian:                     7982.543  7982.543  27.8% |----------|
  diagonalize:                             262.181   262.181   0.9% |
  rotate_psi:                             1606.922  1606.922   5.6% |-|
 Density:                                   35.477     0.011   0.0% |
  Atomic density matrices:                   2.645     2.645   0.0% |
  Mix:                                       8.222     8.222   0.0% |
  Multipole moments:                         0.202     0.202   0.0% |
  Pseudo density:                           24.397    24.385   0.1% |
   Symmetrize density:                       0.012     0.012   0.0% |
 Hamiltonian:                             1597.042     0.065   0.0% |
  Atomic:                                    0.150     0.148   0.0% |
   XC Correction:                            0.002     0.002   0.0% |
  Calculate atomic Hamiltonians:             0.162     0.162   0.0% |
  Communicate:                             114.941   114.941   0.4% |
  Hartree integrate/restrict:                4.968     4.968   0.0% |
  Poisson:                                  90.990     3.766   0.0% |
   Communicate from 1D:                      7.401     7.401   0.0% |
   Communicate from 2D:                     15.537    15.537   0.1% |
   Communicate to 1D:                        4.092     4.092   0.0% |
   Communicate to 2D:                       16.154    16.154   0.1% |
   FFT 1D:                                  22.519    22.519   0.1% |
   FFT 2D:                                  21.521    21.521   0.1% |
  XC 3D grid:                             1384.878   384.655   1.3% ||
   VdW-DF integral:                       1000.223    71.945   0.3% |
    Convolution:                           118.713   118.713   0.4% |
    FFT:                                    78.644    78.644   0.3% |
    gather:                                257.323   257.323   0.9% |
    hmm1:                                   21.464    21.464   0.1% |
    hmm2:                                   47.318    47.318   0.2% |
    iFFT:                                   75.751    75.751   0.3% |
    potential:                             329.062     8.884   0.0% |
     collect:                               25.942    25.942   0.1% |
     p1:                                   198.405   198.405   0.7% |
     p2:                                    71.457    71.457   0.2% |
     sum:                                   24.374    24.374   0.1% |
    splines:                                 0.003     0.003   0.0% |
  vbar:                                      0.888     0.888   0.0% |
 Orthonormalize:                           246.907     0.006   0.0% |
  calc_s_matrix:                            11.623    11.623   0.0% |
  inverse-cholesky:                        210.880   210.880   0.7% |
  projections:                               0.002     0.002   0.0% |
  rotate_psi_s:                             24.395    24.395   0.1% |
Set symmetry:                                0.001     0.001   0.0% |
Other:                                    1797.075  1797.075   6.2% |-|
-------------------------------------------------------------------
Total:                                             28759.402 100.0%

Memory usage: 1.50 GiB
Date: Tue Sep 26 19:58:15 2023
