
  ___ ___ ___ _ _ _  
 |   |   |_  | | | | 
 | | | | | . | | | | 
 |__ |  _|___|_____|  22.8.0
 |___|_|             

User:   s204775@a037.nifl.fysik.dtu.dk
Date:   Tue Sep 26 11:58:57 2023
Arch:   x86_64
Pid:    233678
CWD:    /home/cat/s204775/projects/Bachelor_project/OH_missing_features
Python: 3.10.4
gpaw:   /home/modules/software/GPAW/22.8.0-intel-2022a/lib/python3.10/site-packages/gpaw
_gpaw:  /home/modules/software/GPAW/22.8.0-intel-2022a/lib/python3.10/site-packages/
        _gpaw.cpython-310-x86_64-linux-gnu.so
ase:    /home/modules/software/ASE/3.22.1-intel-2022a/lib/python3.10/site-packages/ase (version 3.22.1)
numpy:  /home/modules/software/SciPy-bundle/2022.05-intel-2022a/lib/python3.10/site-packages/numpy (version 1.22.3)
scipy:  /home/modules/software/SciPy-bundle/2022.05-intel-2022a/lib/python3.10/site-packages/scipy (version 1.8.1)
libxc:  5.2.3
units:  Angstrom and eV
cores: 40
OpenMP: False
OMP_NUM_THREADS: 1

Input parameters:
  basis: dzp
  h: 0.18
  kpts: {size: (4, 4, 1)}
  xc: BEEF-vdW

System changes: positions, numbers, cell, pbc, initial_charges, initial_magmoms 

Initialize ...

species:
  Ru:
    name: Ruthenium
    id: 670232e5f51aeb2542f664849653fb2d
    Z: 44.0
    valence: 16
    core: 28
    charge: 0.0
    file: /home/modules/software/GPAW-setups/0.9.20000/Ru.PBE.gz
    compensation charges: {type: gauss,
                           rc: 0.39,
                           lmax: 2}
    cutoffs: {filter: 2.16,
              core: 1.30}
    valence states:
      #              energy  rcut
      - 4s(2.00)   -76.316   1.281
      - 5s(1.00)    -4.236   1.281
      - 4p(6.00)   -46.423   1.286
      - 5p(0.00)    -0.913   1.286
      - 4d(7.00)    -5.203   1.254
      -  d          22.008   1.254
  
    # LCAO basis set for Ru:
    #   Name: dzp
    #   File: /home/modules/software/GPAW-setups/0.9.20000/Ru.dzp.basis.gz
    #   Number of radial functions: 11
    #   Number of spherical harmonics: 29
    #     l=0, rc=3.2969 Bohr: 4s-sz confined orbital
    #     l=0, rc=9.6875 Bohr: 5s-sz confined orbital
    #     l=1, rc=3.7656 Bohr: 4p-sz confined orbital
    #     l=1, rc=14.0938 Bohr: 5p-sz confined orbital
    #     l=2, rc=6.3281 Bohr: 4d-sz confined orbital
    #     l=0, rc=2.0781 Bohr: 4s-dz split-valence wave
    #     l=0, rc=5.8281 Bohr: 5s-dz split-valence wave
    #     l=1, rc=2.4219 Bohr: 4p-dz split-valence wave
    #     l=1, rc=8.7031 Bohr: 5p-dz split-valence wave
    #     l=2, rc=3.7500 Bohr: 4d-dz split-valence wave
    #     l=1, rc=9.6875 Bohr: p-type Gaussian polarization
    #   Number of RI-basis functions 0

  O:
    name: Oxygen
    id: 32ecd46bf208036f09c70b0ec9a88b78
    Z: 8.0
    valence: 6
    core: 2
    charge: 0.0
    file: /home/modules/software/GPAW-setups/0.9.20000/O.PBE.gz
    compensation charges: {type: gauss,
                           rc: 0.21,
                           lmax: 2}
    cutoffs: {filter: 1.17,
              core: 0.83}
    valence states:
      #              energy  rcut
      - 2s(2.00)   -23.961   0.688
      - 2p(4.00)    -9.029   0.598
      -  s           3.251   0.688
      -  p          18.182   0.598
      -  d           0.000   0.619
  
    # LCAO basis set for O:
    #   Name: dzp
    #   File: /home/modules/software/GPAW-setups/0.9.20000/O.dzp.basis.gz
    #   Number of radial functions: 5
    #   Number of spherical harmonics: 13
    #     l=0, rc=4.3438 Bohr: 2s-sz confined orbital
    #     l=1, rc=5.3906 Bohr: 2p-sz confined orbital
    #     l=0, rc=2.2969 Bohr: 2s-dz split-valence wave
    #     l=1, rc=2.8906 Bohr: 2p-dz split-valence wave
    #     l=2, rc=5.3906 Bohr: d-type Gaussian polarization
    #   Number of RI-basis functions 0

  H:
    name: Hydrogen
    id: d65de229564ff8ea4db303e23b6d1ecf
    Z: 1.0
    valence: 1
    core: 0
    charge: 0.0
    file: /home/modules/software/GPAW-setups/0.9.20000/H.PBE.gz
    compensation charges: {type: gauss,
                           rc: 0.15,
                           lmax: 2}
    cutoffs: {filter: 0.85,
              core: 0.53}
    valence states:
      #              energy  rcut
      - 1s(1.00)    -6.494   0.476
      -  s          20.717   0.476
      -  p           0.000   0.476
  
    # LCAO basis set for H:
    #   Name: dzp
    #   File: /home/modules/software/GPAW-setups/0.9.20000/H.dzp.basis.gz
    #   Number of radial functions: 3
    #   Number of spherical harmonics: 5
    #     l=0, rc=6.4219 Bohr: 1s-sz confined orbital
    #     l=0, rc=3.6094 Bohr: 1s-dz split-valence wave
    #     l=1, rc=6.4219 Bohr: p-type Gaussian polarization
    #   Number of RI-basis functions 0

Reference energy: -4438877.841848  # eV

Spin-paired calculation

Convergence criteria:
 Maximum [total energy] change in last 3 cyles: 0.0005 eV / electron
 Maximum integral of absolute [dens]ity change: 0.0001 electrons / valence electron
 Maximum integral of absolute [eigenst]ate change: 4e-08 eV^2 / valence electron
 Maximum number of scf [iter]ations: 333
 (Square brackets indicate name in SCF output, whereas a 'c' in
 the SCF output indicates the quantity has converged.)

Symmetries present (total): 6

  ( 1  1  0)  ( 1  0  0)  ( 0  1  0)  ( 0 -1  0)  (-1  0  0)  (-1 -1  0)
  ( 0 -1  0)  ( 0  1  0)  (-1 -1  0)  (-1  0  0)  ( 1  1  0)  ( 1  0  0)
  ( 0  0  1)  ( 0  0  1)  ( 0  0  1)  ( 0  0  1)  ( 0  0  1)  ( 0  0  1)
Note: your k-points are not as symmetric as your crystal!

16 k-points: 4 x 4 x 1 Monkhorst-Pack grid
6 k-points in the irreducible part of the Brillouin zone
       k-points in crystal coordinates                weights
   0:     0.12500000   -0.12500000    0.00000000          2/16
   1:     0.12500000    0.12500000    0.00000000          2/16
   2:     0.37500000   -0.37500000    0.00000000          2/16
   3:     0.37500000   -0.12500000    0.00000000          4/16
   4:     0.37500000    0.12500000    0.00000000          4/16
   5:     0.37500000    0.37500000    0.00000000          2/16

Wave functions: Uniform real-space grid
  Kinetic energy operator: 8*3+1=25 point O(h^6) finite-difference Laplacian
  ScaLapack parameters: grid=1x1, blocksize=None
  Wavefunction extrapolation:
    Improved wavefunction reuse through dual PAW basis 

Occupation numbers: Fermi-Dirac:
  width: 0.1000  # eV
 

Eigensolver
   Davidson(niter=2) 

Densities:
  Coarse grid: 40*40*148 grid
  Fine grid: 80*80*296 grid
  Total Charge: 0.000000 

Density mixing:
  Method: separate
  Backend: pulay
  Linear mixing parameter: 0.05
  old densities: 5
  Damping of long wavelength oscillations: 50 

Hamiltonian:
  XC and Coulomb potentials evaluated on a 80*80*296 grid
  Using the BEEF-vdW Exchange-Correlation functional
  Interpolation: tri-quintic (5. degree polynomial)
  Poisson solver: FastPoissonSolver using
    Stencil: 8*3+1=25 point O(h^6) finite-difference Laplacian
    FFT axes: [0, 1]
    FST axes: [2]
 

XC parameters: BEEF-vdW with 2 nearest neighbor stencil

Memory estimate:
  Process memory now: 169.40 MiB
  Calculator: 289.31 MiB
    Density: 14.25 MiB
      Arrays: 2.34 MiB
      Localized functions: 11.02 MiB
      Mixer: 0.89 MiB
    Hamiltonian: 2.25 MiB
      Arrays: 1.53 MiB
      XC: 0.00 MiB
      Poisson: 0.00 MiB
      vbar: 0.72 MiB
    Wavefunctions: 272.81 MiB
      Arrays psit_nG: 187.98 MiB
      Eigensolver: 82.68 MiB
      Projections: 0.54 MiB
      Projectors: 1.62 MiB

Total number of cores used: 40
Parallelization over k-points: 2
Domain decomposition: 2 x 2 x 5

Number of atoms: 38
Number of atomic orbitals: 1062
Number of bands in calculation: 354
Number of valence electrons: 583
Bands to converge: occupied

... initialized

Initializing position-dependent things.

Density initialized from atomic densities
Creating initial wave functions:
  354 bands from LCAO basis set

                                              
                                              
                                              
                                              
                                              
                                              
                         H                    
                         O                    
                Ru     Ru    Ru               
                                              
           Ru    RRu    RRu    Ru             
             Ru    RRu    RRu    Ru           
                                              
              RRu   RRu    RRu                
                                              
               Ru     Ru     Ru               
                 Ru     Ru    Ru              
          Ru    Ru     Ru                     
            Ru    Ru     Ru                   
              Ru    Ru     Ru                 
                                              
                                              
                                              
                                              

Positions:
   0 Ru     0.000000    0.000000    9.999999    ( 0.0000,  0.0000,  0.0000)
   1 Ru     1.355017    0.782320   12.212733    ( 0.0000,  0.0000,  0.0000)
   2 Ru    -0.000000    1.567087   14.455961    ( 0.0000,  0.0000,  0.0000)
   3 Ru     2.710329   -0.000147   16.576449    ( 0.0000,  0.0000,  0.0000)
   4 Ru    -1.355017    2.346959    9.999999    ( 0.0000,  0.0000,  0.0000)
   5 Ru    -0.000000    3.129279   12.212733    ( 0.0000,  0.0000,  0.0000)
   6 Ru    -1.356314    3.910850   14.455644    ( 0.0000,  0.0000,  0.0000)
   7 Ru     1.355037    2.347288   16.576449    ( 0.0000,  0.0000,  0.0000)
   8 Ru    -2.710035    4.693918    9.999999    ( 0.0000,  0.0000,  0.0000)
   9 Ru    -1.355017    5.476238   12.212733    ( 0.0000,  0.0000,  0.0000)
  10 Ru    -2.707915    6.257334   14.455961    ( 0.0000,  0.0000,  0.0000)
  11 Ru    -0.000000    4.693918   16.575086    ( 0.0000,  0.0000,  0.0000)
  12 Ru     2.710035    0.000000    9.999999    ( 0.0000,  0.0000,  0.0000)
  13 Ru     4.065052    0.782320   12.212733    ( 0.0000,  0.0000,  0.0000)
  14 Ru     2.708133    1.563542   14.457333    ( 0.0000,  0.0000,  0.0000)
  15 Ru     5.419776   -0.000147   16.576449    ( 0.0000,  0.0000,  0.0000)
  16 Ru     1.355017    2.346959    9.999999    ( 0.0000,  0.0000,  0.0000)
  17 Ru     2.710035    3.129279   12.212733    ( 0.0000,  0.0000,  0.0000)
  18 Ru     1.356314    3.910850   14.455644    ( 0.0000,  0.0000,  0.0000)
  19 Ru     4.065052    2.346959   16.575797    ( 0.0000,  0.0000,  0.0000)
  20 Ru     0.000000    4.693918    9.999999    ( 0.0000,  0.0000,  0.0000)
  21 Ru     1.355017    5.476238   12.212733    ( 0.0000,  0.0000,  0.0000)
  22 Ru    -0.000000    6.260055   14.455644    ( 0.0000,  0.0000,  0.0000)
  23 Ru     2.709760    4.693737   16.576449    ( 0.0000,  0.0000,  0.0000)
  24 Ru     5.420070    0.000000    9.999999    ( 0.0000,  0.0000,  0.0000)
  25 Ru     6.775087    0.782320   12.212733    ( 0.0000,  0.0000,  0.0000)
  26 Ru     5.421972    1.563542   14.457333    ( 0.0000,  0.0000,  0.0000)
  27 Ru     8.130105    0.000000   16.573376    ( 0.0000,  0.0000,  0.0000)
  28 Ru     4.065052    2.346959    9.999999    ( 0.0000,  0.0000,  0.0000)
  29 Ru     5.420070    3.129279   12.212733    ( 0.0000,  0.0000,  0.0000)
  30 Ru     4.065052    3.913794   14.457333    ( 0.0000,  0.0000,  0.0000)
  31 Ru     6.775068    2.347288   16.576449    ( 0.0000,  0.0000,  0.0000)
  32 Ru     2.710035    4.693918    9.999999    ( 0.0000,  0.0000,  0.0000)
  33 Ru     4.065052    5.476238   12.212733    ( 0.0000,  0.0000,  0.0000)
  34 Ru     2.707915    6.257334   14.455961    ( 0.0000,  0.0000,  0.0000)
  35 Ru     5.420345    4.693737   16.576449    ( 0.0000,  0.0000,  0.0000)
  36 O      4.065052    2.346959   18.575797    ( 0.0000,  0.0000,  0.0000)
  37 H      4.065052    2.346959   19.535797    ( 0.0000,  0.0000,  0.0000)

Unit cell:
           periodic     x           y           z      points  spacing
  1. axis:    yes    8.130105    0.000000    0.000000    40     0.1760
  2. axis:    yes   -4.065052    7.040877    0.000000    40     0.1760
  3. axis:    no     0.000000    0.000000   26.638201   148     0.1800

  Lengths:   8.130105   8.130105  26.638201
  Angles:   90.000000  90.000000 120.000000

Effective grid spacing dv^(1/3) = 0.1860

     iter     time        total  log10-change:
                         energy  eigst   dens
iter:   1 11:59:55 -5084.466363
iter:   2 12:00:19 -5177.256333  -0.30  -1.28
iter:   3 12:00:42 -5079.153939  -0.93  -1.04
iter:   4 12:01:05 -5074.958993  -1.52  -1.32
iter:   5 12:01:28 -5062.342889  -0.72  -1.37
iter:   6 12:01:51 -5062.606943  -1.40  -1.73
iter:   7 12:02:14 -5062.474082c -1.92  -1.84
iter:   8 12:02:37 -5062.230300  -2.25  -1.89
iter:   9 12:03:01 -5064.490989  -2.11  -2.04
iter:  10 12:03:24 -5062.368578  -2.53  -1.88
iter:  11 12:03:47 -5062.338662  -3.00  -2.18
iter:  12 12:04:10 -5061.908966  -2.17  -2.24
iter:  13 12:04:33 -5061.939294  -2.47  -2.60
iter:  14 12:04:56 -5061.933988c -3.50  -2.86
iter:  15 12:05:19 -5061.989450c -3.92  -2.88
iter:  16 12:05:43 -5061.921685c -3.71  -2.65
iter:  17 12:06:06 -5061.923925c -4.20  -3.09
iter:  18 12:06:29 -5061.923154c -5.19  -3.21
iter:  19 12:06:52 -5061.926111c -4.33  -3.25
iter:  20 12:07:15 -5061.925923c -5.02  -3.29
iter:  21 12:07:38 -5061.931098c -4.77  -3.31
iter:  22 12:08:01 -5061.923415c -4.66  -3.07
iter:  23 12:08:25 -5061.922996c -5.16  -3.50
iter:  24 12:08:48 -5061.923065c -5.53  -3.63
iter:  25 12:09:11 -5061.923079c -6.14  -3.78
iter:  26 12:09:34 -5061.923021c -6.41  -3.84
iter:  27 12:09:57 -5061.923237c -6.32  -3.90
iter:  28 12:10:20 -5061.923099c -6.50  -3.81
iter:  29 12:10:43 -5061.923000c -6.52  -4.01c
iter:  30 12:11:07 -5061.923126c -6.61  -3.96
iter:  31 12:11:30 -5061.923062c -6.77  -4.22c
iter:  32 12:11:53 -5061.923085c -6.94  -4.40c
iter:  33 12:12:16 -5061.923124c -7.29  -4.59c
iter:  34 12:12:39 -5061.923117c -7.39  -4.66c
iter:  35 12:13:02 -5061.923131c -7.57c -4.66c

Converged after 35 iterations.

Dipole moment: (-3.980831, -7.263156, 0.218264) |e|*Ang

Energy contributions relative to reference atoms: (reference = -4438877.841848)

Kinetic:       +610.852982
Potential:     -697.873430
External:        +0.000000
XC:            -4966.826843
Entropy (-ST):   -1.983031
Local:           -7.084324
--------------------------
Free energy:   -5062.914646
Extrapolated:  -5061.923131

Showing only first 2 kpts
 Kpt  Band  Eigenvalues  Occupancy
  0   289     -4.96434    1.04000
  0   290     -4.94718    0.95425
  0   291     -4.92988    0.86850
  0   292     -4.85720    0.54130

  1   289     -4.97026    1.06955
  1   290     -4.94783    0.95753
  1   291     -4.94177    0.92731
  1   292     -4.91225    0.78308


Fermi level: -4.95633

No gap

Forces in eV/Ang:
  0 Ru    0.00000    0.00000    0.78264
  1 Ru   -0.05276   -0.03046   -0.87913
  2 Ru   -0.00000    0.11497    0.28530
  3 Ru   -0.25100   -0.21907   -0.11585
  4 Ru   -0.01700    0.01747    0.68908
  5 Ru    0.00000   -0.03900   -0.69094
  6 Ru    0.02171    0.01254   -0.06209
  7 Ru   -0.31522   -0.10784   -0.11585
  8 Ru    0.00663   -0.02346    0.68908
  9 Ru   -0.03377    0.01950   -0.69094
 10 Ru    0.09957   -0.05749    0.28530
 11 Ru    0.00000   -0.00000    0.06207
 12 Ru    0.02363    0.00599    0.68908
 13 Ru    0.00000   -0.00056   -0.70069
 14 Ru    0.22955    0.13253    0.06402
 15 Ru    0.25100   -0.21907   -0.11585
 16 Ru    0.01700    0.01747    0.68908
 17 Ru   -0.00049    0.00028   -0.70069
 18 Ru   -0.02171    0.01254   -0.06209
 19 Ru    0.00000    0.00000    0.73891
 20 Ru    0.00000    0.00000    0.70355
 21 Ru    0.03377    0.01950   -0.69094
 22 Ru   -0.00000   -0.02507   -0.06209
 23 Ru   -0.06422    0.32691   -0.11585
 24 Ru   -0.02363    0.00599    0.68908
 25 Ru    0.05276   -0.03046   -0.87913
 26 Ru   -0.22955    0.13253    0.06402
 27 Ru    0.00000    0.00000   -0.05589
 28 Ru    0.00000    0.00000    0.73498
 29 Ru    0.00049    0.00028   -0.70069
 30 Ru   -0.00000   -0.26507    0.06402
 31 Ru    0.31522   -0.10784   -0.11585
 32 Ru   -0.00663   -0.02346    0.68908
 33 Ru    0.00000    0.06092   -0.87913
 34 Ru   -0.09957   -0.05749    0.28530
 35 Ru    0.06422    0.32691   -0.11585
 36 O    -0.00000   -0.00000   -0.40312
 37 H    -0.00000    0.00000   -0.08300

      Step     Time          Energy         fmax
BFGS:    0 12:13:15    -5061.923131        0.7389
System changes: positions 

Initializing position-dependent things.

Density initialized from wave functions
                                              
                                              
                                              
                                              
                                              
                                              
                         H                    
                         O                    
                Ru     Ru    Ru               
                                              
           Ru    RRu    RRu    Ru             
             Ru    RRu    RRu    Ru           
                                              
              RRu   RRu    RRu                
                                              
               Ru     Ru     Ru               
                 Ru     Ru    Ru              
          Ru    Ru     Ru                     
            Ru    Ru     Ru                   
              Ru    Ru     Ru                 
                                              
                                              
                                              
                                              

Positions:
   0 Ru     0.000000    0.000000    9.999999    ( 0.0000,  0.0000,  0.0000)
   1 Ru     1.355017    0.782320   12.212733    ( 0.0000,  0.0000,  0.0000)
   2 Ru    -0.000000    1.568730   14.460036    ( 0.0000,  0.0000,  0.0000)
   3 Ru     2.706744   -0.003277   16.574794    ( 0.0000,  0.0000,  0.0000)
   4 Ru    -1.355017    2.346959    9.999999    ( 0.0000,  0.0000,  0.0000)
   5 Ru    -0.000000    3.129279   12.212733    ( 0.0000,  0.0000,  0.0000)
   6 Ru    -1.356004    3.911029   14.454756    ( 0.0000,  0.0000,  0.0000)
   7 Ru     1.350534    2.345747   16.574794    ( 0.0000,  0.0000,  0.0000)
   8 Ru    -2.710035    4.693918    9.999999    ( 0.0000,  0.0000,  0.0000)
   9 Ru    -1.355017    5.476238   12.212733    ( 0.0000,  0.0000,  0.0000)
  10 Ru    -2.706493    6.256513   14.460036    ( 0.0000,  0.0000,  0.0000)
  11 Ru    -0.000000    4.693918   16.575972    ( 0.0000,  0.0000,  0.0000)
  12 Ru     2.710035    0.000000    9.999999    ( 0.0000,  0.0000,  0.0000)
  13 Ru     4.065052    0.782320   12.212733    ( 0.0000,  0.0000,  0.0000)
  14 Ru     2.711413    1.565435   14.458247    ( 0.0000,  0.0000,  0.0000)
  15 Ru     5.423361   -0.003277   16.574794    ( 0.0000,  0.0000,  0.0000)
  16 Ru     1.355017    2.346959    9.999999    ( 0.0000,  0.0000,  0.0000)
  17 Ru     2.710035    3.129279   12.212733    ( 0.0000,  0.0000,  0.0000)
  18 Ru     1.356004    3.911029   14.454756    ( 0.0000,  0.0000,  0.0000)
  19 Ru     4.065052    2.346959   16.586353    ( 0.0000,  0.0000,  0.0000)
  20 Ru     0.000000    4.693918    9.999999    ( 0.0000,  0.0000,  0.0000)
  21 Ru     1.355017    5.476238   12.212733    ( 0.0000,  0.0000,  0.0000)
  22 Ru    -0.000000    6.259697   14.454756    ( 0.0000,  0.0000,  0.0000)
  23 Ru     2.708843    4.698407   16.574794    ( 0.0000,  0.0000,  0.0000)
  24 Ru     5.420070    0.000000    9.999999    ( 0.0000,  0.0000,  0.0000)
  25 Ru     6.775087    0.782320   12.212733    ( 0.0000,  0.0000,  0.0000)
  26 Ru     5.418692    1.565435   14.458247    ( 0.0000,  0.0000,  0.0000)
  27 Ru     8.130105    0.000000   16.572578    ( 0.0000,  0.0000,  0.0000)
  28 Ru     4.065052    2.346959    9.999999    ( 0.0000,  0.0000,  0.0000)
  29 Ru     5.420070    3.129279   12.212733    ( 0.0000,  0.0000,  0.0000)
  30 Ru     4.065052    3.910008   14.458247    ( 0.0000,  0.0000,  0.0000)
  31 Ru     6.779571    2.345747   16.574794    ( 0.0000,  0.0000,  0.0000)
  32 Ru     2.710035    4.693918    9.999999    ( 0.0000,  0.0000,  0.0000)
  33 Ru     4.065052    5.476238   12.212733    ( 0.0000,  0.0000,  0.0000)
  34 Ru     2.706493    6.256513   14.460036    ( 0.0000,  0.0000,  0.0000)
  35 Ru     5.421262    4.698407   16.574794    ( 0.0000,  0.0000,  0.0000)
  36 O      4.065052    2.346959   18.570038    ( 0.0000,  0.0000,  0.0000)
  37 H      4.065052    2.346959   19.534611    ( 0.0000,  0.0000,  0.0000)

Unit cell:
           periodic     x           y           z      points  spacing
  1. axis:    yes    8.130105    0.000000    0.000000    40     0.1760
  2. axis:    yes   -4.065052    7.040877    0.000000    40     0.1760
  3. axis:    no     0.000000    0.000000   26.638201   148     0.1800

  Lengths:   8.130105   8.130105  26.638201
  Angles:   90.000000  90.000000 120.000000

Effective grid spacing dv^(1/3) = 0.1860

     iter     time        total  log10-change:
                         energy  eigst   dens
iter:   1 12:14:28 -5062.106289  -2.73
iter:   2 12:14:51 -5066.040887  -2.35  -2.48
iter:   3 12:15:14 -5061.952748  -2.76  -1.76
iter:   4 12:15:37 -5061.952388  -3.62  -3.13
iter:   5 12:16:01 -5061.950753c -4.44  -3.41
iter:   6 12:16:24 -5061.949747c -4.94  -3.47
iter:   7 12:16:47 -5061.949344c -4.98  -3.72
iter:   8 12:17:10 -5061.949325c -5.32  -3.93
iter:   9 12:17:33 -5061.949312c -5.76  -3.97
iter:  10 12:17:57 -5061.949207c -6.18  -4.13c
iter:  11 12:18:20 -5061.949352c -6.61  -4.24c
iter:  12 12:18:43 -5061.949211c -6.63  -4.33c
iter:  13 12:19:06 -5061.949255c -6.68  -4.27c
iter:  14 12:19:29 -5061.949253c -7.11  -4.50c
iter:  15 12:19:53 -5061.949245c -7.65c -4.65c

Converged after 15 iterations.

Dipole moment: (-4.402010, -7.023861, 0.232776) |e|*Ang

Energy contributions relative to reference atoms: (reference = -4438877.841848)

Kinetic:       +611.998578
Potential:     -698.977914
External:        +0.000000
XC:            -4966.872442
Entropy (-ST):   -1.980893
Local:           -7.107020
--------------------------
Free energy:   -5062.939692
Extrapolated:  -5061.949245

Showing only first 2 kpts
 Kpt  Band  Eigenvalues  Occupancy
  0   289     -4.94967    1.03648
  0   290     -4.93488    0.96258
  0   291     -4.91694    0.87355
  0   292     -4.84187    0.53593

  1   289     -4.95780    1.07702
  1   290     -4.93491    0.96272
  1   291     -4.92786    0.92758
  1   292     -4.89758    0.77974


Fermi level: -4.94237

No gap

Forces in eV/Ang:
  0 Ru   -0.00000   -0.00000    0.79035
  1 Ru   -0.05256   -0.03035   -0.88136
  2 Ru    0.00000    0.09839    0.23282
  3 Ru   -0.21814   -0.19482   -0.10589
  4 Ru   -0.01838    0.01231    0.69370
  5 Ru    0.00000   -0.04292   -0.68533
  6 Ru    0.01895    0.01094   -0.05860
  7 Ru   -0.27779   -0.09151   -0.10589
  8 Ru    0.00147   -0.02207    0.69370
  9 Ru   -0.03717    0.02146   -0.68533
 10 Ru    0.08521   -0.04920    0.23282
 11 Ru    0.00000   -0.00000    0.04973
 12 Ru    0.01985    0.00976    0.69370
 13 Ru    0.00000    0.00131   -0.69157
 14 Ru    0.20131    0.11622    0.06548
 15 Ru    0.21814   -0.19482   -0.10589
 16 Ru    0.01838    0.01231    0.69370
 17 Ru    0.00113   -0.00065   -0.69157
 18 Ru   -0.01895    0.01094   -0.05860
 19 Ru    0.00000    0.00000    0.52784
 20 Ru   -0.00000    0.00000    0.70743
 21 Ru    0.03717    0.02146   -0.68533
 22 Ru    0.00000   -0.02189   -0.05860
 23 Ru   -0.05965    0.28633   -0.10589
 24 Ru   -0.01985    0.00976    0.69370
 25 Ru    0.05256   -0.03035   -0.88136
 26 Ru   -0.20131    0.11622    0.06548
 27 Ru   -0.00000    0.00000   -0.05316
 28 Ru   -0.00000    0.00000    0.73308
 29 Ru   -0.00113   -0.00065   -0.69157
 30 Ru   -0.00000   -0.23245    0.06548
 31 Ru    0.27779   -0.09151   -0.10589
 32 Ru   -0.00147   -0.02207    0.69370
 33 Ru   -0.00000    0.06070   -0.88136
 34 Ru   -0.08521   -0.04920    0.23282
 35 Ru    0.05965    0.28633   -0.10589
 36 O    -0.00000   -0.00000    0.02509
 37 H     0.00000   -0.00000   -0.32135

BFGS:    1 12:20:05    -5061.949245        0.5278
System changes: positions 

Initializing position-dependent things.

Density initialized from wave functions
                                              
                                              
                                              
                                              
                                              
                                              
                         H                    
                         O                    
                Ru     Ru     Ru              
                                              
           Ru    RRu    RRu    Ru             
             Ru    RRu    RRu    Ru           
                                              
              RRu   RRu    RRu                
                                              
               Ru     Ru     Ru               
                 Ru     Ru    Ru              
          Ru    Ru     Ru                     
            Ru    Ru     Ru                   
              Ru    Ru     Ru                 
                                              
                                              
                                              
                                              

Positions:
   0 Ru     0.000000    0.000000    9.999999    ( 0.0000,  0.0000,  0.0000)
   1 Ru     1.355017    0.782320   12.212733    ( 0.0000,  0.0000,  0.0000)
   2 Ru    -0.000000    1.577426   14.480937    ( 0.0000,  0.0000,  0.0000)
   3 Ru     2.687560   -0.020285   16.565628    ( 0.0000,  0.0000,  0.0000)
   4 Ru    -1.355017    2.346959    9.999999    ( 0.0000,  0.0000,  0.0000)
   5 Ru    -0.000000    3.129279   12.212733    ( 0.0000,  0.0000,  0.0000)
   6 Ru    -1.354340    3.911990   14.449733    ( 0.0000,  0.0000,  0.0000)
   7 Ru     1.326213    2.337637   16.565628    ( 0.0000,  0.0000,  0.0000)
   8 Ru    -2.710035    4.693918    9.999999    ( 0.0000,  0.0000,  0.0000)
   9 Ru    -1.355017    5.476238   12.212733    ( 0.0000,  0.0000,  0.0000)
  10 Ru    -2.698962    6.252165   14.480937    ( 0.0000,  0.0000,  0.0000)
  11 Ru    -0.000000    4.693918   16.580464    ( 0.0000,  0.0000,  0.0000)
  12 Ru     2.710035    0.000000    9.999999    ( 0.0000,  0.0000,  0.0000)
  13 Ru     4.065052    0.782320   12.212733    ( 0.0000,  0.0000,  0.0000)
  14 Ru     2.729065    1.575627   14.463729    ( 0.0000,  0.0000,  0.0000)
  15 Ru     5.442545   -0.020285   16.565628    ( 0.0000,  0.0000,  0.0000)
  16 Ru     1.355017    2.346959    9.999999    ( 0.0000,  0.0000,  0.0000)
  17 Ru     2.710035    3.129279   12.212733    ( 0.0000,  0.0000,  0.0000)
  18 Ru     1.354340    3.911990   14.449733    ( 0.0000,  0.0000,  0.0000)
  19 Ru     4.065052    2.346959   16.635990    ( 0.0000,  0.0000,  0.0000)
  20 Ru     0.000000    4.693918    9.999999    ( 0.0000,  0.0000,  0.0000)
  21 Ru     1.355017    5.476238   12.212733    ( 0.0000,  0.0000,  0.0000)
  22 Ru    -0.000000    6.257775   14.449733    ( 0.0000,  0.0000,  0.0000)
  23 Ru     2.703705    4.723525   16.565628    ( 0.0000,  0.0000,  0.0000)
  24 Ru     5.420070    0.000000    9.999999    ( 0.0000,  0.0000,  0.0000)
  25 Ru     6.775087    0.782320   12.212733    ( 0.0000,  0.0000,  0.0000)
  26 Ru     5.401039    1.575627   14.463729    ( 0.0000,  0.0000,  0.0000)
  27 Ru     8.130105    0.000000   16.568032    ( 0.0000,  0.0000,  0.0000)
  28 Ru     4.065052    2.346959    9.999999    ( 0.0000,  0.0000,  0.0000)
  29 Ru     5.420070    3.129279   12.212733    ( 0.0000,  0.0000,  0.0000)
  30 Ru     4.065052    3.889624   14.463729    ( 0.0000,  0.0000,  0.0000)
  31 Ru     6.803892    2.337637   16.565628    ( 0.0000,  0.0000,  0.0000)
  32 Ru     2.710035    4.693918    9.999999    ( 0.0000,  0.0000,  0.0000)
  33 Ru     4.065052    5.476238   12.212733    ( 0.0000,  0.0000,  0.0000)
  34 Ru     2.698962    6.252165   14.480937    ( 0.0000,  0.0000,  0.0000)
  35 Ru     5.426399    4.723525   16.565628    ( 0.0000,  0.0000,  0.0000)
  36 O      4.065052    2.346959   18.561679    ( 0.0000,  0.0000,  0.0000)
  37 H      4.065052    2.346959   19.513364    ( 0.0000,  0.0000,  0.0000)

Unit cell:
           periodic     x           y           z      points  spacing
  1. axis:    yes    8.130105    0.000000    0.000000    40     0.1760
  2. axis:    yes   -4.065052    7.040877    0.000000    40     0.1760
  3. axis:    no     0.000000    0.000000   26.638201   148     0.1800

  Lengths:   8.130105   8.130105  26.638201
  Angles:   90.000000  90.000000 120.000000

Effective grid spacing dv^(1/3) = 0.1860

     iter     time        total  log10-change:
                         energy  eigst   dens
iter:   1 12:21:18 -5065.354434  -1.37
iter:   2 12:21:41 -5132.235801  -0.88  -1.82
iter:   3 12:22:05 -5062.675010  -1.46  -1.17
iter:   4 12:22:28 -5062.084086  -2.15  -2.13
iter:   5 12:22:52 -5062.045506  -3.10  -2.60
iter:   6 12:23:15 -5062.021149c -3.64  -2.73
iter:   7 12:23:38 -5062.012840c -3.89  -2.93
iter:   8 12:24:02 -5062.011107c -3.99  -3.09
iter:   9 12:24:25 -5062.021644c -4.18  -3.17
iter:  10 12:24:49 -5062.008829c -4.49  -2.97
iter:  11 12:25:12 -5062.008382c -5.33  -3.44
iter:  12 12:25:36 -5062.008930c -5.10  -3.53
iter:  13 12:25:59 -5062.008230c -5.15  -3.62
iter:  14 12:26:22 -5062.008576c -5.56  -3.68
iter:  15 12:26:46 -5062.008389c -5.98  -3.80
iter:  16 12:27:09 -5062.008415c -5.77  -3.97
iter:  17 12:27:33 -5062.008293c -6.76  -3.91
iter:  18 12:27:56 -5062.008294c -7.13  -4.25c
iter:  19 12:28:19 -5062.008310c -6.86  -4.28c
iter:  20 12:28:43 -5062.008343c -6.98  -4.48c
iter:  21 12:29:06 -5062.008344c -7.11  -4.48c
iter:  22 12:29:30 -5062.008378c -7.32  -4.71c
iter:  23 12:29:53 -5062.008343c -7.70c -4.90c

Converged after 23 iterations.

Dipole moment: (-6.719466, -5.688257, 0.269066) |e|*Ang

Energy contributions relative to reference atoms: (reference = -4438877.841848)

Kinetic:       +616.474064
Potential:     -702.856722
External:        +0.000000
XC:            -4967.526075
Entropy (-ST):   -1.964495
Local:           -7.117362
--------------------------
Free energy:   -5062.990590
Extrapolated:  -5062.008343

Showing only first 2 kpts
 Kpt  Band  Eigenvalues  Occupancy
  0   289     -4.91004    1.01696
  0   290     -4.90679    1.00072
  0   291     -4.88443    0.88937
  0   292     -4.79784    0.50398

  1   289     -4.92686    1.10073
  1   290     -4.90446    0.98905
  1   291     -4.88893    0.91166
  1   292     -4.85799    0.76142


Fermi level: -4.90665

No gap

Forces in eV/Ang:
  0 Ru    0.00000   -0.00000    0.82859
  1 Ru   -0.07116   -0.04109   -0.89906
  2 Ru   -0.00000   -0.00950   -0.10108
  3 Ru   -0.00131   -0.02504    0.03847
  4 Ru   -0.02530   -0.01269    0.71223
  5 Ru    0.00000   -0.07907   -0.66171
  6 Ru   -0.02232   -0.01288   -0.05479
  7 Ru   -0.02233    0.01139    0.03847
  8 Ru   -0.02364   -0.01556    0.71223
  9 Ru   -0.06848    0.03954   -0.66171
 10 Ru   -0.00823    0.00475   -0.10108
 11 Ru    0.00000   -0.00000    0.04458
 12 Ru    0.00166    0.02826    0.71223
 13 Ru    0.00000    0.00380   -0.64617
 14 Ru    0.06514    0.03761    0.05598
 15 Ru    0.00131   -0.02504    0.03847
 16 Ru    0.02530   -0.01269    0.71223
 17 Ru    0.00329   -0.00190   -0.64617
 18 Ru    0.02232   -0.01288   -0.05479
 19 Ru    0.00000    0.00000   -0.28391
 20 Ru    0.00000    0.00000    0.71586
 21 Ru    0.06848    0.03954   -0.66171
 22 Ru    0.00000    0.02577   -0.05479
 23 Ru   -0.02103    0.01365    0.03847
 24 Ru   -0.00166    0.02826    0.71223
 25 Ru    0.07116   -0.04109   -0.89906
 26 Ru   -0.06514    0.03761    0.05598
 27 Ru    0.00000    0.00000    0.00536
 28 Ru   -0.00000    0.00000    0.71188
 29 Ru   -0.00329   -0.00190   -0.64617
 30 Ru   -0.00000   -0.07521    0.05598
 31 Ru    0.02233    0.01139    0.03847
 32 Ru    0.02364   -0.01556    0.71223
 33 Ru   -0.00000    0.08217   -0.89906
 34 Ru    0.00823    0.00475   -0.10108
 35 Ru    0.02103    0.01365    0.03847
 36 O    -0.00000   -0.00000    0.09210
 37 H     0.00000   -0.00000    0.35706

BFGS:    2 12:30:06    -5062.008343        0.3571
System changes: positions 

Initializing position-dependent things.

Density initialized from wave functions
                                              
                                              
                                              
                                              
                                              
                                              
                         H                    
                         O                    
                Ru     Ru     Ru              
                                              
           Ru    RRu    RRu    Ru             
             Ru    RRu    RRu    Ru           
                                              
              RRu   RRu    RRu                
                                              
               Ru     Ru     Ru               
                 Ru     Ru    Ru              
          Ru    Ru     Ru                     
            Ru    Ru     Ru                   
              Ru    Ru     Ru                 
                                              
                                              
                                              
                                              

Positions:
   0 Ru     0.000000    0.000000    9.999999    ( 0.0000,  0.0000,  0.0000)
   1 Ru     1.355017    0.782320   12.212733    ( 0.0000,  0.0000,  0.0000)
   2 Ru    -0.000000    1.576349   14.477398    ( 0.0000,  0.0000,  0.0000)
   3 Ru     2.689664   -0.018710   16.567099    ( 0.0000,  0.0000,  0.0000)
   4 Ru    -1.355017    2.346959    9.999999    ( 0.0000,  0.0000,  0.0000)
   5 Ru    -0.000000    3.129279   12.212733    ( 0.0000,  0.0000,  0.0000)
   6 Ru    -1.354792    3.911729   14.449625    ( 0.0000,  0.0000,  0.0000)
   7 Ru     1.328629    2.338673   16.567099    ( 0.0000,  0.0000,  0.0000)
   8 Ru    -2.710035    4.693918    9.999999    ( 0.0000,  0.0000,  0.0000)
   9 Ru    -1.355017    5.476238   12.212733    ( 0.0000,  0.0000,  0.0000)
  10 Ru    -2.699894    6.252703   14.477398    ( 0.0000,  0.0000,  0.0000)
  11 Ru    -0.000000    4.693918   16.580500    ( 0.0000,  0.0000,  0.0000)
  12 Ru     2.710035    0.000000    9.999999    ( 0.0000,  0.0000,  0.0000)
  13 Ru     4.065052    0.782320   12.212733    ( 0.0000,  0.0000,  0.0000)
  14 Ru     2.727899    1.574953   14.463805    ( 0.0000,  0.0000,  0.0000)
  15 Ru     5.440441   -0.018710   16.567099    ( 0.0000,  0.0000,  0.0000)
  16 Ru     1.355017    2.346959    9.999999    ( 0.0000,  0.0000,  0.0000)
  17 Ru     2.710035    3.129279   12.212733    ( 0.0000,  0.0000,  0.0000)
  18 Ru     1.354792    3.911729   14.449625    ( 0.0000,  0.0000,  0.0000)
  19 Ru     4.065052    2.346959   16.626987    ( 0.0000,  0.0000,  0.0000)
  20 Ru     0.000000    4.693918    9.999999    ( 0.0000,  0.0000,  0.0000)
  21 Ru     1.355017    5.476238   12.212733    ( 0.0000,  0.0000,  0.0000)
  22 Ru    -0.000000    6.258297   14.449625    ( 0.0000,  0.0000,  0.0000)
  23 Ru     2.704017    4.720915   16.567099    ( 0.0000,  0.0000,  0.0000)
  24 Ru     5.420070    0.000000    9.999999    ( 0.0000,  0.0000,  0.0000)
  25 Ru     6.775087    0.782320   12.212733    ( 0.0000,  0.0000,  0.0000)
  26 Ru     5.402206    1.574953   14.463805    ( 0.0000,  0.0000,  0.0000)
  27 Ru     8.130105    0.000000   16.568595    ( 0.0000,  0.0000,  0.0000)
  28 Ru     4.065052    2.346959    9.999999    ( 0.0000,  0.0000,  0.0000)
  29 Ru     5.420070    3.129279   12.212733    ( 0.0000,  0.0000,  0.0000)
  30 Ru     4.065052    3.890970   14.463805    ( 0.0000,  0.0000,  0.0000)
  31 Ru     6.801476    2.338673   16.567099    ( 0.0000,  0.0000,  0.0000)
  32 Ru     2.710035    4.693918    9.999999    ( 0.0000,  0.0000,  0.0000)
  33 Ru     4.065052    5.476238   12.212733    ( 0.0000,  0.0000,  0.0000)
  34 Ru     2.699894    6.252703   14.477398    ( 0.0000,  0.0000,  0.0000)
  35 Ru     5.426088    4.720915   16.567099    ( 0.0000,  0.0000,  0.0000)
  36 O      4.065052    2.346959   18.564046    ( 0.0000,  0.0000,  0.0000)
  37 H      4.065052    2.346959   19.519784    ( 0.0000,  0.0000,  0.0000)

Unit cell:
           periodic     x           y           z      points  spacing
  1. axis:    yes    8.130105    0.000000    0.000000    40     0.1760
  2. axis:    yes   -4.065052    7.040877    0.000000    40     0.1760
  3. axis:    no     0.000000    0.000000   26.638201   148     0.1800

  Lengths:   8.130105   8.130105  26.638201
  Angles:   90.000000  90.000000 120.000000

Effective grid spacing dv^(1/3) = 0.1860

     iter     time        total  log10-change:
                         energy  eigst   dens
iter:   1 12:31:19 -5062.096322  -3.01
iter:   2 12:31:42 -5064.194607  -2.64  -2.59
iter:   3 12:32:05 -5062.026566  -2.99  -1.90
iter:   4 12:32:28 -5062.013936  -3.84  -3.01
iter:   5 12:32:52 -5062.012372c -4.65  -3.26
iter:   6 12:33:15 -5062.011058c -5.13  -3.44
iter:   7 12:33:38 -5062.011029c -5.62  -3.86
iter:   8 12:34:01 -5062.011034c -5.79  -3.94
iter:   9 12:34:24 -5062.010934c -5.68  -4.00
iter:  10 12:34:48 -5062.011069c -6.17  -4.09c
iter:  11 12:35:11 -5062.010919c -6.91  -4.31c
iter:  12 12:35:34 -5062.010981c -7.19  -4.35c
iter:  13 12:35:57 -5062.010991c -6.57  -4.42c
iter:  14 12:36:21 -5062.010983c -6.98  -4.56c
iter:  15 12:36:44 -5062.010985c -7.78c -4.63c

Converged after 15 iterations.

Dipole moment: (-6.526669, -5.800168, 0.260885) |e|*Ang

Energy contributions relative to reference atoms: (reference = -4438877.841848)

Kinetic:       +615.294630
Potential:     -701.850369
External:        +0.000000
XC:            -4967.349938
Entropy (-ST):   -1.966694
Local:           -7.121961
--------------------------
Free energy:   -5062.994331
Extrapolated:  -5062.010985

Showing only first 2 kpts
 Kpt  Band  Eigenvalues  Occupancy
  0   289     -4.91935    1.02037
  0   290     -4.91454    0.99635
  0   291     -4.89259    0.88709
  0   292     -4.80786    0.50923

  1   289     -4.93487    1.09767
  1   290     -4.91274    0.98736
  1   291     -4.89835    0.91558
  1   292     -4.86647    0.76072


Fermi level: -4.91527

No gap

Forces in eV/Ang:
  0 Ru    0.00000   -0.00000    0.82566
  1 Ru   -0.06960   -0.04019   -0.89951
  2 Ru   -0.00000    0.00766   -0.04402
  3 Ru   -0.02909   -0.04412    0.01916
  4 Ru   -0.02549   -0.00899    0.70716
  5 Ru    0.00000   -0.07454   -0.66455
  6 Ru   -0.01305   -0.00754   -0.04579
  7 Ru   -0.05275   -0.00314    0.01916
  8 Ru   -0.02053   -0.01758    0.70716
  9 Ru   -0.06455    0.03727   -0.66455
 10 Ru    0.00663   -0.00383   -0.04402
 11 Ru    0.00000    0.00000    0.04227
 12 Ru    0.00496    0.02657    0.70716
 13 Ru    0.00000    0.00334   -0.65049
 14 Ru    0.06768    0.03907    0.05124
 15 Ru    0.02909   -0.04412    0.01916
 16 Ru    0.02549   -0.00899    0.70716
 17 Ru    0.00289   -0.00167   -0.65049
 18 Ru    0.01305   -0.00754   -0.04579
 19 Ru    0.00000    0.00000   -0.08284
 20 Ru   -0.00000    0.00000    0.71052
 21 Ru    0.06455    0.03727   -0.66455
 22 Ru   -0.00000    0.01507   -0.04579
 23 Ru   -0.02366    0.04725    0.01916
 24 Ru   -0.00496    0.02657    0.70716
 25 Ru    0.06960   -0.04019   -0.89951
 26 Ru   -0.06768    0.03907    0.05124
 27 Ru    0.00000    0.00000   -0.00107
 28 Ru   -0.00000    0.00000    0.71085
 29 Ru   -0.00289   -0.00167   -0.65049
 30 Ru    0.00000   -0.07815    0.05124
 31 Ru    0.05275   -0.00314    0.01916
 32 Ru    0.02053   -0.01758    0.70716
 33 Ru    0.00000    0.08037   -0.89951
 34 Ru   -0.00663   -0.00383   -0.04402
 35 Ru    0.02366    0.04725    0.01916
 36 O    -0.00000    0.00000    0.13398
 37 H     0.00000    0.00000    0.13931

BFGS:    3 12:36:56    -5062.010985        0.1393
System changes: positions 

Initializing position-dependent things.

Density initialized from wave functions
                                              
                                              
                                              
                                              
                                              
                                              
                         H                    
                         O                    
                Ru     Ru     Ru              
                                              
           Ru    RRu    RRu    Ru             
             Ru    RRu    RRu    Ru           
                                              
              RRu   RRu    RRu                
                                              
               Ru     Ru     Ru               
                 Ru     Ru    Ru              
          Ru    Ru     Ru                     
            Ru    Ru     Ru                   
              Ru    Ru     Ru                 
                                              
                                              
                                              
                                              

Positions:
   0 Ru     0.000000    0.000000    9.999999    ( 0.0000,  0.0000,  0.0000)
   1 Ru     1.355017    0.782320   12.212733    ( 0.0000,  0.0000,  0.0000)
   2 Ru    -0.000000    1.576462   14.476124    ( 0.0000,  0.0000,  0.0000)
   3 Ru     2.689082   -0.019683   16.567636    ( 0.0000,  0.0000,  0.0000)
   4 Ru    -1.355017    2.346959    9.999999    ( 0.0000,  0.0000,  0.0000)
   5 Ru    -0.000000    3.129279   12.212733    ( 0.0000,  0.0000,  0.0000)
   6 Ru    -1.355142    3.911527   14.448496    ( 0.0000,  0.0000,  0.0000)
   7 Ru     1.327495    2.338655   16.567636    ( 0.0000,  0.0000,  0.0000)
   8 Ru    -2.710035    4.693918    9.999999    ( 0.0000,  0.0000,  0.0000)
   9 Ru    -1.355017    5.476238   12.212733    ( 0.0000,  0.0000,  0.0000)
  10 Ru    -2.699797    6.252647   14.476124    ( 0.0000,  0.0000,  0.0000)
  11 Ru    -0.000000    4.693918   16.581520    ( 0.0000,  0.0000,  0.0000)
  12 Ru     2.710035    0.000000    9.999999    ( 0.0000,  0.0000,  0.0000)
  13 Ru     4.065052    0.782320   12.212733    ( 0.0000,  0.0000,  0.0000)
  14 Ru     2.729509    1.575883   14.465041    ( 0.0000,  0.0000,  0.0000)
  15 Ru     5.441023   -0.019683   16.567636    ( 0.0000,  0.0000,  0.0000)
  16 Ru     1.355017    2.346959    9.999999    ( 0.0000,  0.0000,  0.0000)
  17 Ru     2.710035    3.129279   12.212733    ( 0.0000,  0.0000,  0.0000)
  18 Ru     1.355142    3.911527   14.448496    ( 0.0000,  0.0000,  0.0000)
  19 Ru     4.065052    2.346959   16.624224    ( 0.0000,  0.0000,  0.0000)
  20 Ru     0.000000    4.693918    9.999999    ( 0.0000,  0.0000,  0.0000)
  21 Ru     1.355017    5.476238   12.212733    ( 0.0000,  0.0000,  0.0000)
  22 Ru    -0.000000    6.258702   14.448496    ( 0.0000,  0.0000,  0.0000)
  23 Ru     2.703465    4.721905   16.567636    ( 0.0000,  0.0000,  0.0000)
  24 Ru     5.420070    0.000000    9.999999    ( 0.0000,  0.0000,  0.0000)
  25 Ru     6.775087    0.782320   12.212733    ( 0.0000,  0.0000,  0.0000)
  26 Ru     5.400596    1.575883   14.465041    ( 0.0000,  0.0000,  0.0000)
  27 Ru     8.130105    0.000000   16.568597    ( 0.0000,  0.0000,  0.0000)
  28 Ru     4.065052    2.346959    9.999999    ( 0.0000,  0.0000,  0.0000)
  29 Ru     5.420070    3.129279   12.212733    ( 0.0000,  0.0000,  0.0000)
  30 Ru     4.065052    3.889112   14.465041    ( 0.0000,  0.0000,  0.0000)
  31 Ru     6.802610    2.338655   16.567636    ( 0.0000,  0.0000,  0.0000)
  32 Ru     2.710035    4.693918    9.999999    ( 0.0000,  0.0000,  0.0000)
  33 Ru     4.065052    5.476238   12.212733    ( 0.0000,  0.0000,  0.0000)
  34 Ru     2.699797    6.252647   14.476124    ( 0.0000,  0.0000,  0.0000)
  35 Ru     5.426640    4.721905   16.567636    ( 0.0000,  0.0000,  0.0000)
  36 O      4.065052    2.346959   18.566782    ( 0.0000,  0.0000,  0.0000)
  37 H      4.065052    2.346959   19.524222    ( 0.0000,  0.0000,  0.0000)

Unit cell:
           periodic     x           y           z      points  spacing
  1. axis:    yes    8.130105    0.000000    0.000000    40     0.1760
  2. axis:    yes   -4.065052    7.040877    0.000000    40     0.1760
  3. axis:    no     0.000000    0.000000   26.638201   148     0.1800

  Lengths:   8.130105   8.130105  26.638201
  Angles:   90.000000  90.000000 120.000000

Effective grid spacing dv^(1/3) = 0.1860

     iter     time        total  log10-change:
                         energy  eigst   dens
iter:   1 12:38:09 -5062.021950  -3.66
iter:   2 12:38:32 -5062.248464  -3.56  -3.06
iter:   3 12:38:55 -5062.017170c -3.90  -2.38
iter:   4 12:39:19 -5062.013368c -4.75  -3.31
iter:   5 12:39:42 -5062.013339c -5.52  -3.61
iter:   6 12:40:05 -5062.013231c -5.91  -3.91
iter:   7 12:40:28 -5062.013220c -6.43  -4.21c
iter:   8 12:40:52 -5062.013262c -6.59  -4.27c
iter:   9 12:41:15 -5062.013246c -6.43  -4.21c
iter:  10 12:41:38 -5062.013209c -6.70  -4.23c
iter:  11 12:42:01 -5062.013250c -7.42c -4.66c

Converged after 11 iterations.

Dipole moment: (-6.689730, -5.704427, 0.257650) |e|*Ang

Energy contributions relative to reference atoms: (reference = -4438877.841848)

Kinetic:       +615.026215
Potential:     -701.635596
External:        +0.000000
XC:            -4967.296525
Entropy (-ST):   -1.966191
Local:           -7.124248
--------------------------
Free energy:   -5062.996345
Extrapolated:  -5062.013250

Showing only first 2 kpts
 Kpt  Band  Eigenvalues  Occupancy
  0   289     -4.92276    1.02071
  0   290     -4.91720    0.99293
  0   291     -4.89573    0.88609
  0   292     -4.81125    0.50943

  1   289     -4.93819    1.09758
  1   290     -4.91648    0.98931
  1   291     -4.90194    0.91681
  1   292     -4.86905    0.75713


Fermi level: -4.91862

No gap

Forces in eV/Ang:
  0 Ru   -0.00000   -0.00000    0.83139
  1 Ru   -0.06684   -0.03859   -0.90450
  2 Ru    0.00000    0.00387   -0.02114
  3 Ru   -0.02008   -0.02402   -0.00124
  4 Ru   -0.02747   -0.00855    0.70641
  5 Ru   -0.00000   -0.07520   -0.66835
  6 Ru   -0.00218   -0.00126   -0.01985
  7 Ru   -0.03084   -0.00538   -0.00124
  8 Ru   -0.02114   -0.01951    0.70641
  9 Ru   -0.06513    0.03760   -0.66835
 10 Ru    0.00335   -0.00194   -0.02114
 11 Ru    0.00000   -0.00000    0.00159
 12 Ru    0.00633    0.02807    0.70641
 13 Ru    0.00000    0.00302   -0.65393
 14 Ru    0.02655    0.01533    0.04438
 15 Ru    0.02008   -0.02402   -0.00124
 16 Ru    0.02747   -0.00855    0.70641
 17 Ru    0.00262   -0.00151   -0.65393
 18 Ru    0.00218   -0.00126   -0.01985
 19 Ru   -0.00000    0.00000    0.02277
 20 Ru    0.00000    0.00000    0.70709
 21 Ru    0.06513    0.03760   -0.66835
 22 Ru    0.00000    0.00252   -0.01985
 23 Ru   -0.01076    0.02940   -0.00124
 24 Ru   -0.00633    0.02807    0.70641
 25 Ru    0.06684   -0.03859   -0.90450
 26 Ru   -0.02655    0.01533    0.04438
 27 Ru    0.00000    0.00000   -0.02965
 28 Ru    0.00000    0.00000    0.70842
 29 Ru   -0.00262   -0.00151   -0.65393
 30 Ru    0.00000   -0.03066    0.04438
 31 Ru    0.03084   -0.00538   -0.00124
 32 Ru    0.02114   -0.01951    0.70641
 33 Ru    0.00000    0.07719   -0.90450
 34 Ru   -0.00335   -0.00194   -0.02114
 35 Ru    0.01076    0.02940   -0.00124
 36 O     0.00000   -0.00000    0.11711
 37 H     0.00000   -0.00000    0.04658

BFGS:    4 12:42:14    -5062.013250        0.1171
System changes: positions 

Initializing position-dependent things.

Density initialized from wave functions
                                              
                                              
                                              
                                              
                                              
                                              
                         H                    
                         O                    
                Ru     Ru     Ru              
                                              
           Ru    RRu    RRu    Ru             
             Ru    RRu    RRu    Ru           
                                              
              RRu   RRu    RRu                
                                              
               Ru     Ru     Ru               
                 Ru     Ru    Ru              
          Ru    Ru     Ru                     
            Ru    Ru     Ru                   
              Ru    Ru     Ru                 
                                              
                                              
                                              
                                              

Positions:
   0 Ru     0.000000    0.000000    9.999999    ( 0.0000,  0.0000,  0.0000)
   1 Ru     1.355017    0.782320   12.212733    ( 0.0000,  0.0000,  0.0000)
   2 Ru    -0.000000    1.576844   14.475493    ( 0.0000,  0.0000,  0.0000)
   3 Ru     2.687750   -0.021255   16.567624    ( 0.0000,  0.0000,  0.0000)
   4 Ru    -1.355017    2.346959    9.999999    ( 0.0000,  0.0000,  0.0000)
   5 Ru    -0.000000    3.129279   12.212733    ( 0.0000,  0.0000,  0.0000)
   6 Ru    -1.355343    3.911411   14.447256    ( 0.0000,  0.0000,  0.0000)
   7 Ru     1.325468    2.338287   16.567624    ( 0.0000,  0.0000,  0.0000)
   8 Ru    -2.710035    4.693918    9.999999    ( 0.0000,  0.0000,  0.0000)
   9 Ru    -1.355017    5.476238   12.212733    ( 0.0000,  0.0000,  0.0000)
  10 Ru    -2.699465    6.252455   14.475493    ( 0.0000,  0.0000,  0.0000)
  11 Ru    -0.000000    4.693918   16.582208    ( 0.0000,  0.0000,  0.0000)
  12 Ru     2.710035    0.000000    9.999999    ( 0.0000,  0.0000,  0.0000)
  13 Ru     4.065052    0.782320   12.212733    ( 0.0000,  0.0000,  0.0000)
  14 Ru     2.731538    1.577054   14.466948    ( 0.0000,  0.0000,  0.0000)
  15 Ru     5.442355   -0.021255   16.567624    ( 0.0000,  0.0000,  0.0000)
  16 Ru     1.355017    2.346959    9.999999    ( 0.0000,  0.0000,  0.0000)
  17 Ru     2.710035    3.129279   12.212733    ( 0.0000,  0.0000,  0.0000)
  18 Ru     1.355343    3.911411   14.447256    ( 0.0000,  0.0000,  0.0000)
  19 Ru     4.065052    2.346959   16.624512    ( 0.0000,  0.0000,  0.0000)
  20 Ru     0.000000    4.693918    9.999999    ( 0.0000,  0.0000,  0.0000)
  21 Ru     1.355017    5.476238   12.212733    ( 0.0000,  0.0000,  0.0000)
  22 Ru    -0.000000    6.258933   14.447256    ( 0.0000,  0.0000,  0.0000)
  23 Ru     2.702770    4.723845   16.567624    ( 0.0000,  0.0000,  0.0000)
  24 Ru     5.420070    0.000000    9.999999    ( 0.0000,  0.0000,  0.0000)
  25 Ru     6.775087    0.782320   12.212733    ( 0.0000,  0.0000,  0.0000)
  26 Ru     5.398566    1.577054   14.466948    ( 0.0000,  0.0000,  0.0000)
  27 Ru     8.130105    0.000000   16.567719    ( 0.0000,  0.0000,  0.0000)
  28 Ru     4.065052    2.346959    9.999999    ( 0.0000,  0.0000,  0.0000)
  29 Ru     5.420070    3.129279   12.212733    ( 0.0000,  0.0000,  0.0000)
  30 Ru     4.065052    3.886768   14.466948    ( 0.0000,  0.0000,  0.0000)
  31 Ru     6.804637    2.338287   16.567624    ( 0.0000,  0.0000,  0.0000)
  32 Ru     2.710035    4.693918    9.999999    ( 0.0000,  0.0000,  0.0000)
  33 Ru     4.065052    5.476238   12.212733    ( 0.0000,  0.0000,  0.0000)
  34 Ru     2.699465    6.252455   14.475493    ( 0.0000,  0.0000,  0.0000)
  35 Ru     5.427335    4.723845   16.567624    ( 0.0000,  0.0000,  0.0000)
  36 O      4.065052    2.346959   18.570163    ( 0.0000,  0.0000,  0.0000)
  37 H      4.065052    2.346959   19.527935    ( 0.0000,  0.0000,  0.0000)

Unit cell:
           periodic     x           y           z      points  spacing
  1. axis:    yes    8.130105    0.000000    0.000000    40     0.1760
  2. axis:    yes   -4.065052    7.040877    0.000000    40     0.1760
  3. axis:    no     0.000000    0.000000   26.638201   148     0.1800

  Lengths:   8.130105   8.130105  26.638201
  Angles:   90.000000  90.000000 120.000000

Effective grid spacing dv^(1/3) = 0.1860

     iter     time        total  log10-change:
                         energy  eigst   dens
iter:   1 12:43:26 -5062.025463  -3.56
iter:   2 12:43:49 -5062.308553  -3.48  -3.05
iter:   3 12:44:12 -5062.016024  -3.93  -2.33
iter:   4 12:44:36 -5062.014934  -4.80  -3.72
iter:   5 12:44:59 -5062.015234c -5.45  -3.87
iter:   6 12:45:22 -5062.015192c -5.89  -4.05c
iter:   7 12:45:45 -5062.015199c -6.10  -4.16c
iter:   8 12:46:08 -5062.015207c -6.52  -4.28c
iter:   9 12:46:31 -5062.015194c -6.63  -4.26c
iter:  10 12:46:54 -5062.015189c -6.95  -4.43c
iter:  11 12:47:17 -5062.015178c -7.39  -4.61c
iter:  12 12:47:41 -5062.015202c -7.77c -4.66c

Converged after 12 iterations.

Dipole moment: (-6.931648, -5.562448, 0.254517) |e|*Ang

Energy contributions relative to reference atoms: (reference = -4438877.841848)

Kinetic:       +614.885784
Potential:     -701.521867
External:        +0.000000
XC:            -4967.279259
Entropy (-ST):   -1.965116
Local:           -7.117301
--------------------------
Free energy:   -5062.997760
Extrapolated:  -5062.015202

Showing only first 2 kpts
 Kpt  Band  Eigenvalues  Occupancy
  0   289     -4.92598    1.02037
  0   290     -4.92023    0.99166
  0   291     -4.89895    0.88576
  0   292     -4.81423    0.50824

  1   289     -4.94147    1.09751
  1   290     -4.92035    0.99225
  1   291     -4.90536    0.91749
  1   292     -4.87158    0.75356


Fermi level: -4.92190

No gap

Forces in eV/Ang:
  0 Ru    0.00000   -0.00000    0.83778
  1 Ru   -0.06791   -0.03921   -0.90497
  2 Ru   -0.00000   -0.00044   -0.03027
  3 Ru   -0.00200   -0.00690    0.00536
  4 Ru   -0.02966   -0.00843    0.70666
  5 Ru    0.00000   -0.07735   -0.66694
  6 Ru   -0.00286   -0.00165   -0.01094
  7 Ru   -0.00698    0.00171    0.00536
  8 Ru   -0.02213   -0.02147    0.70666
  9 Ru   -0.06699    0.03867   -0.66694
 10 Ru   -0.00038    0.00022   -0.03027
 11 Ru    0.00000   -0.00000    0.00411
 12 Ru    0.00753    0.02990    0.70666
 13 Ru    0.00000    0.00385   -0.64835
 14 Ru    0.00975    0.00563    0.03394
 15 Ru    0.00200   -0.00690    0.00536
 16 Ru    0.02966   -0.00843    0.70666
 17 Ru    0.00334   -0.00193   -0.64835
 18 Ru    0.00286   -0.00165   -0.01094
 19 Ru    0.00000    0.00000    0.07240
 20 Ru    0.00000    0.00000    0.70444
 21 Ru    0.06699    0.03867   -0.66694
 22 Ru   -0.00000    0.00330   -0.01094
 23 Ru   -0.00497    0.00519    0.00536
 24 Ru   -0.00753    0.02990    0.70666
 25 Ru    0.06791   -0.03921   -0.90497
 26 Ru   -0.00975    0.00563    0.03394
 27 Ru   -0.00000    0.00000   -0.01653
 28 Ru    0.00000    0.00000    0.70628
 29 Ru   -0.00334   -0.00193   -0.64835
 30 Ru   -0.00000   -0.01126    0.03394
 31 Ru    0.00698    0.00171    0.00536
 32 Ru    0.02213   -0.02147    0.70666
 33 Ru    0.00000    0.07842   -0.90497
 34 Ru    0.00038    0.00022   -0.03027
 35 Ru    0.00497    0.00519    0.00536
 36 O     0.00000   -0.00000    0.06016
 37 H    -0.00000    0.00000    0.02468

BFGS:    5 12:47:53    -5062.015202        0.0724
System changes: positions 

Initializing position-dependent things.

Density initialized from wave functions
                                              
                                              
                                              
                                              
                                              
                                              
                         H                    
                         O                    
                Ru     Ru     Ru              
                                              
           Ru    RRu    RRu    Ru             
             Ru    RRu    RRu    Ru           
                                              
              RRu   RRu    RRu                
                                              
               Ru     Ru     Ru               
                 Ru     Ru    Ru              
          Ru    Ru     Ru                     
            Ru    Ru     Ru                   
              Ru    Ru     Ru                 
                                              
                                              
                                              
                                              

Positions:
   0 Ru     0.000000    0.000000    9.999999    ( 0.0000,  0.0000,  0.0000)
   1 Ru     1.355017    0.782320   12.212733    ( 0.0000,  0.0000,  0.0000)
   2 Ru    -0.000000    1.577203   14.474128    ( 0.0000,  0.0000,  0.0000)
   3 Ru     2.686469   -0.022910   16.567813    ( 0.0000,  0.0000,  0.0000)
   4 Ru    -1.355017    2.346959    9.999999    ( 0.0000,  0.0000,  0.0000)
   5 Ru    -0.000000    3.129279   12.212733    ( 0.0000,  0.0000,  0.0000)
   6 Ru    -1.355637    3.911241   14.445780    ( 0.0000,  0.0000,  0.0000)
   7 Ru     1.323394    2.338006   16.567813    ( 0.0000,  0.0000,  0.0000)
   8 Ru    -2.710035    4.693918    9.999999    ( 0.0000,  0.0000,  0.0000)
   9 Ru    -1.355017    5.476238   12.212733    ( 0.0000,  0.0000,  0.0000)
  10 Ru    -2.699155    6.252276   14.474128    ( 0.0000,  0.0000,  0.0000)
  11 Ru    -0.000000    4.693918   16.583113    ( 0.0000,  0.0000,  0.0000)
  12 Ru     2.710035    0.000000    9.999999    ( 0.0000,  0.0000,  0.0000)
  13 Ru     4.065052    0.782320   12.212733    ( 0.0000,  0.0000,  0.0000)
  14 Ru     2.733779    1.578348   14.469496    ( 0.0000,  0.0000,  0.0000)
  15 Ru     5.443635   -0.022910   16.567813    ( 0.0000,  0.0000,  0.0000)
  16 Ru     1.355017    2.346959    9.999999    ( 0.0000,  0.0000,  0.0000)
  17 Ru     2.710035    3.129279   12.212733    ( 0.0000,  0.0000,  0.0000)
  18 Ru     1.355637    3.911241   14.445780    ( 0.0000,  0.0000,  0.0000)
  19 Ru     4.065052    2.346959   16.626383    ( 0.0000,  0.0000,  0.0000)
  20 Ru     0.000000    4.693918    9.999999    ( 0.0000,  0.0000,  0.0000)
  21 Ru     1.355017    5.476238   12.212733    ( 0.0000,  0.0000,  0.0000)
  22 Ru    -0.000000    6.259273   14.445780    ( 0.0000,  0.0000,  0.0000)
  23 Ru     2.701977    4.725781   16.567813    ( 0.0000,  0.0000,  0.0000)
  24 Ru     5.420070    0.000000    9.999999    ( 0.0000,  0.0000,  0.0000)
  25 Ru     6.775087    0.782320   12.212733    ( 0.0000,  0.0000,  0.0000)
  26 Ru     5.396326    1.578348   14.469496    ( 0.0000,  0.0000,  0.0000)
  27 Ru     8.130105    0.000000   16.566672    ( 0.0000,  0.0000,  0.0000)
  28 Ru     4.065052    2.346959    9.999999    ( 0.0000,  0.0000,  0.0000)
  29 Ru     5.420070    3.129279   12.212733    ( 0.0000,  0.0000,  0.0000)
  30 Ru     4.065052    3.884181   14.469496    ( 0.0000,  0.0000,  0.0000)
  31 Ru     6.806711    2.338006   16.567813    ( 0.0000,  0.0000,  0.0000)
  32 Ru     2.710035    4.693918    9.999999    ( 0.0000,  0.0000,  0.0000)
  33 Ru     4.065052    5.476238   12.212733    ( 0.0000,  0.0000,  0.0000)
  34 Ru     2.699155    6.252276   14.474128    ( 0.0000,  0.0000,  0.0000)
  35 Ru     5.428128    4.725781   16.567813    ( 0.0000,  0.0000,  0.0000)
  36 O      4.065052    2.346959   18.574280    ( 0.0000,  0.0000,  0.0000)
  37 H      4.065052    2.346959   19.532329    ( 0.0000,  0.0000,  0.0000)

Unit cell:
           periodic     x           y           z      points  spacing
  1. axis:    yes    8.130105    0.000000    0.000000    40     0.1760
  2. axis:    yes   -4.065052    7.040877    0.000000    40     0.1760
  3. axis:    no     0.000000    0.000000   26.638201   148     0.1800

  Lengths:   8.130105   8.130105  26.638201
  Angles:   90.000000  90.000000 120.000000

Effective grid spacing dv^(1/3) = 0.1860

     iter     time        total  log10-change:
                         energy  eigst   dens
iter:   1 12:49:06 -5062.016818  -3.43
iter:   2 12:49:29 -5062.031537  -4.25  -3.50
iter:   3 12:49:52 -5062.017935c -4.77  -2.99
iter:   4 12:50:15 -5062.016302c -5.57  -3.55
iter:   5 12:50:38 -5062.016505c -6.22  -3.89
iter:   6 12:51:02 -5062.016462c -6.06  -3.99
iter:   7 12:51:25 -5062.016471c -5.99  -4.16c
iter:   8 12:51:48 -5062.016494c -6.43  -4.38c
iter:   9 12:52:11 -5062.016478c -6.92  -4.39c
iter:  10 12:52:34 -5062.016439c -7.04  -4.31c
iter:  11 12:52:58 -5062.016487c -7.34  -4.55c
iter:  12 12:53:21 -5062.016423c -7.64c -4.73c

Converged after 12 iterations.

Dipole moment: (-7.190703, -5.409944, 0.251906) |e|*Ang

Energy contributions relative to reference atoms: (reference = -4438877.841848)

Kinetic:       +614.635140
Potential:     -701.317034
External:        +0.000000
XC:            -4967.238102
Entropy (-ST):   -1.964364
Local:           -7.114245
--------------------------
Free energy:   -5062.998605
Extrapolated:  -5062.016423

Showing only first 2 kpts
 Kpt  Band  Eigenvalues  Occupancy
  0   289     -4.92858    1.01953
  0   290     -4.92234    0.98833
  0   291     -4.90153    0.88481
  0   292     -4.81654    0.50652

  1   289     -4.94408    1.09675
  1   290     -4.92367    0.99500
  1   291     -4.90836    0.91860
  1   292     -4.87363    0.75021


Fermi level: -4.92467

No gap

Forces in eV/Ang:
  0 Ru    0.00000   -0.00000    0.84601
  1 Ru   -0.06623   -0.03824   -0.90560
  2 Ru    0.00000   -0.00379   -0.02313
  3 Ru    0.01173    0.00940    0.00185
  4 Ru   -0.03253   -0.00766    0.70635
  5 Ru    0.00000   -0.07920   -0.66774
  6 Ru   -0.00005   -0.00003    0.00468
  7 Ru    0.01401    0.00545    0.00185
  8 Ru   -0.02290   -0.02434    0.70635
  9 Ru   -0.06859    0.03960   -0.66774
 10 Ru   -0.00329    0.00190   -0.02313
 11 Ru   -0.00000    0.00000   -0.00998
 12 Ru    0.00963    0.03200    0.70635
 13 Ru    0.00000    0.00625   -0.64308
 14 Ru   -0.01593   -0.00920    0.01952
 15 Ru   -0.01173    0.00940    0.00185
 16 Ru    0.03253   -0.00766    0.70635
 17 Ru    0.00542   -0.00313   -0.64308
 18 Ru    0.00005   -0.00003    0.00468
 19 Ru    0.00000    0.00000    0.11437
 20 Ru   -0.00000    0.00000    0.70014
 21 Ru    0.06859    0.03960   -0.66774
 22 Ru    0.00000    0.00006    0.00468
 23 Ru    0.00228   -0.01486    0.00185
 24 Ru   -0.00963    0.03200    0.70635
 25 Ru    0.06623   -0.03824   -0.90560
 26 Ru    0.01593   -0.00920    0.01952
 27 Ru    0.00000    0.00000   -0.01682
 28 Ru    0.00000    0.00000    0.70249
 29 Ru   -0.00542   -0.00313   -0.64308
 30 Ru   -0.00000    0.01840    0.01952
 31 Ru   -0.01401    0.00545    0.00185
 32 Ru    0.02290   -0.02434    0.70635
 33 Ru   -0.00000    0.07647   -0.90560
 34 Ru    0.00329    0.00190   -0.02313
 35 Ru   -0.00228   -0.01486    0.00185
 36 O     0.00000   -0.00000    0.00598
 37 H    -0.00000    0.00000    0.00693

BFGS:    6 12:53:33    -5062.016423        0.1144
System changes: positions 

Initializing position-dependent things.

Density initialized from wave functions
                                              
                                              
                                              
                                              
                                              
                                              
                         H                    
                         O                    
                Ru     Ru     Ru              
                                              
           Ru    RRu    RRu    Ru             
             Ru    RRu    RRu    Ru           
                                              
              RRu   RRu    RRu                
                                              
               Ru     Ru     Ru               
                 Ru     Ru    Ru              
          Ru    Ru     Ru                     
            Ru    Ru     Ru                   
              Ru    Ru     Ru                 
                                              
                                              
                                              
                                              

Positions:
   0 Ru     0.000000    0.000000    9.999999    ( 0.0000,  0.0000,  0.0000)
   1 Ru     1.355017    0.782320   12.212733    ( 0.0000,  0.0000,  0.0000)
   2 Ru    -0.000000    1.577272   14.473454    ( 0.0000,  0.0000,  0.0000)
   3 Ru     2.686232   -0.023283   16.567863    ( 0.0000,  0.0000,  0.0000)
   4 Ru    -1.355017    2.346959    9.999999    ( 0.0000,  0.0000,  0.0000)
   5 Ru    -0.000000    3.129279   12.212733    ( 0.0000,  0.0000,  0.0000)
   6 Ru    -1.355715    3.911196   14.445425    ( 0.0000,  0.0000,  0.0000)
   7 Ru     1.322952    2.337987   16.567863    ( 0.0000,  0.0000,  0.0000)
   8 Ru    -2.710035    4.693918    9.999999    ( 0.0000,  0.0000,  0.0000)
   9 Ru    -1.355017    5.476238   12.212733    ( 0.0000,  0.0000,  0.0000)
  10 Ru    -2.699095    6.252241   14.473454    ( 0.0000,  0.0000,  0.0000)
  11 Ru    -0.000000    4.693918   16.583220    ( 0.0000,  0.0000,  0.0000)
  12 Ru     2.710035    0.000000    9.999999    ( 0.0000,  0.0000,  0.0000)
  13 Ru     4.065052    0.782320   12.212733    ( 0.0000,  0.0000,  0.0000)
  14 Ru     2.734212    1.578598   14.470527    ( 0.0000,  0.0000,  0.0000)
  15 Ru     5.443873   -0.023283   16.567863    ( 0.0000,  0.0000,  0.0000)
  16 Ru     1.355017    2.346959    9.999999    ( 0.0000,  0.0000,  0.0000)
  17 Ru     2.710035    3.129279   12.212733    ( 0.0000,  0.0000,  0.0000)
  18 Ru     1.355715    3.911196   14.445425    ( 0.0000,  0.0000,  0.0000)
  19 Ru     4.065052    2.346959   16.628782    ( 0.0000,  0.0000,  0.0000)
  20 Ru     0.000000    4.693918    9.999999    ( 0.0000,  0.0000,  0.0000)
  21 Ru     1.355017    5.476238   12.212733    ( 0.0000,  0.0000,  0.0000)
  22 Ru    -0.000000    6.259363   14.445425    ( 0.0000,  0.0000,  0.0000)
  23 Ru     2.701773    4.726174   16.567863    ( 0.0000,  0.0000,  0.0000)
  24 Ru     5.420070    0.000000    9.999999    ( 0.0000,  0.0000,  0.0000)
  25 Ru     6.775087    0.782320   12.212733    ( 0.0000,  0.0000,  0.0000)
  26 Ru     5.395893    1.578598   14.470527    ( 0.0000,  0.0000,  0.0000)
  27 Ru     8.130105    0.000000   16.566100    ( 0.0000,  0.0000,  0.0000)
  28 Ru     4.065052    2.346959    9.999999    ( 0.0000,  0.0000,  0.0000)
  29 Ru     5.420070    3.129279   12.212733    ( 0.0000,  0.0000,  0.0000)
  30 Ru     4.065052    3.883681   14.470527    ( 0.0000,  0.0000,  0.0000)
  31 Ru     6.807153    2.337987   16.567863    ( 0.0000,  0.0000,  0.0000)
  32 Ru     2.710035    4.693918    9.999999    ( 0.0000,  0.0000,  0.0000)
  33 Ru     4.065052    5.476238   12.212733    ( 0.0000,  0.0000,  0.0000)
  34 Ru     2.699095    6.252241   14.473454    ( 0.0000,  0.0000,  0.0000)
  35 Ru     5.428332    4.726174   16.567863    ( 0.0000,  0.0000,  0.0000)
  36 O      4.065052    2.346959   18.575591    ( 0.0000,  0.0000,  0.0000)
  37 H      4.065052    2.346959   19.533570    ( 0.0000,  0.0000,  0.0000)

Unit cell:
           periodic     x           y           z      points  spacing
  1. axis:    yes    8.130105    0.000000    0.000000    40     0.1760
  2. axis:    yes   -4.065052    7.040877    0.000000    40     0.1760
  3. axis:    no     0.000000    0.000000   26.638201   148     0.1800

  Lengths:   8.130105   8.130105  26.638201
  Angles:   90.000000  90.000000 120.000000

Effective grid spacing dv^(1/3) = 0.1860

     iter     time        total  log10-change:
                         energy  eigst   dens
iter:   1 12:54:46 -5062.028875  -4.13
iter:   2 12:55:09 -5062.273336  -3.57  -3.08
iter:   3 12:55:32 -5062.017337c -3.92  -2.36
iter:   4 12:55:55 -5062.016984c -4.81  -3.49
iter:   5 12:56:18 -5062.016829c -5.70  -4.13c
iter:   6 12:56:41 -5062.016787c -6.33  -4.46c
iter:   7 12:57:05 -5062.016781c -6.88  -4.46c
iter:   8 12:57:28 -5062.016774c -7.24  -4.51c
iter:   9 12:57:51 -5062.016762c -7.03  -4.49c
iter:  10 12:58:14 -5062.016787c -7.70c -4.76c

Converged after 10 iterations.

Dipole moment: (-7.249477, -5.375137, 0.252652) |e|*Ang

Energy contributions relative to reference atoms: (reference = -4438877.841848)

Kinetic:       +614.548482
Potential:     -701.248502
External:        +0.000000
XC:            -4967.224809
Entropy (-ST):   -1.964279
Local:           -7.109819
--------------------------
Free energy:   -5062.998927
Extrapolated:  -5062.016787

Showing only first 2 kpts
 Kpt  Band  Eigenvalues  Occupancy
  0   289     -4.92786    1.01893
  0   290     -4.92151    0.98717
  0   291     -4.90094    0.88485
  0   292     -4.81567    0.50548

  1   289     -4.94342    1.09643
  1   290     -4.92307    0.99501
  1   291     -4.90797    0.91965
  1   292     -4.87308    0.75043


Fermi level: -4.92407

No gap

Forces in eV/Ang:
  0 Ru   -0.00000   -0.00000    0.84561
  1 Ru   -0.06400   -0.03695   -0.90450
  2 Ru    0.00000   -0.00234   -0.01555
  3 Ru    0.01113    0.00800    0.00031
  4 Ru   -0.03381   -0.00675    0.70580
  5 Ru    0.00000   -0.07942   -0.66850
  6 Ru   -0.00181   -0.00105    0.00863
  7 Ru    0.01250    0.00564    0.00031
  8 Ru   -0.02275   -0.02590    0.70580
  9 Ru   -0.06878    0.03971   -0.66850
 10 Ru   -0.00203    0.00117   -0.01555
 11 Ru    0.00000    0.00000   -0.00934
 12 Ru    0.01106    0.03266    0.70580
 13 Ru    0.00000    0.00901   -0.64037
 14 Ru   -0.00987   -0.00570    0.01900
 15 Ru   -0.01113    0.00800    0.00031
 16 Ru    0.03381   -0.00675    0.70580
 17 Ru    0.00780   -0.00450   -0.64037
 18 Ru    0.00181   -0.00105    0.00863
 19 Ru   -0.00000    0.00000    0.08514
 20 Ru    0.00000    0.00000    0.69756
 21 Ru    0.06878    0.03971   -0.66850
 22 Ru    0.00000    0.00210    0.00863
 23 Ru    0.00136   -0.01364    0.00031
 24 Ru   -0.01106    0.03266    0.70580
 25 Ru    0.06400   -0.03695   -0.90450
 26 Ru    0.00987   -0.00570    0.01900
 27 Ru    0.00000    0.00000   -0.01296
 28 Ru   -0.00000    0.00000    0.70220
 29 Ru   -0.00780   -0.00450   -0.64037
 30 Ru    0.00000    0.01139    0.01900
 31 Ru   -0.01250    0.00564    0.00031
 32 Ru    0.02275   -0.02590    0.70580
 33 Ru   -0.00000    0.07391   -0.90450
 34 Ru    0.00203    0.00117   -0.01555
 35 Ru   -0.00136   -0.01364    0.00031
 36 O     0.00000   -0.00000    0.00074
 37 H     0.00000    0.00000    0.00554

BFGS:    7 12:58:27    -5062.016787        0.0851
System changes: positions 

Initializing position-dependent things.

Density initialized from wave functions
                                              
                                              
                                              
                                              
                                              
                                              
                         H                    
                         O                    
                Ru     Ru     Ru              
                                              
           Ru    RRu    RRu    Ru             
             Ru    RRu    RRu    Ru           
                                              
              RRu   RRu    RRu                
                                              
               Ru     Ru     Ru               
                 Ru     Ru    Ru              
          Ru    Ru     Ru                     
            Ru    Ru     Ru                   
              Ru    Ru     Ru                 
                                              
                                              
                                              
                                              

Positions:
   0 Ru     0.000000    0.000000    9.999999    ( 0.0000,  0.0000,  0.0000)
   1 Ru     1.355017    0.782320   12.212733    ( 0.0000,  0.0000,  0.0000)
   2 Ru    -0.000000    1.577486   14.471595    ( 0.0000,  0.0000,  0.0000)
   3 Ru     2.685720   -0.024261   16.567946    ( 0.0000,  0.0000,  0.0000)
   4 Ru    -1.355017    2.346959    9.999999    ( 0.0000,  0.0000,  0.0000)
   5 Ru    -0.000000    3.129279   12.212733    ( 0.0000,  0.0000,  0.0000)
   6 Ru    -1.356031    3.911013   14.444718    ( 0.0000,  0.0000,  0.0000)
   7 Ru     1.321850    2.338032   16.567946    ( 0.0000,  0.0000,  0.0000)
   8 Ru    -2.710035    4.693918    9.999999    ( 0.0000,  0.0000,  0.0000)
   9 Ru    -1.355017    5.476238   12.212733    ( 0.0000,  0.0000,  0.0000)
  10 Ru    -2.698910    6.252134   14.471595    ( 0.0000,  0.0000,  0.0000)
  11 Ru    -0.000000    4.693918   16.583391    ( 0.0000,  0.0000,  0.0000)
  12 Ru     2.710035    0.000000    9.999999    ( 0.0000,  0.0000,  0.0000)
  13 Ru     4.065052    0.782320   12.212733    ( 0.0000,  0.0000,  0.0000)
  14 Ru     2.735503    1.579343   14.473732    ( 0.0000,  0.0000,  0.0000)
  15 Ru     5.444385   -0.024261   16.567946    ( 0.0000,  0.0000,  0.0000)
  16 Ru     1.355017    2.346959    9.999999    ( 0.0000,  0.0000,  0.0000)
  17 Ru     2.710035    3.129279   12.212733    ( 0.0000,  0.0000,  0.0000)
  18 Ru     1.356031    3.911013   14.444718    ( 0.0000,  0.0000,  0.0000)
  19 Ru     4.065052    2.346959   16.635866    ( 0.0000,  0.0000,  0.0000)
  20 Ru     0.000000    4.693918    9.999999    ( 0.0000,  0.0000,  0.0000)
  21 Ru     1.355017    5.476238   12.212733    ( 0.0000,  0.0000,  0.0000)
  22 Ru    -0.000000    6.259728   14.444718    ( 0.0000,  0.0000,  0.0000)
  23 Ru     2.701182    4.727106   16.567946    ( 0.0000,  0.0000,  0.0000)
  24 Ru     5.420070    0.000000    9.999999    ( 0.0000,  0.0000,  0.0000)
  25 Ru     6.775087    0.782320   12.212733    ( 0.0000,  0.0000,  0.0000)
  26 Ru     5.394602    1.579343   14.473732    ( 0.0000,  0.0000,  0.0000)
  27 Ru     8.130105    0.000000   16.564421    ( 0.0000,  0.0000,  0.0000)
  28 Ru     4.065052    2.346959    9.999999    ( 0.0000,  0.0000,  0.0000)
  29 Ru     5.420070    3.129279   12.212733    ( 0.0000,  0.0000,  0.0000)
  30 Ru     4.065052    3.882191   14.473732    ( 0.0000,  0.0000,  0.0000)
  31 Ru     6.808255    2.338032   16.567946    ( 0.0000,  0.0000,  0.0000)
  32 Ru     2.710035    4.693918    9.999999    ( 0.0000,  0.0000,  0.0000)
  33 Ru     4.065052    5.476238   12.212733    ( 0.0000,  0.0000,  0.0000)
  34 Ru     2.698910    6.252134   14.471595    ( 0.0000,  0.0000,  0.0000)
  35 Ru     5.428923    4.727106   16.567946    ( 0.0000,  0.0000,  0.0000)
  36 O      4.065052    2.346959   18.579152    ( 0.0000,  0.0000,  0.0000)
  37 H      4.065052    2.346959   19.537026    ( 0.0000,  0.0000,  0.0000)

Unit cell:
           periodic     x           y           z      points  spacing
  1. axis:    yes    8.130105    0.000000    0.000000    40     0.1760
  2. axis:    yes   -4.065052    7.040877    0.000000    40     0.1760
  3. axis:    no     0.000000    0.000000   26.638201   148     0.1800

  Lengths:   8.130105   8.130105  26.638201
  Angles:   90.000000  90.000000 120.000000

Effective grid spacing dv^(1/3) = 0.1860

     iter     time        total  log10-change:
                         energy  eigst   dens
iter:   1 12:59:39 -5062.020774  -3.33
iter:   2 13:00:02 -5062.031959  -4.13  -3.43
iter:   3 13:00:26 -5062.025513c -4.48  -2.97
iter:   4 13:00:49 -5062.018023c -5.24  -3.10
iter:   5 13:01:12 -5062.017290c -5.98  -3.84
iter:   6 13:01:35 -5062.017269c -6.17  -4.04c
iter:   7 13:01:58 -5062.017248c -6.55  -4.08c
iter:   8 13:02:22 -5062.017212c -6.43  -4.11c
iter:   9 13:02:45 -5062.017379c -6.21  -4.18c
iter:  10 13:03:09 -5062.017298c -6.86  -3.95
iter:  11 13:03:32 -5062.017206c -7.54c -4.51c

Converged after 11 iterations.

Dipole moment: (-7.404729, -5.283117, 0.255624) |e|*Ang

Energy contributions relative to reference atoms: (reference = -4438877.841848)

Kinetic:       +614.373522
Potential:     -701.107661
External:        +0.000000
XC:            -4967.191730
Entropy (-ST):   -1.964444
Local:           -7.109115
--------------------------
Free energy:   -5062.999428
Extrapolated:  -5062.017206

Showing only first 2 kpts
 Kpt  Band  Eigenvalues  Occupancy
  0   289     -4.92501    1.01706
  0   290     -4.91851    0.98452
  0   291     -4.89848    0.88492
  0   292     -4.81236    0.50234

  1   289     -4.94061    1.09474
  1   290     -4.92070    0.99551
  1   291     -4.90602    0.92224
  1   292     -4.87082    0.75143


Fermi level: -4.92160

No gap

Forces in eV/Ang:
  0 Ru    0.00000    0.00000    0.84954
  1 Ru   -0.05330   -0.03077   -0.89790
  2 Ru   -0.00000   -0.00363   -0.00046
  3 Ru    0.01371    0.01319   -0.00920
  4 Ru   -0.03702   -0.00424    0.70478
  5 Ru    0.00000   -0.07921   -0.67088
  6 Ru   -0.00298   -0.00172    0.01581
  7 Ru    0.01828    0.00528   -0.00920
  8 Ru   -0.02219   -0.02994    0.70478
  9 Ru   -0.06860    0.03961   -0.67088
 10 Ru   -0.00315    0.00182   -0.00046
 11 Ru    0.00000    0.00000   -0.02317
 12 Ru    0.01484    0.03418    0.70478
 13 Ru    0.00000    0.01817   -0.62992
 14 Ru   -0.01625   -0.00938   -0.00695
 15 Ru   -0.01371    0.01319   -0.00920
 16 Ru    0.03702   -0.00424    0.70478
 17 Ru    0.01573   -0.00908   -0.62992
 18 Ru    0.00298   -0.00172    0.01581
 19 Ru    0.00000    0.00000    0.00786
 20 Ru    0.00000    0.00000    0.69045
 21 Ru    0.06860    0.03961   -0.67088
 22 Ru    0.00000    0.00344    0.01581
 23 Ru    0.00457   -0.01847   -0.00920
 24 Ru   -0.01484    0.03418    0.70478
 25 Ru    0.05330   -0.03077   -0.89790
 26 Ru    0.01625   -0.00938   -0.00695
 27 Ru    0.00000    0.00000   -0.00656
 28 Ru   -0.00000    0.00000    0.70025
 29 Ru   -0.01573   -0.00908   -0.62992
 30 Ru   -0.00000    0.01876   -0.00695
 31 Ru   -0.01828    0.00528   -0.00920
 32 Ru    0.02219   -0.02994    0.70478
 33 Ru   -0.00000    0.06155   -0.89790
 34 Ru    0.00315    0.00182   -0.00046
 35 Ru   -0.00457   -0.01847   -0.00920
 36 O    -0.00000    0.00000    0.04198
 37 H     0.00000    0.00000    0.00638

BFGS:    8 13:03:44    -5062.017206        0.0420
Timing:                                      incl.     excl.
-------------------------------------------------------------------
Density initialized from wave functions:     1.133     0.590   0.0% |
 Symmetrize density:                         0.543     0.543   0.0% |
Forces:                                    112.845   112.845   2.9% ||
Hamiltonian:                                22.185     0.001   0.0% |
 Atomic:                                     0.002     0.002   0.0% |
  XC Correction:                             0.000     0.000   0.0% |
 Calculate atomic Hamiltonians:              0.002     0.002   0.0% |
 Communicate:                                1.166     1.166   0.0% |
 Hartree integrate/restrict:                 0.021     0.021   0.0% |
 Initialize Hamiltonian:                     0.000     0.000   0.0% |
 Poisson:                                    0.472     0.013   0.0% |
  Communicate from 1D:                       0.078     0.078   0.0% |
  Communicate from 2D:                       0.075     0.075   0.0% |
  Communicate to 1D:                         0.066     0.066   0.0% |
  Communicate to 2D:                         0.090     0.090   0.0% |
  FFT 1D:                                    0.085     0.085   0.0% |
  FFT 2D:                                    0.065     0.065   0.0% |
 XC 3D grid:                                20.319     1.779   0.0% |
  VdW-DF integral:                          18.540     1.067   0.0% |
   Convolution:                              1.747     1.747   0.0% |
   FFT:                                      1.186     1.186   0.0% |
   gather:                                   3.733     3.733   0.1% |
   hmm1:                                     0.341     0.341   0.0% |
   hmm2:                                     0.725     0.725   0.0% |
   iFFT:                                     1.115     1.115   0.0% |
   potential:                                5.084     0.094   0.0% |
    collect:                                 0.426     0.426   0.0% |
    p1:                                      3.020     3.020   0.1% |
    p2:                                      1.073     1.073   0.0% |
    sum:                                     0.471     0.471   0.0% |
   splines:                                  3.543     3.543   0.1% |
 vbar:                                       0.201     0.201   0.0% |
LCAO initialization:                        24.926     1.225   0.0% |
 LCAO eigensolver:                          14.833     0.009   0.0% |
  Calculate projections:                     0.000     0.000   0.0% |
  DenseAtomicCorrection:                     0.000     0.000   0.0% |
  Distribute overlap matrix:                12.107    12.107   0.3% |
  Orbital Layouts:                           2.109     2.109   0.1% |
  Potential matrix:                          0.029     0.029   0.0% |
  Sum over cells:                            0.579     0.579   0.0% |
 LCAO to grid:                               7.784     7.784   0.2% |
 Set positions (LCAO WFS):                   1.084     0.712   0.0% |
  Basic WFS set positions:                   0.005     0.005   0.0% |
  Basis functions set positions:             0.000     0.000   0.0% |
  P tci:                                     0.001     0.001   0.0% |
  ST tci:                                    0.268     0.268   0.0% |
  mktci:                                     0.098     0.098   0.0% |
Redistribute:                                0.005     0.005   0.0% |
SCF-cycle:                                3353.343     0.694   0.0% |
 Davidson:                                3029.439   768.103  19.8% |-------|
  Apply hamiltonian:                        75.581    75.581   1.9% ||
  Subspace diag:                           339.494     0.051   0.0% |
   calc_h_matrix:                          160.993    87.392   2.2% ||
    Apply hamiltonian:                      73.601    73.601   1.9% ||
   diagonalize:                             18.137    18.137   0.5% |
   rotate_psi:                             160.313   160.313   4.1% |-|
  calc. matrices:                         1352.350   614.363  15.8% |-----|
   Apply hamiltonian:                      737.988   737.988  19.0% |-------|
  diagonalize:                             177.683   177.683   4.6% |-|
  rotate_psi:                              316.228   316.228   8.1% |--|
 Density:                                   15.026     0.003   0.0% |
  Atomic density matrices:                   0.676     0.676   0.0% |
  Mix:                                       0.479     0.479   0.0% |
  Multipole moments:                         0.019     0.019   0.0% |
  Pseudo density:                           13.849     4.293   0.1% |
   Symmetrize density:                       9.556     9.556   0.2% |
 Hamiltonian:                              280.273     0.013   0.0% |
  Atomic:                                    0.028     0.027   0.0% |
   XC Correction:                            0.000     0.000   0.0% |
  Calculate atomic Hamiltonians:             0.033     0.033   0.0% |
  Communicate:                              17.349    17.349   0.4% |
  Hartree integrate/restrict:                0.289     0.289   0.0% |
  Poisson:                                   7.075     0.174   0.0% |
   Communicate from 1D:                      1.159     1.159   0.0% |
   Communicate from 2D:                      1.124     1.124   0.0% |
   Communicate to 1D:                        0.987     0.987   0.0% |
   Communicate to 2D:                        1.371     1.371   0.0% |
   FFT 1D:                                   1.279     1.279   0.0% |
   FFT 2D:                                   0.980     0.980   0.0% |
  XC 3D grid:                              255.410    25.994   0.7% |
   VdW-DF integral:                        229.416    16.584   0.4% |
    Convolution:                            27.118    27.118   0.7% |
    FFT:                                    18.113    18.113   0.5% |
    gather:                                 58.710    58.710   1.5% ||
    hmm1:                                    5.093     5.093   0.1% |
    hmm2:                                   10.767    10.767   0.3% |
    iFFT:                                   17.057    17.057   0.4% |
    potential:                              75.975     1.508   0.0% |
     collect:                                6.330     6.330   0.2% |
     p1:                                    45.673    45.673   1.2% |
     p2:                                    16.176    16.176   0.4% |
     sum:                                    6.287     6.287   0.2% |
    splines:                                 0.001     0.001   0.0% |
  vbar:                                      0.076     0.076   0.0% |
 Orthonormalize:                            27.912     0.005   0.0% |
  calc_s_matrix:                             2.365     2.365   0.1% |
  inverse-cholesky:                         20.244    20.244   0.5% |
  projections:                               0.001     0.001   0.0% |
  rotate_psi_s:                              5.297     5.297   0.1% |
Set symmetry:                                0.003     0.003   0.0% |
Other:                                     372.690   372.690   9.6% |---|
-------------------------------------------------------------------
Total:                                              3887.130 100.0%

Memory usage: 1.23 GiB
Date: Tue Sep 26 13:03:44 2023
