
  ___ ___ ___ _ _ _  
 |   |   |_  | | | | 
 | | | | | . | | | | 
 |__ |  _|___|_____|  22.8.0
 |___|_|             

User:   s204775@c065.nifl.fysik.dtu.dk
Date:   Tue Sep 26 11:59:39 2023
Arch:   x86_64
Pid:    16070
CWD:    /home/cat/s204775/projects/Bachelor_project/OH_missing_features
Python: 3.10.4
gpaw:   /home/modules/software/GPAW/22.8.0-intel-2022a/lib/python3.10/site-packages/gpaw
_gpaw:  /home/modules/software/GPAW/22.8.0-intel-2022a/lib/python3.10/site-packages/
        _gpaw.cpython-310-x86_64-linux-gnu.so
ase:    /home/modules/software/ASE/3.22.1-intel-2022a/lib/python3.10/site-packages/ase (version 3.22.1)
numpy:  /home/modules/software/SciPy-bundle/2022.05-intel-2022a/lib/python3.10/site-packages/numpy (version 1.22.3)
scipy:  /home/modules/software/SciPy-bundle/2022.05-intel-2022a/lib/python3.10/site-packages/scipy (version 1.8.1)
libxc:  5.2.3
units:  Angstrom and eV
cores: 40
OpenMP: False
OMP_NUM_THREADS: 1

Input parameters:
  basis: dzp
  h: 0.18
  kpts: {size: (4, 4, 1)}
  xc: BEEF-vdW

System changes: positions, numbers, cell, pbc, initial_charges, initial_magmoms 

Initialize ...

species:
  Sn:
    name: Tin
    id: d1329c6b410f1e0bd923643368775dcd
    Z: 50.0
    valence: 14
    core: 36
    charge: 0.0
    file: /home/modules/software/GPAW-setups/0.9.20000/Sn.PBE.gz
    compensation charges: {type: gauss,
                           rc: 0.38,
                           lmax: 2}
    cutoffs: {filter: 2.23,
              core: 2.35}
    valence states:
      #              energy  rcut
      - 5s(2.00)   -10.538   1.201
      - 5p(2.00)    -3.696   1.270
      - 4d(10.00)   -25.845   1.185
      -  s          16.674   1.201
      -  p          23.515   1.270
      -  d           1.367   1.185
  
    # LCAO basis set for Sn:
    #   Name: dzp
    #   File: /home/modules/software/GPAW-setups/0.9.20000/Sn.dzp.basis.gz
    #   Number of radial functions: 7
    #   Number of spherical harmonics: 23
    #     l=0, rc=7.1250 Bohr: 5s-sz confined orbital
    #     l=1, rc=9.5469 Bohr: 5p-sz confined orbital
    #     l=2, rc=4.0625 Bohr: 4d-sz confined orbital
    #     l=0, rc=4.1250 Bohr: 5s-dz split-valence wave
    #     l=1, rc=5.6719 Bohr: 5p-dz split-valence wave
    #     l=2, rc=2.5938 Bohr: 4d-dz split-valence wave
    #     l=2, rc=9.5469 Bohr: d-type Gaussian polarization
    #   Number of RI-basis functions 0

  O:
    name: Oxygen
    id: 32ecd46bf208036f09c70b0ec9a88b78
    Z: 8.0
    valence: 6
    core: 2
    charge: 0.0
    file: /home/modules/software/GPAW-setups/0.9.20000/O.PBE.gz
    compensation charges: {type: gauss,
                           rc: 0.21,
                           lmax: 2}
    cutoffs: {filter: 1.17,
              core: 0.83}
    valence states:
      #              energy  rcut
      - 2s(2.00)   -23.961   0.688
      - 2p(4.00)    -9.029   0.598
      -  s           3.251   0.688
      -  p          18.182   0.598
      -  d           0.000   0.619
  
    # LCAO basis set for O:
    #   Name: dzp
    #   File: /home/modules/software/GPAW-setups/0.9.20000/O.dzp.basis.gz
    #   Number of radial functions: 5
    #   Number of spherical harmonics: 13
    #     l=0, rc=4.3438 Bohr: 2s-sz confined orbital
    #     l=1, rc=5.3906 Bohr: 2p-sz confined orbital
    #     l=0, rc=2.2969 Bohr: 2s-dz split-valence wave
    #     l=1, rc=2.8906 Bohr: 2p-dz split-valence wave
    #     l=2, rc=5.3906 Bohr: d-type Gaussian polarization
    #   Number of RI-basis functions 0

  H:
    name: Hydrogen
    id: d65de229564ff8ea4db303e23b6d1ecf
    Z: 1.0
    valence: 1
    core: 0
    charge: 0.0
    file: /home/modules/software/GPAW-setups/0.9.20000/H.PBE.gz
    compensation charges: {type: gauss,
                           rc: 0.15,
                           lmax: 2}
    cutoffs: {filter: 0.85,
              core: 0.53}
    valence states:
      #              energy  rcut
      - 1s(1.00)    -6.494   0.476
      -  s          20.717   0.476
      -  p           0.000   0.476
  
    # LCAO basis set for H:
    #   Name: dzp
    #   File: /home/modules/software/GPAW-setups/0.9.20000/H.dzp.basis.gz
    #   Number of radial functions: 3
    #   Number of spherical harmonics: 5
    #     l=0, rc=6.4219 Bohr: 1s-sz confined orbital
    #     l=0, rc=3.6094 Bohr: 1s-dz split-valence wave
    #     l=1, rc=6.4219 Bohr: p-type Gaussian polarization
    #   Number of RI-basis functions 0

Reference energy: -6050438.301519  # eV

Spin-paired calculation

Convergence criteria:
 Maximum [total energy] change in last 3 cyles: 0.0005 eV / electron
 Maximum integral of absolute [dens]ity change: 0.0001 electrons / valence electron
 Maximum integral of absolute [eigenst]ate change: 4e-08 eV^2 / valence electron
 Maximum number of scf [iter]ations: 333
 (Square brackets indicate name in SCF output, whereas a 'c' in
 the SCF output indicates the quantity has converged.)

Symmetries present (total): 1

  ( 1  0  0)
  ( 0  1  0)
  ( 0  0  1)

16 k-points: 4 x 4 x 1 Monkhorst-Pack grid
8 k-points in the irreducible part of the Brillouin zone
       k-points in crystal coordinates                weights
   0:     0.12500000   -0.37500000    0.00000000          2/16
   1:     0.12500000   -0.12500000    0.00000000          2/16
   2:     0.12500000    0.12500000    0.00000000          2/16
   3:     0.12500000    0.37500000    0.00000000          2/16
   4:     0.37500000   -0.37500000    0.00000000          2/16
   5:     0.37500000   -0.12500000    0.00000000          2/16
   6:     0.37500000    0.12500000    0.00000000          2/16
   7:     0.37500000    0.37500000    0.00000000          2/16

Wave functions: Uniform real-space grid
  Kinetic energy operator: 8*3+1=25 point O(h^6) finite-difference Laplacian
  ScaLapack parameters: grid=1x1, blocksize=None
  Wavefunction extrapolation:
    Improved wavefunction reuse through dual PAW basis 

Occupation numbers: Fermi-Dirac:
  width: 0.1000  # eV
 

Eigensolver
   Davidson(niter=2) 

Densities:
  Coarse grid: 48*48*156 grid
  Fine grid: 96*96*312 grid
  Total Charge: 0.000000 

Density mixing:
  Method: separate
  Backend: pulay
  Linear mixing parameter: 0.05
  old densities: 5
  Damping of long wavelength oscillations: 50 

Hamiltonian:
  XC and Coulomb potentials evaluated on a 96*96*312 grid
  Using the BEEF-vdW Exchange-Correlation functional
  Interpolation: tri-quintic (5. degree polynomial)
  Poisson solver: FastPoissonSolver using
    Stencil: 8*3+1=25 point O(h^6) finite-difference Laplacian
    FFT axes: [0, 1]
    FST axes: [2]
 

XC parameters: BEEF-vdW with 2 nearest neighbor stencil

Memory estimate:
  Process memory now: 234.55 MiB
  Calculator: 775.19 MiB
    Density: 57.94 MiB
      Arrays: 14.17 MiB
      Localized functions: 38.32 MiB
      Mixer: 5.45 MiB
    Hamiltonian: 12.12 MiB
      Arrays: 9.26 MiB
      XC: 0.00 MiB
      Poisson: 0.00 MiB
      vbar: 2.85 MiB
    Wavefunctions: 705.13 MiB
      Arrays psit_nG: 338.94 MiB
      Eigensolver: 359.16 MiB
      Projections: 0.63 MiB
      Projectors: 6.40 MiB

Total number of cores used: 40
Parallelization over k-points: 8
Domain decomposition: 1 x 1 x 5

Number of atoms: 38
Number of atomic orbitals: 846
Number of bands in calculation: 311
Number of valence electrons: 511
Bands to converge: occupied

... initialized

Initializing position-dependent things.

Density initialized from atomic densities
Creating initial wave functions:
  311 bands from LCAO basis set

                                                  
                                                  
                                                  
                                                  
                                                  
                                                  
                                                  
                     H                            
           Sn      SnO     Sn                     
                                                  
             Sn      Sn       Sn                  
            Sn      Sn      Sn                    
              SSn     SnSn     SSn                
                                                  
                 Sn      Sn      Sn               
               Sn       Sn      Sn                
                                                  
                  Sn      Sn      Sn              
                    Sn       Sn      Sn           
           Sn      Sn      Sn                     
                                                  
             Sn      Sn       Sn                  
               Sn       Sn      Sn                
                                                  
                                                  
                                                  
                                                  

Positions:
   0 Sn    -0.000000    0.000000   10.000000    ( 0.0000,  0.0000,  0.0000)
   1 Sn     1.710646    0.987642   12.793473    ( 0.0000,  0.0000,  0.0000)
   2 Sn     0.000000    1.975283   15.709250    ( 0.0000,  0.0000,  0.0000)
   3 Sn     0.000000    0.000000   18.391826    ( 0.0000,  0.0000,  0.0000)
   4 Sn    -1.710646    2.962925   10.000000    ( 0.0000,  0.0000,  0.0000)
   5 Sn    -0.000000    3.950567   12.793473    ( 0.0000,  0.0000,  0.0000)
   6 Sn    -1.710645    4.938209   15.709250    ( 0.0000,  0.0000,  0.0000)
   7 Sn    -1.710646    2.962925   18.391826    ( 0.0000,  0.0000,  0.0000)
   8 Sn    -3.421291    5.925850   10.000000    ( 0.0000,  0.0000,  0.0000)
   9 Sn    -1.710646    6.913492   12.793473    ( 0.0000,  0.0000,  0.0000)
  10 Sn    -3.421292    7.901134   15.709250    ( 0.0000,  0.0000,  0.0000)
  11 Sn    -3.421291    5.925850   18.391826    ( 0.0000,  0.0000,  0.0000)
  12 Sn     3.421291    0.000000   10.000000    ( 0.0000,  0.0000,  0.0000)
  13 Sn     5.131937    0.987642   12.793473    ( 0.0000,  0.0000,  0.0000)
  14 Sn     3.421292    1.975284   15.709250    ( 0.0000,  0.0000,  0.0000)
  15 Sn     3.421291    0.000000   18.391826    ( 0.0000,  0.0000,  0.0000)
  16 Sn     1.710646    2.962925   10.000000    ( 0.0000,  0.0000,  0.0000)
  17 Sn     3.421291    3.950567   12.793473    ( 0.0000,  0.0000,  0.0000)
  18 Sn     1.710645    4.938209   15.709250    ( 0.0000,  0.0000,  0.0000)
  19 Sn     1.710646    2.962925   18.391826    ( 0.0000,  0.0000,  0.0000)
  20 Sn    -0.000000    5.925850   10.000000    ( 0.0000,  0.0000,  0.0000)
  21 Sn     1.710646    6.913492   12.793473    ( 0.0000,  0.0000,  0.0000)
  22 Sn    -0.000000    7.901133   15.709250    ( 0.0000,  0.0000,  0.0000)
  23 Sn     0.000000    5.925850   18.391826    ( 0.0000,  0.0000,  0.0000)
  24 Sn     6.842582    0.000000   10.000000    ( 0.0000,  0.0000,  0.0000)
  25 Sn     8.553228    0.987642   12.793473    ( 0.0000,  0.0000,  0.0000)
  26 Sn     6.842582    1.975284   15.709250    ( 0.0000,  0.0000,  0.0000)
  27 Sn     6.842582    0.000000   18.391826    ( 0.0000,  0.0000,  0.0000)
  28 Sn     5.131937    2.962925   10.000000    ( 0.0000,  0.0000,  0.0000)
  29 Sn     6.842582    3.950567   12.793473    ( 0.0000,  0.0000,  0.0000)
  30 Sn     5.131937    4.938208   15.709250    ( 0.0000,  0.0000,  0.0000)
  31 Sn     5.131937    2.962925   18.391826    ( 0.0000,  0.0000,  0.0000)
  32 Sn     3.421291    5.925850   10.000000    ( 0.0000,  0.0000,  0.0000)
  33 Sn     5.131937    6.913492   12.793473    ( 0.0000,  0.0000,  0.0000)
  34 Sn     3.421292    7.901134   15.709250    ( 0.0000,  0.0000,  0.0000)
  35 Sn     3.421291    5.925850   18.391826    ( 0.0000,  0.0000,  0.0000)
  36 O      1.710646    2.962925   20.391826    ( 0.0000,  0.0000,  0.0000)
  37 H      1.710646    2.962925   21.351826    ( 0.0000,  0.0000,  0.0000)

Unit cell:
           periodic     x           y           z      points  spacing
  1. axis:    yes   10.263874    0.000000    0.000000    48     0.1852
  2. axis:    yes   -5.131937    8.888775    0.000000    48     0.1852
  3. axis:    no     0.000000    0.000000   28.380418   156     0.1819

  Lengths:  10.263874  10.263874  28.380418
  Angles:   90.000000  90.000000 120.000000

Effective grid spacing dv^(1/3) = 0.1931

     iter     time        total  log10-change:
                         energy  eigst   dens
iter:   1 12:00:49 -5910.221866
iter:   2 12:01:28 -5910.074940  -0.93  -1.60
iter:   3 12:02:06 -5909.246523  -1.20  -1.62
iter:   4 12:02:45 -5908.952967  -1.65  -1.71
iter:   5 12:03:24 -5909.609355  -1.54  -1.78
iter:   6 12:04:02 -5909.261532  -1.68  -1.77
iter:   7 12:04:41 -5909.110434  -1.71  -2.35
iter:   8 12:05:20 -5909.093759c -2.60  -2.54
iter:   9 12:05:59 -5909.082416c -2.90  -2.58
iter:  10 12:06:37 -5909.069930c -2.89  -2.62
iter:  11 12:07:16 -5909.060277c -3.33  -2.82
iter:  12 12:07:55 -5909.062418c -3.41  -2.87
iter:  13 12:08:33 -5909.059317c -3.77  -2.94
iter:  14 12:09:12 -5909.059124c -3.81  -3.07
iter:  15 12:09:50 -5909.058838c -4.30  -3.17
iter:  16 12:10:29 -5909.058597c -4.67  -3.25
iter:  17 12:11:08 -5909.058079c -4.95  -3.36
iter:  18 12:11:47 -5909.057773c -5.18  -3.43
iter:  19 12:12:25 -5909.057670c -5.61  -3.53
iter:  20 12:13:04 -5909.057605c -5.21  -3.61
iter:  21 12:13:43 -5909.057484c -5.29  -3.78
iter:  22 12:14:21 -5909.057477c -5.65  -3.97
iter:  23 12:15:00 -5909.057492c -5.99  -4.04c
iter:  24 12:15:39 -5909.057514c -6.16  -4.19c
iter:  25 12:16:17 -5909.057502c -6.58  -4.33c
iter:  26 12:16:56 -5909.057502c -6.97  -4.48c
iter:  27 12:17:35 -5909.057493c -6.77  -4.53c
iter:  28 12:18:14 -5909.057492c -7.17  -4.69c
iter:  29 12:18:53 -5909.057495c -7.16  -4.80c
iter:  30 12:19:31 -5909.057497c -7.44c -5.01c

Converged after 30 iterations.

Dipole moment: (-7.107101, -12.469919, -0.039465) |e|*Ang

Energy contributions relative to reference atoms: (reference = -6050438.301519)

Kinetic:       +938.082897
Potential:     -897.170445
External:        +0.000000
XC:            -5947.956769
Entropy (-ST):   -0.641442
Local:           -1.692458
--------------------------
Free energy:   -5909.378218
Extrapolated:  -5909.057497

Showing only first 2 kpts
 Kpt  Band  Eigenvalues  Occupancy
  0   253     -4.47511    1.73568
  0   254     -4.36198    1.35867
  0   255     -4.24473    0.79219
  0   256     -4.18142    0.51659

  1   253     -4.81326    1.98970
  1   254     -4.78882    1.98687
  1   255     -4.71946    1.97389
  1   256     -4.71651    1.97312


Fermi level: -4.28691

No gap

Forces in eV/Ang:
  0 Sn   -0.00026   -0.03319    0.13368
  1 Sn   -0.01460   -0.00545   -0.18168
  2 Sn   -0.14349   -0.10477   -0.25028
  3 Sn   -0.00444   -0.05724   -0.02139
  4 Sn   -0.01785   -0.00327    0.13269
  5 Sn   -0.01607    0.00928   -0.19108
  6 Sn    0.01786   -0.01031    0.01392
  7 Sn   -0.05632    0.03690   -0.02129
  8 Sn   -0.01344    0.00776    0.13589
  9 Sn   -0.01449    0.00938   -0.20906
 10 Sn    0.01600    0.00029    0.01675
 11 Sn   -0.00987    0.00570   -0.02488
 12 Sn    0.01211   -0.02350    0.12803
 13 Sn    0.01427   -0.00824   -0.13364
 14 Sn    0.16566   -0.09564   -0.25299
 15 Sn   -0.00701   -0.06283   -0.02459
 16 Sn    0.00859   -0.00496    0.17595
 17 Sn   -0.00258    0.01538   -0.18168
 18 Sn    0.01899    0.17665   -0.25028
 19 Sn   -0.00848    0.00489    0.32320
 20 Sn   -0.00609    0.01709    0.13269
 21 Sn   -0.01666    0.02401   -0.13650
 22 Sn   -0.00643   -0.01399    0.00303
 23 Sn   -0.06012    0.03033   -0.02129
 24 Sn    0.00180   -0.00104    0.12618
 25 Sn   -0.02912    0.00242   -0.13650
 26 Sn    0.00890    0.01256    0.00303
 27 Sn   -0.00962    0.00555   -0.01648
 28 Sn    0.02641    0.00127    0.12803
 29 Sn   -0.01537    0.00786   -0.20906
 30 Sn    0.00775   -0.01400    0.01675
 31 Sn    0.05091    0.03749   -0.02459
 32 Sn    0.02861    0.01682    0.13368
 33 Sn   -0.00448    0.00258   -0.22811
 34 Sn    0.03152   -0.01820    0.00770
 35 Sn    0.04735    0.03246   -0.02139
 36 O    -0.00097    0.00056    0.56309
 37 H     0.00086   -0.00050   -0.13052

      Step     Time          Energy         fmax
BFGS:    0 12:19:46    -5909.057497        0.5631
System changes: positions 

Initializing position-dependent things.

Density initialized from wave functions
                                                  
                                                  
                                                  
                                                  
                                                  
                                                  
                                                  
                     H                            
           Sn      SnO     Sn                     
                                                  
             Sn      Sn       Sn                  
            Sn      Sn      Sn                    
              SSn     SnSn     SSn                
                                                  
                 Sn      Sn      Sn               
               Sn       Sn      Sn                
                                                  
                  Sn      Sn      Sn              
                    Sn       Sn      Sn           
           Sn      Sn      Sn                     
                                                  
             Sn      Sn       Sn                  
               Sn       Sn      Sn                
                                                  
                                                  
                                                  
                                                  

Positions:
   0 Sn    -0.000000    0.000000   10.000000    ( 0.0000,  0.0000,  0.0000)
   1 Sn     1.710646    0.987642   12.793473    ( 0.0000,  0.0000,  0.0000)
   2 Sn    -0.002050    1.973786   15.705674    ( 0.0000,  0.0000,  0.0000)
   3 Sn    -0.000063   -0.000818   18.391520    ( 0.0000,  0.0000,  0.0000)
   4 Sn    -1.710646    2.962925   10.000000    ( 0.0000,  0.0000,  0.0000)
   5 Sn    -0.000000    3.950567   12.793473    ( 0.0000,  0.0000,  0.0000)
   6 Sn    -1.710390    4.938061   15.709449    ( 0.0000,  0.0000,  0.0000)
   7 Sn    -1.711450    2.963452   18.391522    ( 0.0000,  0.0000,  0.0000)
   8 Sn    -3.421291    5.925850   10.000000    ( 0.0000,  0.0000,  0.0000)
   9 Sn    -1.710646    6.913492   12.793473    ( 0.0000,  0.0000,  0.0000)
  10 Sn    -3.421063    7.901138   15.709489    ( 0.0000,  0.0000,  0.0000)
  11 Sn    -3.421432    5.925932   18.391471    ( 0.0000,  0.0000,  0.0000)
  12 Sn     3.421291    0.000000   10.000000    ( 0.0000,  0.0000,  0.0000)
  13 Sn     5.131937    0.987642   12.793473    ( 0.0000,  0.0000,  0.0000)
  14 Sn     3.423658    1.973917   15.705636    ( 0.0000,  0.0000,  0.0000)
  15 Sn     3.421191   -0.000898   18.391475    ( 0.0000,  0.0000,  0.0000)
  16 Sn     1.710646    2.962925   10.000000    ( 0.0000,  0.0000,  0.0000)
  17 Sn     3.421291    3.950567   12.793473    ( 0.0000,  0.0000,  0.0000)
  18 Sn     1.710917    4.940732   15.705674    ( 0.0000,  0.0000,  0.0000)
  19 Sn     1.710525    2.962995   18.396443    ( 0.0000,  0.0000,  0.0000)
  20 Sn    -0.000000    5.925850   10.000000    ( 0.0000,  0.0000,  0.0000)
  21 Sn     1.710646    6.913492   12.793473    ( 0.0000,  0.0000,  0.0000)
  22 Sn    -0.000092    7.900933   15.709293    ( 0.0000,  0.0000,  0.0000)
  23 Sn    -0.000859    5.926283   18.391522    ( 0.0000,  0.0000,  0.0000)
  24 Sn     6.842582    0.000000   10.000000    ( 0.0000,  0.0000,  0.0000)
  25 Sn     8.553228    0.987642   12.793473    ( 0.0000,  0.0000,  0.0000)
  26 Sn     6.842709    1.975463   15.709293    ( 0.0000,  0.0000,  0.0000)
  27 Sn     6.842445    0.000079   18.391591    ( 0.0000,  0.0000,  0.0000)
  28 Sn     5.131937    2.962925   10.000000    ( 0.0000,  0.0000,  0.0000)
  29 Sn     6.842582    3.950567   12.793473    ( 0.0000,  0.0000,  0.0000)
  30 Sn     5.132047    4.938008   15.709489    ( 0.0000,  0.0000,  0.0000)
  31 Sn     5.132664    2.963461   18.391475    ( 0.0000,  0.0000,  0.0000)
  32 Sn     3.421291    5.925850   10.000000    ( 0.0000,  0.0000,  0.0000)
  33 Sn     5.131937    6.913492   12.793473    ( 0.0000,  0.0000,  0.0000)
  34 Sn     3.421742    7.900874   15.709360    ( 0.0000,  0.0000,  0.0000)
  35 Sn     3.421968    5.926314   18.391520    ( 0.0000,  0.0000,  0.0000)
  36 O      1.710632    2.962933   20.399870    ( 0.0000,  0.0000,  0.0000)
  37 H      1.710658    2.962918   21.349961    ( 0.0000,  0.0000,  0.0000)

Unit cell:
           periodic     x           y           z      points  spacing
  1. axis:    yes   10.263874    0.000000    0.000000    48     0.1852
  2. axis:    yes   -5.131937    8.888775    0.000000    48     0.1852
  3. axis:    no     0.000000    0.000000   28.380418   156     0.1819

  Lengths:  10.263874  10.263874  28.380418
  Angles:   90.000000  90.000000 120.000000

Effective grid spacing dv^(1/3) = 0.1931

     iter     time        total  log10-change:
                         energy  eigst   dens
iter:   1 12:20:55 -5909.068006  -3.44
iter:   2 12:21:34 -5909.067106  -4.42  -3.30
iter:   3 12:22:13 -5909.066235c -5.11  -3.41
iter:   4 12:22:51 -5909.065786c -4.81  -3.71
iter:   5 12:23:30 -5909.065586c -5.11  -3.85
iter:   6 12:24:09 -5909.065641c -5.14  -4.10c
iter:   7 12:24:48 -5909.065546c -5.35  -4.09c
iter:   8 12:25:27 -5909.065528c -5.79  -4.28c
iter:   9 12:26:06 -5909.065536c -6.59  -4.34c
iter:  10 12:26:45 -5909.065520c -6.92  -4.59c
iter:  11 12:27:24 -5909.065523c -7.19  -4.72c
iter:  12 12:28:03 -5909.065519c -7.47c -4.87c

Converged after 12 iterations.

Dipole moment: (-7.117889, -12.383890, -0.045328) |e|*Ang

Energy contributions relative to reference atoms: (reference = -6050438.301519)

Kinetic:       +938.481785
Potential:     -897.477841
External:        +0.000000
XC:            -5948.059559
Entropy (-ST):   -0.641242
Local:           -1.689282
--------------------------
Free energy:   -5909.386140
Extrapolated:  -5909.065519

Showing only first 2 kpts
 Kpt  Band  Eigenvalues  Occupancy
  0   253     -4.47800    1.73513
  0   254     -4.36546    1.36017
  0   255     -4.24815    0.79356
  0   256     -4.18418    0.51515

  1   253     -4.81620    1.98968
  1   254     -4.79088    1.98673
  1   255     -4.72397    1.97424
  1   256     -4.72050    1.97335


Fermi level: -4.29004

No gap

Forces in eV/Ang:
  0 Sn   -0.00135   -0.03422    0.13303
  1 Sn   -0.01467   -0.00779   -0.18141
  2 Sn   -0.13134   -0.09730   -0.23878
  3 Sn   -0.00482   -0.05350   -0.01926
  4 Sn   -0.01956   -0.00354    0.13195
  5 Sn   -0.01799    0.01038   -0.19064
  6 Sn    0.01778   -0.01027    0.01086
  7 Sn   -0.05292    0.03401   -0.01939
  8 Sn   -0.01297    0.00749    0.13538
  9 Sn   -0.01499    0.00927   -0.20763
 10 Sn    0.01550    0.00004    0.01381
 11 Sn   -0.00983    0.00567   -0.01867
 12 Sn    0.01324   -0.02469    0.12752
 13 Sn    0.01630   -0.00941   -0.13313
 14 Sn    0.15328   -0.08850   -0.24133
 15 Sn   -0.00609   -0.05842   -0.02233
 16 Sn    0.00869   -0.00502    0.17494
 17 Sn   -0.00059    0.01660   -0.18141
 18 Sn    0.01860    0.16240   -0.23879
 19 Sn   -0.00789    0.00456    0.35625
 20 Sn   -0.00672    0.01871    0.13195
 21 Sn   -0.01672    0.02646   -0.13579
 22 Sn   -0.00583   -0.01347    0.00022
 23 Sn   -0.05591    0.02882   -0.01939
 24 Sn    0.00180   -0.00104    0.12328
 25 Sn   -0.03128    0.00125   -0.13579
 26 Sn    0.00875    0.01178    0.00022
 27 Sn   -0.00935    0.00540   -0.01273
 28 Sn    0.02800    0.00087    0.12752
 29 Sn   -0.01552    0.00835   -0.20763
 30 Sn    0.00771   -0.01344    0.01381
 31 Sn    0.04755    0.03449   -0.02232
 32 Sn    0.02896    0.01828    0.13303
 33 Sn   -0.00400    0.00231   -0.22643
 34 Sn    0.03077   -0.01777    0.00479
 35 Sn    0.04392    0.03092   -0.01926
 36 O    -0.00082    0.00047   -0.04802
 37 H     0.00087   -0.00050    0.39383

BFGS:    1 12:28:17    -5909.065519        0.3938
System changes: positions 

Initializing position-dependent things.

Density initialized from wave functions
                                                  
                                                  
                                                  
                                                  
                                                  
                                                  
                                                  
                     H                            
           Sn      SnO     Sn                     
                                                  
             Sn      Sn       Sn                  
            Sn      Sn      Sn                    
              SSn      SSn     SSn                
                                                  
                 Sn      Sn      Sn               
               Sn       Sn      Sn                
                                                  
                  Sn      Sn      Sn              
                    Sn       Sn      Sn           
           Sn      Sn      Sn                     
                                                  
             Sn      Sn       Sn                  
               Sn       Sn      Sn                
                                                  
                                                  
                                                  
                                                  

Positions:
   0 Sn    -0.000000    0.000000   10.000000    ( 0.0000,  0.0000,  0.0000)
   1 Sn     1.710646    0.987642   12.793473    ( 0.0000,  0.0000,  0.0000)
   2 Sn    -0.009106    1.968598   15.693117    ( 0.0000,  0.0000,  0.0000)
   3 Sn    -0.000301   -0.003661   18.390476    ( 0.0000,  0.0000,  0.0000)
   4 Sn    -1.710646    2.962925   10.000000    ( 0.0000,  0.0000,  0.0000)
   5 Sn    -0.000000    3.950567   12.793473    ( 0.0000,  0.0000,  0.0000)
   6 Sn    -1.709475    4.937533   15.710085    ( 0.0000,  0.0000,  0.0000)
   7 Sn    -1.714255    2.965273   18.390477    ( 0.0000,  0.0000,  0.0000)
   8 Sn    -3.421291    5.925850   10.000000    ( 0.0000,  0.0000,  0.0000)
   9 Sn    -1.710646    6.913492   12.793473    ( 0.0000,  0.0000,  0.0000)
  10 Sn    -3.420254    7.901146   15.710274    ( 0.0000,  0.0000,  0.0000)
  11 Sn    -3.421938    5.926224   18.390353    ( 0.0000,  0.0000,  0.0000)
  12 Sn     3.421291    0.000000   10.000000    ( 0.0000,  0.0000,  0.0000)
  13 Sn     5.131937    0.987642   12.793473    ( 0.0000,  0.0000,  0.0000)
  14 Sn     3.431847    1.969189   15.692943    ( 0.0000,  0.0000,  0.0000)
  15 Sn     3.420855   -0.004011   18.390270    ( 0.0000,  0.0000,  0.0000)
  16 Sn     1.710646    2.962925   10.000000    ( 0.0000,  0.0000,  0.0000)
  17 Sn     3.421291    3.950567   12.793473    ( 0.0000,  0.0000,  0.0000)
  18 Sn     1.711882    4.949437   15.693116    ( 0.0000,  0.0000,  0.0000)
  19 Sn     1.710104    2.963238   18.413894    ( 0.0000,  0.0000,  0.0000)
  20 Sn    -0.000000    5.925850   10.000000    ( 0.0000,  0.0000,  0.0000)
  21 Sn     1.710646    6.913492   12.793473    ( 0.0000,  0.0000,  0.0000)
  22 Sn    -0.000407    7.900228   15.709376    ( 0.0000,  0.0000,  0.0000)
  23 Sn    -0.003838    5.927802   18.390477    ( 0.0000,  0.0000,  0.0000)
  24 Sn     6.842582    0.000000   10.000000    ( 0.0000,  0.0000,  0.0000)
  25 Sn     8.553228    0.987642   12.793473    ( 0.0000,  0.0000,  0.0000)
  26 Sn     6.843162    1.976088   15.709376    ( 0.0000,  0.0000,  0.0000)
  27 Sn     6.841958    0.000361   18.390841    ( 0.0000,  0.0000,  0.0000)
  28 Sn     5.131937    2.962925   10.000000    ( 0.0000,  0.0000,  0.0000)
  29 Sn     6.842582    3.950567   12.793473    ( 0.0000,  0.0000,  0.0000)
  30 Sn     5.132444    4.937303   15.710274    ( 0.0000,  0.0000,  0.0000)
  31 Sn     5.135192    2.965309   18.390270    ( 0.0000,  0.0000,  0.0000)
  32 Sn     3.421291    5.925850   10.000000    ( 0.0000,  0.0000,  0.0000)
  33 Sn     5.131937    6.913492   12.793473    ( 0.0000,  0.0000,  0.0000)
  34 Sn     3.423341    7.899950   15.709680    ( 0.0000,  0.0000,  0.0000)
  35 Sn     3.424311    5.927941   18.390476    ( 0.0000,  0.0000,  0.0000)
  36 O      1.710586    2.962960   20.413038    ( 0.0000,  0.0000,  0.0000)
  37 H      1.710702    2.962892   21.356773    ( 0.0000,  0.0000,  0.0000)

Unit cell:
           periodic     x           y           z      points  spacing
  1. axis:    yes   10.263874    0.000000    0.000000    48     0.1852
  2. axis:    yes   -5.131937    8.888775    0.000000    48     0.1852
  3. axis:    no     0.000000    0.000000   28.380418   156     0.1819

  Lengths:  10.263874  10.263874  28.380418
  Angles:   90.000000  90.000000 120.000000

Effective grid spacing dv^(1/3) = 0.1931

     iter     time        total  log10-change:
                         energy  eigst   dens
iter:   1 12:29:26 -5909.086704  -2.65
iter:   2 12:30:04 -5909.086314  -3.63  -3.32
iter:   3 12:30:43 -5909.085494c -4.27  -3.43
iter:   4 12:31:22 -5909.084997c -4.44  -3.44
iter:   5 12:32:01 -5909.084777c -4.97  -3.65
iter:   6 12:32:40 -5909.084765c -5.46  -3.82
iter:   7 12:33:18 -5909.084790c -5.53  -3.88
iter:   8 12:33:57 -5909.084819c -5.67  -4.05c
iter:   9 12:34:36 -5909.084831c -5.88  -4.09c
iter:  10 12:35:15 -5909.084823c -6.46  -4.35c
iter:  11 12:35:53 -5909.084816c -7.04  -4.42c
iter:  12 12:36:32 -5909.084811c -7.25  -4.50c
iter:  13 12:37:11 -5909.084817c -6.86  -4.53c
iter:  14 12:37:50 -5909.084816c -7.51c -4.81c

Converged after 14 iterations.

Dipole moment: (-7.156395, -12.091311, -0.043884) |e|*Ang

Energy contributions relative to reference atoms: (reference = -6050438.301519)

Kinetic:       +938.667177
Potential:     -897.600013
External:        +0.000000
XC:            -5948.128098
Entropy (-ST):   -0.640405
Local:           -1.703679
--------------------------
Free energy:   -5909.405019
Extrapolated:  -5909.084816

Showing only first 2 kpts
 Kpt  Band  Eigenvalues  Occupancy
  0   253     -4.47549    1.73298
  0   254     -4.36528    1.36625
  0   255     -4.24761    0.79855
  0   256     -4.18161    0.51136

  1   253     -4.81480    1.98970
  1   254     -4.78499    1.98614
  1   255     -4.72672    1.97532
  1   256     -4.72161    1.97404


Fermi level: -4.28846

No gap

Forces in eV/Ang:
  0 Sn   -0.00321   -0.03537    0.13195
  1 Sn   -0.01482   -0.01122   -0.18222
  2 Sn   -0.09837   -0.07529   -0.20127
  3 Sn   -0.00344   -0.03640   -0.01758
  4 Sn   -0.02210   -0.00420    0.13089
  5 Sn   -0.02079    0.01201   -0.19047
  6 Sn    0.01915   -0.01106    0.00619
  7 Sn   -0.03638    0.02422   -0.01848
  8 Sn   -0.01169    0.00675    0.13683
  9 Sn   -0.01698    0.00828   -0.20971
 10 Sn    0.01389    0.00087    0.00981
 11 Sn   -0.00962    0.00555   -0.01193
 12 Sn    0.01520   -0.02611    0.12702
 13 Sn    0.01716   -0.00991   -0.13656
 14 Sn    0.11910   -0.06877   -0.20341
 15 Sn   -0.00603   -0.03975   -0.02041
 16 Sn    0.00872   -0.00503    0.17027
 17 Sn    0.00231    0.01845   -0.18222
 18 Sn    0.01602    0.12284   -0.20127
 19 Sn   -0.00702    0.00405    0.24792
 20 Sn   -0.00741    0.02124    0.13089
 21 Sn   -0.01672    0.02763   -0.13811
 22 Sn   -0.00535   -0.01274   -0.00056
 23 Sn   -0.03917    0.01940   -0.01848
 24 Sn    0.00195   -0.00113    0.11606
 25 Sn   -0.03229    0.00066   -0.13811
 26 Sn    0.00836    0.01101   -0.00056
 27 Sn   -0.00799    0.00461   -0.00995
 28 Sn    0.03021   -0.00011    0.12702
 29 Sn   -0.01566    0.01056   -0.20971
 30 Sn    0.00619   -0.01246    0.00981
 31 Sn    0.03141    0.02509   -0.02041
 32 Sn    0.02902    0.02047    0.13195
 33 Sn   -0.00209    0.00121   -0.22784
 34 Sn    0.02982   -0.01722    0.00367
 35 Sn    0.02980    0.02118   -0.01758
 36 O    -0.00016    0.00009   -0.46864
 37 H     0.00088   -0.00051    0.73912

BFGS:    2 12:38:04    -5909.084816        0.7391
System changes: positions 

Initializing position-dependent things.

Density initialized from wave functions
                                                  
                                                  
                                                  
                                                  
                                                  
                                                  
                                                  
                     H                            
                     O                            
           Sn      Sn      Sn                     
             Sn      Sn       Sn                  
            Sn      Sn      Sn                    
              SSn      SSn     SSn                
                                                  
                Sn       Sn      Sn               
               Sn       Sn      Sn                
                                                  
                  Sn      Sn      Sn              
                    Sn       Sn      Sn           
           Sn      Sn      Sn                     
                                                  
             Sn      Sn       Sn                  
               Sn       Sn      Sn                
                                                  
                                                  
                                                  
                                                  

Positions:
   0 Sn    -0.000000    0.000000   10.000000    ( 0.0000,  0.0000,  0.0000)
   1 Sn     1.710646    0.987642   12.793473    ( 0.0000,  0.0000,  0.0000)
   2 Sn    -0.028896    1.953970   15.657127    ( 0.0000,  0.0000,  0.0000)
   3 Sn    -0.000947   -0.011462   18.387411    ( 0.0000,  0.0000,  0.0000)
   4 Sn    -1.710646    2.962925   10.000000    ( 0.0000,  0.0000,  0.0000)
   5 Sn    -0.000000    3.950567   12.793473    ( 0.0000,  0.0000,  0.0000)
   6 Sn    -1.706689    4.935924   15.711820    ( 0.0000,  0.0000,  0.0000)
   7 Sn    -1.721962    2.970323   18.387380    ( 0.0000,  0.0000,  0.0000)
   8 Sn    -3.421291    5.925850   10.000000    ( 0.0000,  0.0000,  0.0000)
   9 Sn    -1.710646    6.913492   12.793473    ( 0.0000,  0.0000,  0.0000)
  10 Sn    -3.417905    7.901209   15.712478    ( 0.0000,  0.0000,  0.0000)
  11 Sn    -3.423437    5.927089   18.387232    ( 0.0000,  0.0000,  0.0000)
  12 Sn     3.421291    0.000000   10.000000    ( 0.0000,  0.0000,  0.0000)
  13 Sn     5.131937    0.987642   12.793473    ( 0.0000,  0.0000,  0.0000)
  14 Sn     3.454965    1.955842   15.656566    ( 0.0000,  0.0000,  0.0000)
  15 Sn     3.419844   -0.012559   18.386734    ( 0.0000,  0.0000,  0.0000)
  16 Sn     1.710646    2.962925   10.000000    ( 0.0000,  0.0000,  0.0000)
  17 Sn     3.421291    3.950567   12.793473    ( 0.0000,  0.0000,  0.0000)
  18 Sn     1.714655    4.973890   15.657127    ( 0.0000,  0.0000,  0.0000)
  19 Sn     1.708882    2.963944   18.460988    ( 0.0000,  0.0000,  0.0000)
  20 Sn    -0.000000    5.925850   10.000000    ( 0.0000,  0.0000,  0.0000)
  21 Sn     1.710646    6.913492   12.793473    ( 0.0000,  0.0000,  0.0000)
  22 Sn    -0.001332    7.898152   15.709624    ( 0.0000,  0.0000,  0.0000)
  23 Sn    -0.012064    5.931951   18.387380    ( 0.0000,  0.0000,  0.0000)
  24 Sn     6.842582    0.000000   10.000000    ( 0.0000,  0.0000,  0.0000)
  25 Sn     8.553228    0.987642   12.793473    ( 0.0000,  0.0000,  0.0000)
  26 Sn     6.844499    1.977928   15.709624    ( 0.0000,  0.0000,  0.0000)
  27 Sn     6.840560    0.001168   18.388680    ( 0.0000,  0.0000,  0.0000)
  28 Sn     5.131937    2.962925   10.000000    ( 0.0000,  0.0000,  0.0000)
  29 Sn     6.842582    3.950567   12.793473    ( 0.0000,  0.0000,  0.0000)
  30 Sn     5.133564    4.935238   15.712478    ( 0.0000,  0.0000,  0.0000)
  31 Sn     5.142090    2.970457   18.386734    ( 0.0000,  0.0000,  0.0000)
  32 Sn     3.421291    5.925850   10.000000    ( 0.0000,  0.0000,  0.0000)
  33 Sn     5.131937    6.913492   12.793473    ( 0.0000,  0.0000,  0.0000)
  34 Sn     3.428077    7.897216   15.710622    ( 0.0000,  0.0000,  0.0000)
  35 Sn     3.430744    5.932401   18.387411    ( 0.0000,  0.0000,  0.0000)
  36 O      1.710474    2.963024   20.441701    ( 0.0000,  0.0000,  0.0000)
  37 H      1.710835    2.962816   21.385505    ( 0.0000,  0.0000,  0.0000)

Unit cell:
           periodic     x           y           z      points  spacing
  1. axis:    yes   10.263874    0.000000    0.000000    48     0.1852
  2. axis:    yes   -5.131937    8.888775    0.000000    48     0.1852
  3. axis:    no     0.000000    0.000000   28.380418   156     0.1819

  Lengths:  10.263874  10.263874  28.380418
  Angles:   90.000000  90.000000 120.000000

Effective grid spacing dv^(1/3) = 0.1931

     iter     time        total  log10-change:
                         energy  eigst   dens
iter:   1 12:39:13 -5909.136383  -1.80
iter:   2 12:39:52 -5909.135745  -2.80  -2.94
iter:   3 12:40:31 -5909.132466c -3.47  -2.95
iter:   4 12:41:10 -5909.128146c -3.47  -3.08
iter:   5 12:41:49 -5909.127593c -4.54  -3.32
iter:   6 12:42:28 -5909.127543c -4.45  -3.43
iter:   7 12:43:06 -5909.128665c -4.24  -3.58
iter:   8 12:43:45 -5909.128291c -5.32  -3.56
iter:   9 12:44:24 -5909.127748c -4.80  -3.65
iter:  10 12:45:03 -5909.127812c -6.00  -3.89
iter:  11 12:45:42 -5909.128010c -5.43  -3.95
iter:  12 12:46:21 -5909.127988c -6.53  -3.95
iter:  13 12:47:00 -5909.127845c -5.71  -3.97
iter:  14 12:47:39 -5909.127892c -6.34  -4.21c
iter:  15 12:48:18 -5909.127828c -6.06  -4.12c
iter:  16 12:48:57 -5909.127830c -6.25  -4.37c
iter:  17 12:49:35 -5909.127846c -6.88  -4.53c
iter:  18 12:50:14 -5909.127844c -7.64c -4.71c

Converged after 18 iterations.

Dipole moment: (-7.273661, -11.296425, -0.027419) |e|*Ang

Energy contributions relative to reference atoms: (reference = -6050438.301519)

Kinetic:       +939.119544
Potential:     -898.038819
External:        +0.000000
XC:            -5948.188964
Entropy (-ST):   -0.637891
Local:           -1.700660
--------------------------
Free energy:   -5909.446790
Extrapolated:  -5909.127844

Showing only first 2 kpts
 Kpt  Band  Eigenvalues  Occupancy
  0   253     -4.46065    1.72877
  0   254     -4.35635    1.38391
  0   255     -4.23829    0.81643
  0   256     -4.16779    0.50838

  1   253     -4.80440    1.98996
  1   254     -4.75758    1.98402
  1   255     -4.72409    1.97773
  1   256     -4.71337    1.97525


Fermi level: -4.27543

No gap

Forces in eV/Ang:
  0 Sn   -0.00543   -0.03451    0.13325
  1 Sn   -0.01558   -0.01743   -0.19158
  2 Sn   -0.03401   -0.03171   -0.10731
  3 Sn   -0.00387    0.00053   -0.01537
  4 Sn   -0.02391   -0.00555    0.13251
  5 Sn   -0.02534    0.01463   -0.19676
  6 Sn    0.01970   -0.01138   -0.00889
  7 Sn   -0.00290   -0.00129   -0.01746
  8 Sn   -0.00866    0.00500    0.14083
  9 Sn   -0.02057    0.00622   -0.21176
 10 Sn    0.00935   -0.00120   -0.00338
 11 Sn   -0.00856    0.00494    0.01062
 12 Sn    0.01704   -0.02637    0.13021
 13 Sn    0.02436   -0.01406   -0.14765
 14 Sn    0.05073   -0.02929   -0.10847
 15 Sn   -0.00160    0.00083   -0.01660
 16 Sn    0.00863   -0.00498    0.16655
 17 Sn    0.00730    0.02221   -0.19158
 18 Sn    0.01046    0.04531   -0.10731
 19 Sn   -0.00967    0.00558   -0.05717
 20 Sn   -0.00715    0.02348    0.13251
 21 Sn   -0.01652    0.03520   -0.14580
 22 Sn   -0.00036   -0.00972   -0.00529
 23 Sn   -0.00033    0.00315   -0.01746
 24 Sn    0.00238   -0.00137    0.10287
 25 Sn   -0.03875   -0.00329   -0.14580
 26 Sn    0.00824    0.00517   -0.00529
 27 Sn   -0.00328    0.00189   -0.00288
 28 Sn    0.03135   -0.00158    0.13021
 29 Sn   -0.01567    0.01471   -0.21176
 30 Sn    0.00572   -0.00750   -0.00338
 31 Sn   -0.00152    0.00096   -0.01660
 32 Sn    0.02717    0.02196    0.13325
 33 Sn    0.00171   -0.00099   -0.22777
 34 Sn    0.02509   -0.01449   -0.00021
 35 Sn   -0.00239    0.00309   -0.01537
 36 O     0.00129   -0.00075   -0.17050
 37 H     0.00111   -0.00064    0.74570

BFGS:    3 12:50:29    -5909.127844        0.7457
System changes: positions 

Initializing position-dependent things.

Density initialized from wave functions
                                                  
                                                  
                                                  
                                                  
                                                  
                                                  
                                                  
                     H                            
                     O                            
           Sn      Sn      Sn                     
             Sn      Sn       Sn                  
            Sn      Sn      Sn                    
              SSn       Sn     SSn                
                       Sn                         
                Sn       Sn      Sn               
               Sn       Sn      Sn                
                                                  
                  Sn      Sn      Sn              
                    Sn       Sn      Sn           
           Sn      Sn      Sn                     
                                                  
             Sn      Sn       Sn                  
               Sn       Sn      Sn                
                                                  
                                                  
                                                  
                                                  

Positions:
   0 Sn    -0.000000    0.000000   10.000000    ( 0.0000,  0.0000,  0.0000)
   1 Sn     1.710646    0.987642   12.793473    ( 0.0000,  0.0000,  0.0000)
   2 Sn    -0.056018    1.933768   15.606823    ( 0.0000,  0.0000,  0.0000)
   3 Sn    -0.001916   -0.021756   18.382936    ( 0.0000,  0.0000,  0.0000)
   4 Sn    -1.710646    2.962925   10.000000    ( 0.0000,  0.0000,  0.0000)
   5 Sn    -0.000000    3.950567   12.793473    ( 0.0000,  0.0000,  0.0000)
   6 Sn    -1.702504    4.933508   15.713870    ( 0.0000,  0.0000,  0.0000)
   7 Sn    -1.732232    2.976942   18.382811    ( 0.0000,  0.0000,  0.0000)
   8 Sn    -3.421291    5.925850   10.000000    ( 0.0000,  0.0000,  0.0000)
   9 Sn    -1.710646    6.913492   12.793473    ( 0.0000,  0.0000,  0.0000)
  10 Sn    -3.414562    7.901242   15.715295    ( 0.0000,  0.0000,  0.0000)
  11 Sn    -3.425637    5.928359   18.383391    ( 0.0000,  0.0000,  0.0000)
  12 Sn     3.421291    0.000000   10.000000    ( 0.0000,  0.0000,  0.0000)
  13 Sn     5.131937    0.987642   12.793473    ( 0.0000,  0.0000,  0.0000)
  14 Sn     3.486911    1.937397   15.605720    ( 0.0000,  0.0000,  0.0000)
  15 Sn     3.418486   -0.023833   18.381611    ( 0.0000,  0.0000,  0.0000)
  16 Sn     1.710646    2.962925   10.000000    ( 0.0000,  0.0000,  0.0000)
  17 Sn     3.421291    3.950567   12.793473    ( 0.0000,  0.0000,  0.0000)
  18 Sn     1.718590    5.007479   15.606823    ( 0.0000,  0.0000,  0.0000)
  19 Sn     1.706983    2.965040   18.520795    ( 0.0000,  0.0000,  0.0000)
  20 Sn    -0.000000    5.925850   10.000000    ( 0.0000,  0.0000,  0.0000)
  21 Sn     1.710646    6.913492   12.793473    ( 0.0000,  0.0000,  0.0000)
  22 Sn    -0.002544    7.895160   15.709818    ( 0.0000,  0.0000,  0.0000)
  23 Sn    -0.022932    5.937536   18.382812    ( 0.0000,  0.0000,  0.0000)
  24 Sn     6.842582    0.000000   10.000000    ( 0.0000,  0.0000,  0.0000)
  25 Sn     8.553228    0.987642   12.793473    ( 0.0000,  0.0000,  0.0000)
  26 Sn     6.846484    1.980473   15.709818    ( 0.0000,  0.0000,  0.0000)
  27 Sn     6.838638    0.002278   18.385727    ( 0.0000,  0.0000,  0.0000)
  28 Sn     5.131937    2.962925   10.000000    ( 0.0000,  0.0000,  0.0000)
  29 Sn     6.842582    3.950567   12.793473    ( 0.0000,  0.0000,  0.0000)
  30 Sn     5.135207    4.932327   15.715295    ( 0.0000,  0.0000,  0.0000)
  31 Sn     5.151174    2.977271   18.381611    ( 0.0000,  0.0000,  0.0000)
  32 Sn     3.421291    5.925850   10.000000    ( 0.0000,  0.0000,  0.0000)
  33 Sn     5.131937    6.913492   12.793473    ( 0.0000,  0.0000,  0.0000)
  34 Sn     3.434978    7.893231   15.711876    ( 0.0000,  0.0000,  0.0000)
  35 Sn     3.439174    5.938387   18.382936    ( 0.0000,  0.0000,  0.0000)
  36 O      1.710361    2.963089   20.486959    ( 0.0000,  0.0000,  0.0000)
  37 H      1.711041    2.962697   21.434495    ( 0.0000,  0.0000,  0.0000)

Unit cell:
           periodic     x           y           z      points  spacing
  1. axis:    yes   10.263874    0.000000    0.000000    48     0.1852
  2. axis:    yes   -5.131937    8.888775    0.000000    48     0.1852
  3. axis:    no     0.000000    0.000000   28.380418   156     0.1819

  Lengths:  10.263874  10.263874  28.380418
  Angles:   90.000000  90.000000 120.000000

Effective grid spacing dv^(1/3) = 0.1931

     iter     time        total  log10-change:
                         energy  eigst   dens
iter:   1 12:51:38 -5909.162798  -1.54
iter:   2 12:52:17 -5909.164015  -2.55  -2.83
iter:   3 12:52:56 -5909.158078c -3.19  -2.85
iter:   4 12:53:35 -5909.153795c -3.34  -2.97
iter:   5 12:54:14 -5909.152981c -4.24  -3.19
iter:   6 12:54:53 -5909.153143c -4.23  -3.30
iter:   7 12:55:32 -5909.153859c -4.42  -3.46
iter:   8 12:56:10 -5909.153628c -5.26  -3.53
iter:   9 12:56:49 -5909.153558c -5.04  -3.63
iter:  10 12:57:28 -5909.153720c -5.77  -3.79
iter:  11 12:58:07 -5909.153794c -5.65  -3.81
iter:  12 12:58:46 -5909.153783c -6.54  -4.02c
iter:  13 12:59:25 -5909.153687c -5.54  -4.04c
iter:  14 13:00:04 -5909.153723c -6.00  -4.22c
iter:  15 13:00:43 -5909.153702c -6.66  -4.38c
iter:  16 13:01:22 -5909.153703c -6.91  -4.53c
iter:  17 13:02:00 -5909.153714c -7.17  -4.66c
iter:  18 13:02:39 -5909.153715c -7.46c -4.73c

Converged after 18 iterations.

Dipole moment: (-7.436034, -10.252057, -0.014320) |e|*Ang

Energy contributions relative to reference atoms: (reference = -6050438.301519)

Kinetic:       +939.834519
Potential:     -898.709633
External:        +0.000000
XC:            -5948.263905
Entropy (-ST):   -0.634269
Local:           -1.697562
--------------------------
Free energy:   -5909.470850
Extrapolated:  -5909.153715

Showing only first 2 kpts
 Kpt  Band  Eigenvalues  Occupancy
  0   253     -4.44710    1.72861
  0   254     -4.34796    1.40538
  0   255     -4.23134    0.84819
  0   256     -4.15682    0.51798

  1   253     -4.79601    1.99046
  1   254     -4.73046    1.98171
  1   255     -4.72148    1.98000
  1   256     -4.69217    1.97329


Fermi level: -4.26194

No gap

Forces in eV/Ang:
  0 Sn   -0.00694   -0.03183    0.13902
  1 Sn   -0.01619   -0.02889   -0.21568
  2 Sn    0.06768    0.03687    0.00758
  3 Sn   -0.00781    0.03985   -0.01351
  4 Sn   -0.02523   -0.00684    0.13866
  5 Sn   -0.03388    0.01956   -0.21536
  6 Sn    0.01766   -0.01019   -0.02537
  7 Sn    0.02779   -0.03208   -0.01498
  8 Sn   -0.00469    0.00271    0.14466
  9 Sn   -0.02553    0.00296   -0.21233
 10 Sn    0.00449   -0.01006   -0.01794
 11 Sn   -0.00601    0.00347    0.04406
 12 Sn    0.01802   -0.02553    0.13852
 13 Sn    0.04603   -0.02658   -0.17292
 14 Sn   -0.06139    0.03545    0.01201
 15 Sn    0.00769    0.04289   -0.01140
 16 Sn    0.00924   -0.00533    0.17003
 17 Sn    0.01693    0.02847   -0.21568
 18 Sn    0.00190   -0.07705    0.00758
 19 Sn    0.00253   -0.00146   -0.31938
 20 Sn   -0.00669    0.02527    0.13866
 21 Sn   -0.01649    0.05771   -0.16567
 22 Sn    0.01126   -0.00507   -0.00779
 23 Sn    0.04168   -0.00803   -0.01498
 24 Sn    0.00180   -0.00104    0.09100
 25 Sn   -0.05822   -0.01458   -0.16567
 26 Sn    0.01002   -0.00722   -0.00779
 27 Sn    0.00439   -0.00253    0.00571
 28 Sn    0.03112   -0.00284    0.13852
 29 Sn   -0.01533    0.02063   -0.21233
 30 Sn    0.01096    0.00114   -0.01794
 31 Sn   -0.03330   -0.02810   -0.01141
 32 Sn    0.02410    0.02193    0.13902
 33 Sn    0.00796   -0.00460   -0.22537
 34 Sn    0.01874   -0.01082    0.00154
 35 Sn   -0.03842   -0.01316   -0.01351
 36 O     0.00302   -0.00175    0.30500
 37 H     0.00058   -0.00033    0.49000

BFGS:    4 13:02:53    -5909.153715        0.4900
System changes: positions 

Initializing position-dependent things.

Density initialized from wave functions
                                                  
                                                  
                                                  
                                                  
                                                  
                                                  
                                                  
                     H                            
                     O                            
           Sn      Sn      Sn                     
             Sn      Sn       Sn                  
            Sn      Sn      Sn                    
              SSn       Sn     SSn                
                       Sn                         
                Sn       Sn      Sn               
               Sn       Sn      Sn                
                                                  
                  Sn      Sn      Sn              
                    Sn       Sn      Sn           
           Sn      Sn      Sn                     
                                                  
             Sn      Sn       Sn                  
               Sn       Sn      Sn                
                                                  
                                                  
                                                  
                                                  

Positions:
   0 Sn    -0.000000    0.000000   10.000000    ( 0.0000,  0.0000,  0.0000)
   1 Sn     1.710646    0.987642   12.793473    ( 0.0000,  0.0000,  0.0000)
   2 Sn    -0.061480    1.929493   15.594851    ( 0.0000,  0.0000,  0.0000)
   3 Sn    -0.002274   -0.023639   18.381655    ( 0.0000,  0.0000,  0.0000)
   4 Sn    -1.710646    2.962925   10.000000    ( 0.0000,  0.0000,  0.0000)
   5 Sn    -0.000000    3.950567   12.793473    ( 0.0000,  0.0000,  0.0000)
   6 Sn    -1.701238    4.932776   15.713981    ( 0.0000,  0.0000,  0.0000)
   7 Sn    -1.734299    2.978048   18.381489    ( 0.0000,  0.0000,  0.0000)
   8 Sn    -3.421291    5.925850   10.000000    ( 0.0000,  0.0000,  0.0000)
   9 Sn    -1.710646    6.913492   12.793473    ( 0.0000,  0.0000,  0.0000)
  10 Sn    -3.413690    7.901086   15.715701    ( 0.0000,  0.0000,  0.0000)
  11 Sn    -3.426255    5.928716   18.383146    ( 0.0000,  0.0000,  0.0000)
  12 Sn     3.421291    0.000000   10.000000    ( 0.0000,  0.0000,  0.0000)
  13 Sn     5.131937    0.987642   12.793473    ( 0.0000,  0.0000,  0.0000)
  14 Sn     3.493618    1.933525   15.593691    ( 0.0000,  0.0000,  0.0000)
  15 Sn     3.418283   -0.025908   18.380208    ( 0.0000,  0.0000,  0.0000)
  16 Sn     1.710646    2.962925   10.000000    ( 0.0000,  0.0000,  0.0000)
  17 Sn     3.421291    3.950567   12.793473    ( 0.0000,  0.0000,  0.0000)
  18 Sn     1.719562    5.014347   15.594851    ( 0.0000,  0.0000,  0.0000)
  19 Sn     1.706589    2.965268   18.530510    ( 0.0000,  0.0000,  0.0000)
  20 Sn    -0.000000    5.925850   10.000000    ( 0.0000,  0.0000,  0.0000)
  21 Sn     1.710646    6.913492   12.793473    ( 0.0000,  0.0000,  0.0000)
  22 Sn    -0.002654    7.894366   15.709751    ( 0.0000,  0.0000,  0.0000)
  23 Sn    -0.024923    5.938773   18.381489    ( 0.0000,  0.0000,  0.0000)
  24 Sn     6.842582    0.000000   10.000000    ( 0.0000,  0.0000,  0.0000)
  25 Sn     8.553228    0.987642   12.793473    ( 0.0000,  0.0000,  0.0000)
  26 Sn     6.847116    1.980966   15.709751    ( 0.0000,  0.0000,  0.0000)
  27 Sn     6.838246    0.002504   18.385104    ( 0.0000,  0.0000,  0.0000)
  28 Sn     5.131937    2.962925   10.000000    ( 0.0000,  0.0000,  0.0000)
  29 Sn     6.842582    3.950567   12.793473    ( 0.0000,  0.0000,  0.0000)
  30 Sn     5.135778    4.931650   15.715701    ( 0.0000,  0.0000,  0.0000)
  31 Sn     5.152870    2.978484   18.380209    ( 0.0000,  0.0000,  0.0000)
  32 Sn     3.421291    5.925850   10.000000    ( 0.0000,  0.0000,  0.0000)
  33 Sn     5.131937    6.913492   12.793473    ( 0.0000,  0.0000,  0.0000)
  34 Sn     3.436918    7.892111   15.712211    ( 0.0000,  0.0000,  0.0000)
  35 Sn     3.440626    5.939639   18.381655    ( 0.0000,  0.0000,  0.0000)
  36 O      1.710379    2.963079   20.503102    ( 0.0000,  0.0000,  0.0000)
  37 H      1.711098    2.962664   21.452936    ( 0.0000,  0.0000,  0.0000)

Unit cell:
           periodic     x           y           z      points  spacing
  1. axis:    yes   10.263874    0.000000    0.000000    48     0.1852
  2. axis:    yes   -5.131937    8.888775    0.000000    48     0.1852
  3. axis:    no     0.000000    0.000000   28.380418   156     0.1819

  Lengths:  10.263874  10.263874  28.380418
  Angles:   90.000000  90.000000 120.000000

Effective grid spacing dv^(1/3) = 0.1931

     iter     time        total  log10-change:
                         energy  eigst   dens
iter:   1 13:04:03 -5909.162136  -2.74
iter:   2 13:04:42 -5909.161107  -3.75  -3.28
iter:   3 13:05:20 -5909.160454c -4.46  -3.30
iter:   4 13:05:59 -5909.159745c -4.45  -3.53
iter:   5 13:06:38 -5909.159721c -5.04  -3.72
iter:   6 13:07:17 -5909.159746c -5.39  -3.90
iter:   7 13:07:56 -5909.159733c -5.66  -4.00c
iter:   8 13:08:35 -5909.159776c -6.19  -4.15c
iter:   9 13:09:14 -5909.159792c -6.35  -4.15c
iter:  10 13:09:53 -5909.159800c -6.64  -4.29c
iter:  11 13:10:31 -5909.159787c -7.21  -4.52c
iter:  12 13:11:10 -5909.159777c -7.12  -4.68c
iter:  13 13:11:49 -5909.159780c -7.44c -4.85c

Converged after 13 iterations.

Dipole moment: (-7.431040, -10.069261, -0.022204) |e|*Ang

Energy contributions relative to reference atoms: (reference = -6050438.301519)

Kinetic:       +939.583973
Potential:     -898.520011
External:        +0.000000
XC:            -5948.208968
Entropy (-ST):   -0.633664
Local:           -1.697942
--------------------------
Free energy:   -5909.476612
Extrapolated:  -5909.159780

Showing only first 2 kpts
 Kpt  Band  Eigenvalues  Occupancy
  0   253     -4.45114    1.72953
  0   254     -4.35242    1.40876
  0   255     -4.23680    0.85701
  0   256     -4.16126    0.52099

  1   253     -4.80070    1.99056
  1   254     -4.73309    1.98152
  1   255     -4.72675    1.98032
  1   256     -4.69120    1.97204


Fermi level: -4.26560

No gap

Forces in eV/Ang:
  0 Sn   -0.00971   -0.03386    0.13564
  1 Sn   -0.01597   -0.03570   -0.21690
  2 Sn    0.09319    0.04556    0.03576
  3 Sn   -0.00849    0.04802   -0.00835
  4 Sn   -0.02947   -0.00786    0.13514
  5 Sn   -0.03933    0.02271   -0.21526
  6 Sn    0.01684   -0.00972   -0.03385
  7 Sn    0.03346   -0.03776   -0.00989
  8 Sn   -0.00335    0.00193    0.14172
  9 Sn   -0.02622    0.00265   -0.20778
 10 Sn    0.00383   -0.01210   -0.02680
 11 Sn   -0.00476    0.00275    0.05409
 12 Sn    0.02124   -0.02799    0.13552
 13 Sn    0.05141   -0.02968   -0.17704
 14 Sn   -0.08037    0.04641    0.03898
 15 Sn    0.00986    0.05123   -0.00616
 16 Sn    0.00969   -0.00559    0.16458
 17 Sn    0.02293    0.03168   -0.21690
 18 Sn    0.00713   -0.10348    0.03576
 19 Sn    0.00613   -0.00354   -0.21561
 20 Sn   -0.00793    0.02945    0.13514
 21 Sn   -0.01624    0.06370   -0.16847
 22 Sn    0.01315   -0.00389   -0.01408
 23 Sn    0.04943   -0.01010   -0.00989
 24 Sn    0.00096   -0.00055    0.08091
 25 Sn   -0.06329   -0.01779   -0.16847
 26 Sn    0.00994   -0.00944   -0.01408
 27 Sn    0.00582   -0.00336    0.01260
 28 Sn    0.03486   -0.00440    0.13552
 29 Sn   -0.01540    0.02139   -0.20778
 30 Sn    0.01240    0.00274   -0.02680
 31 Sn   -0.03944   -0.03416   -0.00616
 32 Sn    0.02447    0.02534    0.13564
 33 Sn    0.00894   -0.00516   -0.21996
 34 Sn    0.01801   -0.01040   -0.00377
 35 Sn   -0.04583   -0.01665   -0.00835
 36 O     0.00420   -0.00242    0.23399
 37 H     0.00037   -0.00021    0.35278

BFGS:    5 13:12:04    -5909.159780        0.3528
System changes: positions 

Initializing position-dependent things.

Density initialized from wave functions
                                                  
                                                  
                                                  
                                                  
                                                  
                                                  
                                                  
                     H                            
                     O                            
           Sn      Sn      Sn                     
             Sn      Sn       Sn                  
            Sn      Sn      Sn                    
              SSn       Sn     SSn                
                       Sn                         
                Sn       Sn      Sn               
               Sn       Sn      Sn                
                                                  
                  Sn      Sn      Sn              
                    Sn       Sn      Sn           
           Sn      Sn      Sn                     
                                                  
             Sn      Sn       Sn                  
               Sn       Sn      Sn                
                                                  
                                                  
                                                  
                                                  

Positions:
   0 Sn    -0.000000    0.000000   10.000000    ( 0.0000,  0.0000,  0.0000)
   1 Sn     1.710646    0.987642   12.793473    ( 0.0000,  0.0000,  0.0000)
   2 Sn    -0.060462    1.929432   15.591586    ( 0.0000,  0.0000,  0.0000)
   3 Sn    -0.002684   -0.022750   18.380885    ( 0.0000,  0.0000,  0.0000)
   4 Sn    -1.710646    2.962925   10.000000    ( 0.0000,  0.0000,  0.0000)
   5 Sn    -0.000000    3.950567   12.793473    ( 0.0000,  0.0000,  0.0000)
   6 Sn    -1.700212    4.932184   15.712932    ( 0.0000,  0.0000,  0.0000)
   7 Sn    -1.733952    2.977211   18.380653    ( 0.0000,  0.0000,  0.0000)
   8 Sn    -3.421291    5.925850   10.000000    ( 0.0000,  0.0000,  0.0000)
   9 Sn    -1.710646    6.913492   12.793473    ( 0.0000,  0.0000,  0.0000)
  10 Sn    -3.413244    7.900635   15.714997    ( 0.0000,  0.0000,  0.0000)
  11 Sn    -3.426643    5.928940   18.384817    ( 0.0000,  0.0000,  0.0000)
  12 Sn     3.421291    0.000000   10.000000    ( 0.0000,  0.0000,  0.0000)
  13 Sn     5.131937    0.987642   12.793473    ( 0.0000,  0.0000,  0.0000)
  14 Sn     3.493443    1.933626   15.590520    ( 0.0000,  0.0000,  0.0000)
  15 Sn     3.418529   -0.024983   18.379468    ( 0.0000,  0.0000,  0.0000)
  16 Sn     1.710646    2.962925   10.000000    ( 0.0000,  0.0000,  0.0000)
  17 Sn     3.421291    3.950567   12.793473    ( 0.0000,  0.0000,  0.0000)
  18 Sn     1.720123    5.013496   15.591586    ( 0.0000,  0.0000,  0.0000)
  19 Sn     1.706632    2.965243   18.526210    ( 0.0000,  0.0000,  0.0000)
  20 Sn    -0.000000    5.925850   10.000000    ( 0.0000,  0.0000,  0.0000)
  21 Sn     1.710646    6.913492   12.793473    ( 0.0000,  0.0000,  0.0000)
  22 Sn    -0.002264    7.893944   15.709289    ( 0.0000,  0.0000,  0.0000)
  23 Sn    -0.024025    5.938891   18.380654    ( 0.0000,  0.0000,  0.0000)
  24 Sn     6.842582    0.000000   10.000000    ( 0.0000,  0.0000,  0.0000)
  25 Sn     8.553228    0.987642   12.793473    ( 0.0000,  0.0000,  0.0000)
  26 Sn     6.847678    1.980839   15.709289    ( 0.0000,  0.0000,  0.0000)
  27 Sn     6.838292    0.002477   18.385265    ( 0.0000,  0.0000,  0.0000)
  28 Sn     5.131937    2.962925   10.000000    ( 0.0000,  0.0000,  0.0000)
  29 Sn     6.842582    3.950567   12.793473    ( 0.0000,  0.0000,  0.0000)
  30 Sn     5.136392    4.931489   15.714997    ( 0.0000,  0.0000,  0.0000)
  31 Sn     5.152191    2.977808   18.379469    ( 0.0000,  0.0000,  0.0000)
  32 Sn     3.421291    5.925850   10.000000    ( 0.0000,  0.0000,  0.0000)
  33 Sn     5.131937    6.913492   12.793473    ( 0.0000,  0.0000,  0.0000)
  34 Sn     3.438225    7.891357   15.712234    ( 0.0000,  0.0000,  0.0000)
  35 Sn     3.439651    5.939550   18.380885    ( 0.0000,  0.0000,  0.0000)
  36 O      1.710520    2.962997   20.517192    ( 0.0000,  0.0000,  0.0000)
  37 H      1.711132    2.962645   21.472125    ( 0.0000,  0.0000,  0.0000)

Unit cell:
           periodic     x           y           z      points  spacing
  1. axis:    yes   10.263874    0.000000    0.000000    48     0.1852
  2. axis:    yes   -5.131937    8.888775    0.000000    48     0.1852
  3. axis:    no     0.000000    0.000000   28.380418   156     0.1819

  Lengths:  10.263874  10.263874  28.380418
  Angles:   90.000000  90.000000 120.000000

Effective grid spacing dv^(1/3) = 0.1931

     iter     time        total  log10-change:
                         energy  eigst   dens
iter:   1 13:13:13 -5909.179016  -3.09
iter:   2 13:13:52 -5909.173934  -4.04  -3.00
iter:   3 13:14:31 -5909.170174c -4.68  -3.06
iter:   4 13:15:10 -5909.168058c -4.32  -3.63
iter:   5 13:15:49 -5909.167892c -5.03  -3.62
iter:   6 13:16:28 -5909.167767c -5.06  -3.91
iter:   7 13:17:07 -5909.167675c -5.45  -3.98
iter:   8 13:17:46 -5909.167682c -5.93  -4.10c
iter:   9 13:18:25 -5909.167685c -6.31  -4.14c
iter:  10 13:19:03 -5909.167692c -6.43  -4.24c
iter:  11 13:19:42 -5909.167691c -6.75  -4.50c
iter:  12 13:20:21 -5909.167691c -7.44c -4.62c

Converged after 12 iterations.

Dipole moment: (-7.310394, -10.185928, -0.043717) |e|*Ang

Energy contributions relative to reference atoms: (reference = -6050438.301519)

Kinetic:       +938.405979
Potential:     -897.539605
External:        +0.000000
XC:            -5948.001175
Entropy (-ST):   -0.634014
Local:           -1.715884
--------------------------
Free energy:   -5909.484698
Extrapolated:  -5909.167691

Showing only first 2 kpts
 Kpt  Band  Eigenvalues  Occupancy
  0   253     -4.46370    1.72986
  0   254     -4.36463    1.40791
  0   255     -4.25017    0.86169
  0   256     -4.17359    0.52070

  1   253     -4.81310    1.99056
  1   254     -4.74469    1.98137
  1   255     -4.73899    1.98029
  1   256     -4.70358    1.97203


Fermi level: -4.27801

No gap

Forces in eV/Ang:
  0 Sn   -0.00983   -0.03280    0.13845
  1 Sn   -0.01627   -0.03488   -0.22023
  2 Sn    0.09501    0.04434    0.04106
  3 Sn   -0.00603    0.04511   -0.01002
  4 Sn   -0.02837   -0.00833    0.13805
  5 Sn   -0.03888    0.02245   -0.21864
  6 Sn    0.01616   -0.00933   -0.02572
  7 Sn    0.03242   -0.03411   -0.01217
  8 Sn   -0.00301    0.00174    0.14304
  9 Sn   -0.02724    0.00180   -0.21079
 10 Sn    0.00453   -0.01152   -0.02019
 11 Sn   -0.00272    0.00157    0.04204
 12 Sn    0.02121   -0.02728    0.13827
 13 Sn    0.05197   -0.03000   -0.18254
 14 Sn   -0.08228    0.04750    0.04433
 15 Sn    0.00824    0.04769   -0.00886
 16 Sn    0.00955   -0.00552    0.16880
 17 Sn    0.02208    0.03153   -0.22023
 18 Sn    0.00910   -0.10445    0.04106
 19 Sn    0.00532   -0.00307    0.08587
 20 Sn   -0.00698    0.02874    0.13805
 21 Sn   -0.01612    0.06414   -0.17353
 22 Sn    0.01371   -0.00292   -0.00790
 23 Sn    0.04575   -0.01102   -0.01218
 24 Sn    0.00116   -0.00067    0.08479
 25 Sn   -0.06361   -0.01811   -0.17353
 26 Sn    0.00938   -0.01042   -0.00790
 27 Sn    0.00577   -0.00333    0.00796
 28 Sn    0.03423   -0.00473    0.13827
 29 Sn   -0.01518    0.02269   -0.21079
 30 Sn    0.01224    0.00183   -0.02019
 31 Sn   -0.03718   -0.03098   -0.00886
 32 Sn    0.02349    0.02492    0.13845
 33 Sn    0.00960   -0.00554   -0.22290
 34 Sn    0.01654   -0.00955    0.00117
 35 Sn   -0.04208   -0.01733   -0.01001
 36 O     0.00278   -0.00160    0.27216
 37 H     0.00105   -0.00061    0.10702

BFGS:    6 13:20:36    -5909.167691        0.2722
System changes: positions 

Initializing position-dependent things.

Density initialized from wave functions
                                                  
                                                  
                                                  
                                                  
                                                  
                                                  
                                                  
                     H                            
                     O                            
           Sn      Sn      Sn                     
             Sn      Sn       Sn                  
            Sn      Sn      Sn                    
              SSn       Sn     SSn                
                       Sn                         
                Sn       Sn      Sn               
               Sn       Sn      Sn                
                                                  
                  Sn      Sn      Sn              
                    Sn       Sn      Sn           
           Sn      Sn      Sn                     
                                                  
             Sn      Sn       Sn                  
               Sn       Sn      Sn                
                                                  
                                                  
                                                  
                                                  

Positions:
   0 Sn    -0.000000    0.000000   10.000000    ( 0.0000,  0.0000,  0.0000)
   1 Sn     1.710646    0.987642   12.793473    ( 0.0000,  0.0000,  0.0000)
   2 Sn    -0.062703    1.925896   15.576488    ( 0.0000,  0.0000,  0.0000)
   3 Sn    -0.003644   -0.022684   18.378499    ( 0.0000,  0.0000,  0.0000)
   4 Sn    -1.710646    2.962925   10.000000    ( 0.0000,  0.0000,  0.0000)
   5 Sn    -0.000000    3.950567   12.793473    ( 0.0000,  0.0000,  0.0000)
   6 Sn    -1.697375    4.930546   15.711263    ( 0.0000,  0.0000,  0.0000)
   7 Sn    -1.734980    2.976657   18.378095    ( 0.0000,  0.0000,  0.0000)
   8 Sn    -3.421291    5.925850   10.000000    ( 0.0000,  0.0000,  0.0000)
   9 Sn    -1.710646    6.913492   12.793473    ( 0.0000,  0.0000,  0.0000)
  10 Sn    -3.411721    7.899695   15.714135    ( 0.0000,  0.0000,  0.0000)
  11 Sn    -3.427765    5.929588   18.387389    ( 0.0000,  0.0000,  0.0000)
  12 Sn     3.421291    0.000000   10.000000    ( 0.0000,  0.0000,  0.0000)
  13 Sn     5.131937    0.987642   12.793473    ( 0.0000,  0.0000,  0.0000)
  14 Sn     3.498316    1.930813   15.575524    ( 0.0000,  0.0000,  0.0000)
  15 Sn     3.418782   -0.025023   18.377003    ( 0.0000,  0.0000,  0.0000)
  16 Sn     1.710646    2.962925   10.000000    ( 0.0000,  0.0000,  0.0000)
  17 Sn     3.421291    3.950567   12.793473    ( 0.0000,  0.0000,  0.0000)
  18 Sn     1.722065    5.017205   15.576488    ( 0.0000,  0.0000,  0.0000)
  19 Sn     1.706416    2.965367   18.537231    ( 0.0000,  0.0000,  0.0000)
  20 Sn    -0.000000    5.925850   10.000000    ( 0.0000,  0.0000,  0.0000)
  21 Sn     1.710646    6.913492   12.793473    ( 0.0000,  0.0000,  0.0000)
  22 Sn    -0.001620    7.892584   15.708489    ( 0.0000,  0.0000,  0.0000)
  23 Sn    -0.024060    5.940059   18.378095    ( 0.0000,  0.0000,  0.0000)
  24 Sn     6.842582    0.000000   10.000000    ( 0.0000,  0.0000,  0.0000)
  25 Sn     8.553228    0.987642   12.793473    ( 0.0000,  0.0000,  0.0000)
  26 Sn     6.849177    1.980961   15.708489    ( 0.0000,  0.0000,  0.0000)
  27 Sn     6.838069    0.002606   18.385015    ( 0.0000,  0.0000,  0.0000)
  28 Sn     5.131937    2.962925   10.000000    ( 0.0000,  0.0000,  0.0000)
  29 Sn     6.842582    3.950567   12.793473    ( 0.0000,  0.0000,  0.0000)
  30 Sn     5.137967    4.930640   15.714134    ( 0.0000,  0.0000,  0.0000)
  31 Sn     5.152353    2.977610   18.377003    ( 0.0000,  0.0000,  0.0000)
  32 Sn     3.421291    5.925850   10.000000    ( 0.0000,  0.0000,  0.0000)
  33 Sn     5.131937    6.913492   12.793473    ( 0.0000,  0.0000,  0.0000)
  34 Sn     3.442095    7.889122   15.712604    ( 0.0000,  0.0000,  0.0000)
  35 Sn     3.439114    5.940348   18.378499    ( 0.0000,  0.0000,  0.0000)
  36 O      1.710762    2.962857   20.553295    ( 0.0000,  0.0000,  0.0000)
  37 H      1.711256    2.962573   21.513773    ( 0.0000,  0.0000,  0.0000)

Unit cell:
           periodic     x           y           z      points  spacing
  1. axis:    yes   10.263874    0.000000    0.000000    48     0.1852
  2. axis:    yes   -5.131937    8.888775    0.000000    48     0.1852
  3. axis:    no     0.000000    0.000000   28.380418   156     0.1819

  Lengths:  10.263874  10.263874  28.380418
  Angles:   90.000000  90.000000 120.000000

Effective grid spacing dv^(1/3) = 0.1931

     iter     time        total  log10-change:
                         energy  eigst   dens
iter:   1 13:21:46 -5909.186569  -2.32
iter:   2 13:22:25 -5909.178653  -3.32  -2.85
iter:   3 13:23:04 -5909.172450c -4.04  -2.92
iter:   4 13:23:43 -5909.169343c -3.95  -3.35
iter:   5 13:24:22 -5909.169039c -4.45  -3.45
iter:   6 13:25:01 -5909.169020c -4.88  -3.67
iter:   7 13:25:40 -5909.169052c -4.99  -3.74
iter:   8 13:26:20 -5909.169143c -5.51  -3.88
iter:   9 13:26:59 -5909.169124c -5.94  -3.88
iter:  10 13:27:38 -5909.169124c -6.02  -3.99
iter:  11 13:28:17 -5909.169114c -6.46  -4.26c
iter:  12 13:28:56 -5909.169103c -6.93  -4.36c
iter:  13 13:29:35 -5909.169092c -6.83  -4.47c
iter:  14 13:30:14 -5909.169090c -7.19  -4.57c
iter:  15 13:30:53 -5909.169093c -7.15  -4.63c
iter:  16 13:31:32 -5909.169091c -7.43c -4.70c

Converged after 16 iterations.

Dipole moment: (-7.101599, -10.252395, -0.072181) |e|*Ang

Energy contributions relative to reference atoms: (reference = -6050438.301519)

Kinetic:       +937.107897
Potential:     -896.513120
External:        +0.000000
XC:            -5947.763190
Entropy (-ST):   -0.633730
Local:           -1.683813
--------------------------
Free energy:   -5909.485956
Extrapolated:  -5909.169091

Showing only first 2 kpts
 Kpt  Band  Eigenvalues  Occupancy
  0   253     -4.48014    1.73160
  0   254     -4.38072    1.40956
  0   255     -4.26919    0.87804
  0   256     -4.18980    0.52264

  1   253     -4.82981    1.99065
  1   254     -4.75947    1.98120
  1   255     -4.75704    1.98074
  1   256     -4.71347    1.97038


Fermi level: -4.29371

No gap

Forces in eV/Ang:
  0 Sn   -0.01028   -0.03094    0.13465
  1 Sn   -0.01656   -0.03877   -0.22710
  2 Sn    0.11114    0.04231    0.06514
  3 Sn   -0.00044    0.05153   -0.00055
  4 Sn   -0.02762   -0.00906    0.13440
  5 Sn   -0.04205    0.02428   -0.22345
  6 Sn    0.01229   -0.00710   -0.02658
  7 Sn    0.04140   -0.03332   -0.00307
  8 Sn   -0.00148    0.00086    0.14006
  9 Sn   -0.02836    0.00045   -0.20795
 10 Sn    0.00423   -0.01650   -0.02239
 11 Sn    0.00016   -0.00009    0.03904
 12 Sn    0.02160   -0.02630    0.13485
 13 Sn    0.05576   -0.03219   -0.18781
 14 Sn   -0.09550    0.05514    0.07087
 15 Sn    0.00513    0.05488    0.00019
 16 Sn    0.00961   -0.00555    0.16300
 17 Sn    0.02530    0.03372   -0.22710
 18 Sn    0.01893   -0.11741    0.06514
 19 Sn    0.00835   -0.00482    0.40289
 20 Sn   -0.00596    0.02845    0.13440
 21 Sn   -0.01532    0.06769   -0.17708
 22 Sn    0.01739   -0.00044   -0.01232
 23 Sn    0.04956   -0.01920   -0.00307
 24 Sn    0.00109   -0.00063    0.07603
 25 Sn   -0.06628   -0.02058   -0.17708
 26 Sn    0.00907   -0.01484   -0.01232
 27 Sn    0.00698   -0.00403    0.01340
 28 Sn    0.03358   -0.00555    0.13485
 29 Sn   -0.01457    0.02433   -0.20795
 30 Sn    0.01640    0.00458   -0.02239
 31 Sn   -0.04497   -0.03189    0.00019
 32 Sn    0.02165    0.02437    0.13465
 33 Sn    0.01057   -0.00610   -0.21908
 34 Sn    0.01309   -0.00756   -0.00333
 35 Sn   -0.04485   -0.02538   -0.00055
 36 O     0.00241   -0.00140    0.06307
 37 H     0.00003   -0.00002   -0.18315

BFGS:    7 13:31:47    -5909.169091        0.4030
System changes: positions 

Initializing position-dependent things.

Density initialized from wave functions
                                                  
                                                  
                                                  
                                                  
                                                  
                                                  
                                                  
                     H                            
                     O                            
           Sn      Sn      Sn                     
             Sn      Sn       Sn                  
            Sn      Sn      Sn                    
              SSn       Sn     SSn                
                       Sn                         
                Sn       Sn      Sn               
               Sn       Sn      Sn                
                                                  
                  Sn      Sn      Sn              
                    Sn       Sn      Sn           
           Sn      Sn      Sn                     
                                                  
             Sn      Sn       Sn                  
               Sn       Sn      Sn                
                                                  
                                                  
                                                  
                                                  

Positions:
   0 Sn    -0.000000    0.000000   10.000000    ( 0.0000,  0.0000,  0.0000)
   1 Sn     1.710646    0.987642   12.793473    ( 0.0000,  0.0000,  0.0000)
   2 Sn    -0.059174    1.928355   15.583004    ( 0.0000,  0.0000,  0.0000)
   3 Sn    -0.003442   -0.021359   18.379138    ( 0.0000,  0.0000,  0.0000)
   4 Sn    -1.710646    2.962925   10.000000    ( 0.0000,  0.0000,  0.0000)
   5 Sn    -0.000000    3.950567   12.793473    ( 0.0000,  0.0000,  0.0000)
   6 Sn    -1.697933    4.930868   15.711064    ( 0.0000,  0.0000,  0.0000)
   7 Sn    -1.733613    2.975875   18.378734    ( 0.0000,  0.0000,  0.0000)
   8 Sn    -3.421291    5.925850   10.000000    ( 0.0000,  0.0000,  0.0000)
   9 Sn    -1.710646    6.913492   12.793473    ( 0.0000,  0.0000,  0.0000)
  10 Sn    -3.412131    7.899651   15.713815    ( 0.0000,  0.0000,  0.0000)
  11 Sn    -3.427448    5.929405   18.387730    ( 0.0000,  0.0000,  0.0000)
  12 Sn     3.421291    0.000000   10.000000    ( 0.0000,  0.0000,  0.0000)
  13 Sn     5.131937    0.987642   12.793473    ( 0.0000,  0.0000,  0.0000)
  14 Sn     3.494228    1.933173   15.582127    ( 0.0000,  0.0000,  0.0000)
  15 Sn     3.418901   -0.023573   18.377707    ( 0.0000,  0.0000,  0.0000)
  16 Sn     1.710646    2.962925   10.000000    ( 0.0000,  0.0000,  0.0000)
  17 Sn     3.421291    3.950567   12.793473    ( 0.0000,  0.0000,  0.0000)
  18 Sn     1.721700    5.012919   15.583004    ( 0.0000,  0.0000,  0.0000)
  19 Sn     1.706664    2.965224   18.535610    ( 0.0000,  0.0000,  0.0000)
  20 Sn    -0.000000    5.925850   10.000000    ( 0.0000,  0.0000,  0.0000)
  21 Sn     1.710646    6.913492   12.793473    ( 0.0000,  0.0000,  0.0000)
  22 Sn    -0.001433    7.892986   15.708466    ( 0.0000,  0.0000,  0.0000)
  23 Sn    -0.022699    5.939266   18.378734    ( 0.0000,  0.0000,  0.0000)
  24 Sn     6.842582    0.000000   10.000000    ( 0.0000,  0.0000,  0.0000)
  25 Sn     8.553228    0.987642   12.793473    ( 0.0000,  0.0000,  0.0000)
  26 Sn     6.848923    1.980598   15.708466    ( 0.0000,  0.0000,  0.0000)
  27 Sn     6.838317    0.002463   18.385400    ( 0.0000,  0.0000,  0.0000)
  28 Sn     5.131937    2.962925   10.000000    ( 0.0000,  0.0000,  0.0000)
  29 Sn     6.842582    3.950567   12.793473    ( 0.0000,  0.0000,  0.0000)
  30 Sn     5.137800    4.931017   15.713815    ( 0.0000,  0.0000,  0.0000)
  31 Sn     5.151157    2.976782   18.377708    ( 0.0000,  0.0000,  0.0000)
  32 Sn     3.421291    5.925850   10.000000    ( 0.0000,  0.0000,  0.0000)
  33 Sn     5.131937    6.913492   12.793473    ( 0.0000,  0.0000,  0.0000)
  34 Sn     3.441197    7.889641   15.712437    ( 0.0000,  0.0000,  0.0000)
  35 Sn     3.438068    5.939511   18.379138    ( 0.0000,  0.0000,  0.0000)
  36 O      1.710761    2.962858   20.545088    ( 0.0000,  0.0000,  0.0000)
  37 H      1.711226    2.962590   21.503352    ( 0.0000,  0.0000,  0.0000)

Unit cell:
           periodic     x           y           z      points  spacing
  1. axis:    yes   10.263874    0.000000    0.000000    48     0.1852
  2. axis:    yes   -5.131937    8.888775    0.000000    48     0.1852
  3. axis:    no     0.000000    0.000000   28.380418   156     0.1819

  Lengths:  10.263874  10.263874  28.380418
  Angles:   90.000000  90.000000 120.000000

Effective grid spacing dv^(1/3) = 0.1931

     iter     time        total  log10-change:
                         energy  eigst   dens
iter:   1 13:32:56 -5909.176541  -3.30
iter:   2 13:33:35 -5909.174695  -4.28  -3.15
iter:   3 13:34:14 -5909.173074c -5.01  -3.24
iter:   4 13:34:53 -5909.172686c -4.80  -3.75
iter:   5 13:35:33 -5909.172621c -5.41  -3.88
iter:   6 13:36:12 -5909.172635c -5.63  -4.10c
iter:   7 13:36:51 -5909.172665c -6.08  -4.20c
iter:   8 13:37:30 -5909.172664c -6.58  -4.38c
iter:   9 13:38:09 -5909.172652c -6.96  -4.39c
iter:  10 13:38:48 -5909.172640c -6.90  -4.45c
iter:  11 13:39:27 -5909.172642c -7.25  -4.72c
iter:  12 13:40:06 -5909.172642c -7.96c -4.85c

Converged after 12 iterations.

Dipole moment: (-7.091916, -10.392552, -0.064788) |e|*Ang

Energy contributions relative to reference atoms: (reference = -6050438.301519)

Kinetic:       +937.372467
Potential:     -896.732037
External:        +0.000000
XC:            -5947.815208
Entropy (-ST):   -0.633978
Local:           -1.680875
--------------------------
Free energy:   -5909.489631
Extrapolated:  -5909.172642

Showing only first 2 kpts
 Kpt  Band  Eigenvalues  Occupancy
  0   253     -4.47582    1.73108
  0   254     -4.37615    1.40758
  0   255     -4.26435    0.87438
  0   256     -4.18513    0.52042

  1   253     -4.82522    1.99061
  1   254     -4.75590    1.98130
  1   255     -4.75272    1.98070
  1   256     -4.71202    1.97114


Fermi level: -4.28961

No gap

Forces in eV/Ang:
  0 Sn   -0.00964   -0.03073    0.13635
  1 Sn   -0.01639   -0.03852   -0.22403
  2 Sn    0.08914    0.03453    0.05030
  3 Sn    0.00118    0.04731   -0.00063
  4 Sn   -0.02692   -0.00880    0.13605
  5 Sn   -0.04198    0.02424   -0.22116
  6 Sn    0.00922   -0.00532   -0.02134
  7 Sn    0.03945   -0.02971   -0.00310
  8 Sn   -0.00221    0.00127    0.14254
  9 Sn   -0.02895    0.00063   -0.20752
 10 Sn    0.00495   -0.01860   -0.01714
 11 Sn   -0.00048    0.00028    0.03031
 12 Sn    0.02094   -0.02581    0.13653
 13 Sn    0.05295   -0.03057   -0.17987
 14 Sn   -0.07491    0.04325    0.05455
 15 Sn    0.00293    0.05041   -0.00037
 16 Sn    0.00973   -0.00562    0.16464
 17 Sn    0.02516    0.03346   -0.22403
 18 Sn    0.01466   -0.09446    0.05030
 19 Sn    0.00706   -0.00408    0.29561
 20 Sn   -0.00584    0.02772    0.13605
 21 Sn   -0.01538    0.06517   -0.16989
 22 Sn    0.01687   -0.00017   -0.00911
 23 Sn    0.04545   -0.01931   -0.00310
 24 Sn    0.00138   -0.00080    0.08182
 25 Sn   -0.06412   -0.01927   -0.16989
 26 Sn    0.00858   -0.01452   -0.00911
 27 Sn    0.00625   -0.00361    0.00736
 28 Sn    0.03283   -0.00523    0.13653
 29 Sn   -0.01502    0.02476   -0.20752
 30 Sn    0.01858    0.00502   -0.01714
 31 Sn   -0.04219   -0.02774   -0.00038
 32 Sn    0.02180    0.02371    0.13635
 33 Sn    0.01058   -0.00611   -0.21895
 34 Sn    0.01305   -0.00753   -0.00064
 35 Sn   -0.04039   -0.02467   -0.00063
 36 O     0.00172   -0.00100   -0.02261
 37 H     0.00004   -0.00002   -0.07490

BFGS:    8 13:40:21    -5909.172642        0.2957
System changes: positions 

Initializing position-dependent things.

Density initialized from wave functions
                                                  
                                                  
                                                  
                                                  
                                                  
[...]
  20 Sn    -0.000000    5.925850   10.000000    ( 0.0000,  0.0000,  0.0000)
  21 Sn     1.710646    6.913492   12.793473    ( 0.0000,  0.0000,  0.0000)
  22 Sn     0.046291    7.880017   15.692139    ( 0.0000,  0.0000,  0.0000)
  23 Sn    -0.005264    5.925592   18.368795    ( 0.0000,  0.0000,  0.0000)
  24 Sn     6.842582    0.000000   10.000000    ( 0.0000,  0.0000,  0.0000)
  25 Sn     8.553228    0.987642   12.793473    ( 0.0000,  0.0000,  0.0000)
  26 Sn     6.884015    1.945753   15.692139    ( 0.0000,  0.0000,  0.0000)
  27 Sn     6.846666   -0.002358   18.377817    ( 0.0000,  0.0000,  0.0000)
  28 Sn     5.131937    2.962925   10.000000    ( 0.0000,  0.0000,  0.0000)
  29 Sn     6.842582    3.950567   12.793473    ( 0.0000,  0.0000,  0.0000)
  30 Sn     5.180033    4.910961   15.726664    ( 0.0000,  0.0000,  0.0000)
  31 Sn     5.132438    2.970214   18.369792    ( 0.0000,  0.0000,  0.0000)
  32 Sn     3.421291    5.925850   10.000000    ( 0.0000,  0.0000,  0.0000)
  33 Sn     5.131937    6.913492   12.793473    ( 0.0000,  0.0000,  0.0000)
  34 Sn     3.470732    7.872589   15.695505    ( 0.0000,  0.0000,  0.0000)
  35 Sn     3.427282    5.921507   18.373608    ( 0.0000,  0.0000,  0.0000)
  36 O      1.710360    2.963085   20.908690    ( 0.0000,  0.0000,  0.0000)
  37 H      1.713129    2.961511   21.865035    ( 0.0000,  0.0000,  0.0000)

Unit cell:
           periodic     x           y           z      points  spacing
  1. axis:    yes   10.263874    0.000000    0.000000    48     0.1852
  2. axis:    yes   -5.131937    8.888775    0.000000    48     0.1852
  3. axis:    no     0.000000    0.000000   28.380418   156     0.1819

  Lengths:  10.263874  10.263874  28.380418
  Angles:   90.000000  90.000000 120.000000

Effective grid spacing dv^(1/3) = 0.1931

     iter     time        total  log10-change:
                         energy  eigst   dens
iter:   1 17:10:47 -5909.263343  -2.98
iter:   2 17:11:26 -5909.262002  -3.92  -3.22
iter:   3 17:12:05 -5909.261034c -4.63  -3.30
iter:   4 17:12:43 -5909.260785c -4.95  -3.76
iter:   5 17:13:22 -5909.260640c -5.18  -3.81
iter:   6 17:14:01 -5909.260630c -5.73  -4.02c
iter:   7 17:14:40 -5909.260660c -5.73  -4.10c
iter:   8 17:15:19 -5909.260644c -6.12  -4.29c
iter:   9 17:15:57 -5909.260639c -6.66  -4.42c
iter:  10 17:16:36 -5909.260644c -7.15  -4.54c
iter:  11 17:17:15 -5909.260644c -7.51c -4.60c

Converged after 11 iterations.

Dipole moment: (-5.623082, -13.015995, -0.078493) |e|*Ang

Energy contributions relative to reference atoms: (reference = -6050438.301519)

Kinetic:       +934.446711
Potential:     -894.639334
External:        +0.000000
XC:            -5947.050102
Entropy (-ST):   -0.632821
Local:           -1.701508
--------------------------
Free energy:   -5909.577055
Extrapolated:  -5909.260644

Showing only first 2 kpts
 Kpt  Band  Eigenvalues  Occupancy
  0   253     -4.49719    1.75505
  0   254     -4.37504    1.35736
  0   255     -4.29117    0.95454
  0   256     -4.18426    0.47732

  1   253     -4.82451    1.98948
  1   254     -4.78613    1.98460
  1   255     -4.78163    1.98389
  1   256     -4.69971    1.96383


Fermi level: -4.30027

No gap

Forces in eV/Ang:
  0 Sn   -0.00895   -0.02914    0.13675
  1 Sn   -0.01365   -0.02923   -0.18853
  2 Sn   -0.03746   -0.01486    0.02487
  3 Sn   -0.02327    0.01472    0.02412
  4 Sn   -0.02040   -0.00805    0.13521
  5 Sn   -0.02800    0.01617   -0.18299
  6 Sn    0.00526   -0.00304   -0.01582
  7 Sn    0.00774   -0.02666    0.03501
  8 Sn   -0.00072    0.00042    0.14677
  9 Sn   -0.02202    0.00227   -0.21008
 10 Sn   -0.00801    0.01323   -0.02235
 11 Sn    0.01572   -0.00907    0.01116
 12 Sn    0.01757   -0.02752    0.13519
 13 Sn    0.01266   -0.00731   -0.13990
 14 Sn    0.05594   -0.03230    0.00440
 15 Sn    0.02197    0.01786    0.04611
 16 Sn    0.01021   -0.00589    0.14915
 17 Sn    0.01849    0.02644   -0.18853
 18 Sn   -0.00586    0.03987    0.02487
 19 Sn    0.01128   -0.00650   -0.07207
 20 Sn   -0.00323    0.02169    0.13521
 21 Sn   -0.00283    0.02276   -0.13685
 22 Sn   -0.00838   -0.01838   -0.00243
 23 Sn    0.02696    0.00663    0.03501
 24 Sn    0.00432   -0.00250    0.08788
 25 Sn   -0.02113   -0.00893   -0.13685
 26 Sn    0.01173    0.01645   -0.00243
 27 Sn   -0.00140    0.00081    0.01790
 28 Sn    0.03262   -0.00145    0.13519
 29 Sn   -0.01298    0.01794   -0.21008
 30 Sn   -0.01547    0.00032   -0.02235
 31 Sn   -0.00448   -0.02795    0.04610
 32 Sn    0.02076    0.02232    0.13675
 33 Sn    0.00214   -0.00124   -0.21131
 34 Sn    0.02184   -0.01261   -0.00403
 35 Sn   -0.02438    0.01279    0.02412
 36 O    -0.00441    0.00250    0.04688
 37 H     0.00655   -0.00372    0.00123

BFGS:   27 17:17:29    -5909.260644        0.0732
System changes: positions 

Initializing position-dependent things.

Density initialized from wave functions
                                                  
                                                  
                                                  
                                                  
                                                  
                                                  
                     H                            
                                                  
                     O                            
           Sn      Sn      Sn                     
                     Sn                           
            SSn     Sn       SSn                  
               Sn       Sn      Sn                
              Sn       Sn      Sn                 
                         Sn      Sn               
               SnSn     Sn      Sn                
                                                  
                  Sn      Sn      Sn              
                    Sn       Sn      Sn           
           Sn      Sn      Sn                     
                                                  
             Sn      Sn       Sn                  
               Sn       Sn      Sn                
                                                  
                                                  
                                                  
                                                  

Positions:
   0 Sn    -0.000000    0.000000   10.000000    ( 0.0000,  0.0000,  0.0000)
   1 Sn     1.710646    0.987642   12.793473    ( 0.0000,  0.0000,  0.0000)
   2 Sn     0.042957    1.942010   15.645625    ( 0.0000,  0.0000,  0.0000)
   3 Sn     0.005813   -0.002851   18.374289    ( 0.0000,  0.0000,  0.0000)
   4 Sn    -1.710646    2.962925   10.000000    ( 0.0000,  0.0000,  0.0000)
   5 Sn    -0.000000    3.950567   12.793473    ( 0.0000,  0.0000,  0.0000)
   6 Sn    -1.653221    4.905054   15.712146    ( 0.0000,  0.0000,  0.0000)
   7 Sn    -1.713229    2.966951   18.369869    ( 0.0000,  0.0000,  0.0000)
   8 Sn    -3.421291    5.925850   10.000000    ( 0.0000,  0.0000,  0.0000)
   9 Sn    -1.710646    6.913492   12.793473    ( 0.0000,  0.0000,  0.0000)
  10 Sn    -3.375295    7.874281   15.725501    ( 0.0000,  0.0000,  0.0000)
  11 Sn    -3.427627    5.929508   18.394753    ( 0.0000,  0.0000,  0.0000)
  12 Sn     3.421291    0.000000   10.000000    ( 0.0000,  0.0000,  0.0000)
  13 Sn     5.131937    0.987642   12.793473    ( 0.0000,  0.0000,  0.0000)
  14 Sn     3.447750    1.960007   15.662080    ( 0.0000,  0.0000,  0.0000)
  15 Sn     3.415956   -0.003847   18.371085    ( 0.0000,  0.0000,  0.0000)
  16 Sn     1.710646    2.962925   10.000000    ( 0.0000,  0.0000,  0.0000)
  17 Sn     3.421291    3.950567   12.793473    ( 0.0000,  0.0000,  0.0000)
  18 Sn     1.760940    4.917642   15.645626    ( 0.0000,  0.0000,  0.0000)
  19 Sn     1.708565    2.964125   18.906097    ( 0.0000,  0.0000,  0.0000)
  20 Sn    -0.000000    5.925850   10.000000    ( 0.0000,  0.0000,  0.0000)
  21 Sn     1.710646    6.913492   12.793473    ( 0.0000,  0.0000,  0.0000)
  22 Sn     0.044378    7.880142   15.692666    ( 0.0000,  0.0000,  0.0000)
  23 Sn    -0.004778    5.926075   18.369870    ( 0.0000,  0.0000,  0.0000)
  24 Sn     6.842582    0.000000   10.000000    ( 0.0000,  0.0000,  0.0000)
  25 Sn     8.553228    0.987642   12.793473    ( 0.0000,  0.0000,  0.0000)
  26 Sn     6.882950    1.947347   15.692666    ( 0.0000,  0.0000,  0.0000)
  27 Sn     6.846387   -0.002197   18.378545    ( 0.0000,  0.0000,  0.0000)
  28 Sn     5.131937    2.962925   10.000000    ( 0.0000,  0.0000,  0.0000)
  29 Sn     6.842582    3.950567   12.793473    ( 0.0000,  0.0000,  0.0000)
  30 Sn     5.178190    4.911802   15.725501    ( 0.0000,  0.0000,  0.0000)
  31 Sn     5.132601    2.969469   18.371086    ( 0.0000,  0.0000,  0.0000)
  32 Sn     3.421291    5.925850   10.000000    ( 0.0000,  0.0000,  0.0000)
  33 Sn     5.131937    6.913492   12.793473    ( 0.0000,  0.0000,  0.0000)
  34 Sn     3.470136    7.872933   15.696079    ( 0.0000,  0.0000,  0.0000)
  35 Sn     3.426666    5.922241   18.374289    ( 0.0000,  0.0000,  0.0000)
  36 O      1.710276    2.963133   20.894720    ( 0.0000,  0.0000,  0.0000)
  37 H      1.713173    2.961486   21.850445    ( 0.0000,  0.0000,  0.0000)

Unit cell:
           periodic     x           y           z      points  spacing
  1. axis:    yes   10.263874    0.000000    0.000000    48     0.1852
  2. axis:    yes   -5.131937    8.888775    0.000000    48     0.1852
  3. axis:    no     0.000000    0.000000   28.380418   156     0.1819

  Lengths:  10.263874  10.263874  28.380418
  Angles:   90.000000  90.000000 120.000000

Effective grid spacing dv^(1/3) = 0.1931

     iter     time        total  log10-change:
                         energy  eigst   dens
iter:   1 17:18:38 -5909.261196  -3.03
iter:   2 17:19:17 -5909.261439  -4.00  -3.79
iter:   3 17:19:56 -5909.261457c -4.70  -3.87
iter:   4 17:20:35 -5909.261409c -4.81  -3.87
iter:   5 17:21:14 -5909.261423c -5.49  -4.09c
iter:   6 17:21:53 -5909.261441c -5.85  -4.20c
iter:   7 17:22:31 -5909.261462c -6.09  -4.29c
iter:   8 17:23:10 -5909.261452c -6.53  -4.47c
iter:   9 17:23:49 -5909.261442c -6.54  -4.62c
iter:  10 17:24:28 -5909.261444c -7.50c -4.82c

Converged after 10 iterations.

Dipole moment: (-5.615739, -13.027988, -0.078764) |e|*Ang

Energy contributions relative to reference atoms: (reference = -6050438.301519)

Kinetic:       +934.349330
Potential:     -894.537653
External:        +0.000000
XC:            -5947.058607
Entropy (-ST):   -0.632810
Local:           -1.698109
--------------------------
Free energy:   -5909.577849
Extrapolated:  -5909.261444

Showing only first 2 kpts
 Kpt  Band  Eigenvalues  Occupancy
  0   253     -4.49684    1.75381
  0   254     -4.37571    1.35928
  0   255     -4.29054    0.95028
  0   256     -4.18489    0.47877

  1   253     -4.82463    1.98947
  1   254     -4.78661    1.98464
  1   255     -4.78247    1.98399
  1   256     -4.70082    1.96414


Fermi level: -4.30050

No gap

Forces in eV/Ang:
  0 Sn   -0.00845   -0.02927    0.13661
  1 Sn   -0.01420   -0.02758   -0.18942
  2 Sn   -0.02010   -0.00475    0.02362
  3 Sn   -0.01896    0.00587    0.02016
  4 Sn   -0.02034   -0.00748    0.13501
  5 Sn   -0.02709    0.01564   -0.18411
  6 Sn    0.00565   -0.00326   -0.00949
  7 Sn    0.00183   -0.01996    0.02887
  8 Sn   -0.00069    0.00040    0.14556
  9 Sn   -0.02253    0.00264   -0.21081
 10 Sn   -0.00518    0.01336   -0.01278
 11 Sn    0.01259   -0.00727    0.00312
 12 Sn    0.01703   -0.02745    0.13558
 13 Sn    0.01425   -0.00823   -0.14262
 14 Sn    0.03938   -0.02274    0.00887
 15 Sn    0.01773    0.00828    0.03533
 16 Sn    0.01015   -0.00586    0.15202
 17 Sn    0.01679    0.02609   -0.18942
 18 Sn   -0.00594    0.01978    0.02362
 19 Sn    0.01038   -0.00597   -0.02300
 20 Sn   -0.00369    0.02135    0.13501
 21 Sn   -0.00369    0.02386   -0.13795
 22 Sn   -0.00300   -0.01575    0.00099
 23 Sn    0.01820    0.00840    0.02887
 24 Sn    0.00439   -0.00253    0.08557
 25 Sn   -0.02250   -0.00874   -0.13795
 26 Sn    0.01214    0.01047    0.00099
 27 Sn   -0.00126    0.00073    0.01142
 28 Sn    0.03229   -0.00103    0.13558
 29 Sn   -0.01355    0.01819   -0.21081
 30 Sn   -0.01416   -0.00220   -0.01278
 31 Sn    0.00170   -0.01949    0.03532
 32 Sn    0.02113    0.02196    0.13661
 33 Sn    0.00208   -0.00120   -0.21342
 34 Sn    0.01727   -0.00997   -0.00248
 35 Sn   -0.01456    0.01348    0.02016
 36 O    -0.00152    0.00089    0.01962
 37 H     0.00552   -0.00314    0.02659

BFGS:   28 17:24:43    -5909.261444        0.0463
Timing:                                      incl.     excl.
-------------------------------------------------------------------
Density initialized from wave functions:    28.999    28.998   0.1% |
 Symmetrize density:                         0.001     0.001   0.0% |
Forces:                                    420.691   420.691   2.2% ||
Hamiltonian:                               140.404     0.005   0.0% |
 Atomic:                                     0.008     0.008   0.0% |
  XC Correction:                             0.000     0.000   0.0% |
 Calculate atomic Hamiltonians:              0.010     0.010   0.0% |
 Communicate:                                5.607     5.607   0.0% |
 Hartree integrate/restrict:                 0.440     0.440   0.0% |
 Initialize Hamiltonian:                     0.000     0.000   0.0% |
 Poisson:                                    7.344     0.281   0.0% |
  Communicate from 1D:                       0.622     0.622   0.0% |
  Communicate from 2D:                       1.203     1.203   0.0% |
  Communicate to 1D:                         0.328     0.328   0.0% |
  Communicate to 2D:                         1.448     1.448   0.0% |
  FFT 1D:                                    1.547     1.547   0.0% |
  FFT 2D:                                    1.916     1.916   0.0% |
 XC 3D grid:                               126.727    32.408   0.2% |
  VdW-DF integral:                          94.319     1.137   0.0% |
   Convolution:                             12.317    12.317   0.1% |
   FFT:                                      6.728     6.728   0.0% |
   gather:                                  26.700    26.700   0.1% |
   hmm1:                                     1.834     1.834   0.0% |
   hmm2:                                     3.979     3.979   0.0% |
   iFFT:                                     6.891     6.891   0.0% |
   potential:                               30.409     0.659   0.0% |
    collect:                                 2.666     2.666   0.0% |
    p1:                                     18.066    18.066   0.1% |
    p2:                                      6.030     6.030   0.0% |
    sum:                                     2.987     2.987   0.0% |
   splines:                                  4.324     4.324   0.0% |
 vbar:                                       0.263     0.263   0.0% |
LCAO initialization:                        19.571     1.235   0.0% |
 LCAO eigensolver:                           4.496     0.004   0.0% |
  Calculate projections:                     0.000     0.000   0.0% |
  DenseAtomicCorrection:                     0.000     0.000   0.0% |
  Distribute overlap matrix:                 3.945     3.945   0.0% |
  Orbital Layouts:                           0.505     0.505   0.0% |
  Potential matrix:                          0.010     0.010   0.0% |
  Sum over cells:                            0.031     0.031   0.0% |
 LCAO to grid:                              12.977    12.977   0.1% |
 Set positions (LCAO WFS):                   0.863     0.717   0.0% |
  Basic WFS set positions:                   0.001     0.001   0.0% |
  Basis functions set positions:             0.000     0.000   0.0% |
  P tci:                                     0.000     0.000   0.0% |
  ST tci:                                    0.106     0.106   0.0% |
  mktci:                                     0.038     0.038   0.0% |
Redistribute:                                0.016     0.016   0.0% |
SCF-cycle:                               18169.874    68.273   0.4% |
 Davidson:                               15882.732  4104.372  21.0% |-------|
  Apply hamiltonian:                       519.573   519.573   2.7% ||
  Subspace diag:                          2226.968     0.062   0.0% |
   calc_h_matrix:                         1129.295   592.038   3.0% ||
    Apply hamiltonian:                     537.257   537.257   2.8% ||
   diagonalize:                             18.745    18.745   0.1% |
   rotate_psi:                            1078.866  1078.866   5.5% |-|
  calc. matrices:                         6781.160  3832.723  19.7% |-------|
   Apply hamiltonian:                     2948.438  2948.438  15.1% |-----|
  diagonalize:                             182.360   182.360   0.9% |
  rotate_psi:                             2068.299  2068.299  10.6% |---|
 Density:                                   46.631     0.011   0.0% |
  Atomic density matrices:                   2.803     2.803   0.0% |
  Mix:                                      11.192    11.192   0.1% |
  Multipole moments:                         0.196     0.196   0.0% |
  Pseudo density:                           32.429    32.412   0.2% |
   Symmetrize density:                       0.016     0.016   0.0% |
 Hamiltonian:                             2061.994     0.063   0.0% |
  Atomic:                                    0.120     0.118   0.0% |
   XC Correction:                            0.002     0.002   0.0% |
  Calculate atomic Hamiltonians:             0.165     0.165   0.0% |
  Communicate:                              83.007    83.007   0.4% |
  Hartree integrate/restrict:                6.967     6.967   0.0% |
  Poisson:                                 110.962     4.145   0.0% |
   Communicate from 1D:                      9.169     9.169   0.0% |
   Communicate from 2D:                     18.324    18.324   0.1% |
   Communicate to 1D:                        4.862     4.862   0.0% |
   Communicate to 2D:                       21.895    21.895   0.1% |
   FFT 1D:                                  23.429    23.429   0.1% |
   FFT 2D:                                  29.140    29.140   0.1% |
  XC 3D grid:                             1859.590   489.901   2.5% ||
   VdW-DF integral:                       1369.689    17.173   0.1% |
    Convolution:                           186.759   186.759   1.0% |
    FFT:                                   101.424   101.424   0.5% |
    gather:                                407.385   407.385   2.1% ||
    hmm1:                                   28.123    28.123   0.1% |
    hmm2:                                   59.992    59.992   0.3% |
    iFFT:                                  104.692   104.692   0.5% |
    potential:                             464.138     9.807   0.1% |
     collect:                               40.564    40.564   0.2% |
     p1:                                   273.977   273.977   1.4% ||
     p2:                                    91.153    91.153   0.5% |
     sum:                                   48.637    48.637   0.2% |
    splines:                                 0.003     0.003   0.0% |
  vbar:                                      1.119     1.119   0.0% |
 Orthonormalize:                           110.244     0.006   0.0% |
  calc_s_matrix:                            16.296    16.296   0.1% |
  inverse-cholesky:                         60.571    60.571   0.3% |
  projections:                               0.002     0.002   0.0% |
  rotate_psi_s:                             33.368    33.368   0.2% |
Set symmetry:                                0.001     0.001   0.0% |
Other:                                     724.804   724.804   3.7% ||
-------------------------------------------------------------------
Total:                                             19504.361 100.0%

Memory usage: 2.23 GiB
Date: Tue Sep 26 17:24:43 2023
