
  ___ ___ ___ _ _ _  
 |   |   |_  | | | | 
 | | | | | . | | | | 
 |__ |  _|___|_____|  22.8.0
 |___|_|             

User:   s204775@c070.nifl.fysik.dtu.dk
Date:   Tue Sep 26 12:24:37 2023
Arch:   x86_64
Pid:    48907
CWD:    /home/cat/s204775/projects/Bachelor_project/OH_missing_features
Python: 3.10.4
gpaw:   /home/modules/software/GPAW/22.8.0-intel-2022a/lib/python3.10/site-packages/gpaw
_gpaw:  /home/modules/software/GPAW/22.8.0-intel-2022a/lib/python3.10/site-packages/
        _gpaw.cpython-310-x86_64-linux-gnu.so
ase:    /home/modules/software/ASE/3.22.1-intel-2022a/lib/python3.10/site-packages/ase (version 3.22.1)
numpy:  /home/modules/software/SciPy-bundle/2022.05-intel-2022a/lib/python3.10/site-packages/numpy (version 1.22.3)
scipy:  /home/modules/software/SciPy-bundle/2022.05-intel-2022a/lib/python3.10/site-packages/scipy (version 1.8.1)
libxc:  5.2.3
units:  Angstrom and eV
cores: 40
OpenMP: False
OMP_NUM_THREADS: 1

Input parameters:
  basis: dzp
  h: 0.18
  kpts: {size: (4, 4, 1)}
  xc: BEEF-vdW

System changes: positions, numbers, cell, pbc, initial_charges, initial_magmoms 

Initialize ...

species:
  Ti:
    name: Titanium
    id: d282db07e62ae71292040bf25b25ccdd
    Z: 22.0
    valence: 12
    core: 10
    charge: 0.0
    file: /home/modules/software/GPAW-setups/0.9.20000/Ti.PBE.gz
    compensation charges: {type: gauss,
                           rc: 0.38,
                           lmax: 2}
    cutoffs: {filter: 2.23,
              core: 1.02}
    valence states:
      #              energy  rcut
      - 3s(2.00)   -62.623   1.270
      - 4s(2.00)    -4.466   1.270
      - 3p(6.00)   -38.862   1.058
      - 4p(0.00)    -1.466   1.058
      - 3d(2.00)    -4.258   1.058
      -  d          22.953   1.058
  
    # LCAO basis set for Ti:
    #   Name: dzp
    #   File: /home/modules/software/GPAW-setups/0.9.20000/Ti.dzp.basis.gz
    #   Number of radial functions: 11
    #   Number of spherical harmonics: 29
    #     l=0, rc=3.4375 Bohr: 3s-sz confined orbital
    #     l=0, rc=9.9062 Bohr: 4s-sz confined orbital
    #     l=1, rc=3.8906 Bohr: 3p-sz confined orbital
    #     l=1, rc=13.1094 Bohr: 4p-sz confined orbital
    #     l=2, rc=6.6250 Bohr: 3d-sz confined orbital
    #     l=0, rc=2.1406 Bohr: 3s-dz split-valence wave
    #     l=0, rc=6.0156 Bohr: 4s-dz split-valence wave
    #     l=1, rc=2.3125 Bohr: 3p-dz split-valence wave
    #     l=1, rc=8.1094 Bohr: 4p-dz split-valence wave
    #     l=2, rc=3.8594 Bohr: 3d-dz split-valence wave
    #     l=1, rc=9.9062 Bohr: p-type Gaussian polarization
    #   Number of RI-basis functions 0

  O:
    name: Oxygen
    id: 32ecd46bf208036f09c70b0ec9a88b78
    Z: 8.0
    valence: 6
    core: 2
    charge: 0.0
    file: /home/modules/software/GPAW-setups/0.9.20000/O.PBE.gz
    compensation charges: {type: gauss,
                           rc: 0.21,
                           lmax: 2}
    cutoffs: {filter: 1.17,
              core: 0.83}
    valence states:
      #              energy  rcut
      - 2s(2.00)   -23.961   0.688
      - 2p(4.00)    -9.029   0.598
      -  s           3.251   0.688
      -  p          18.182   0.598
      -  d           0.000   0.619
  
    # LCAO basis set for O:
    #   Name: dzp
    #   File: /home/modules/software/GPAW-setups/0.9.20000/O.dzp.basis.gz
    #   Number of radial functions: 5
    #   Number of spherical harmonics: 13
    #     l=0, rc=4.3438 Bohr: 2s-sz confined orbital
    #     l=1, rc=5.3906 Bohr: 2p-sz confined orbital
    #     l=0, rc=2.2969 Bohr: 2s-dz split-valence wave
    #     l=1, rc=2.8906 Bohr: 2p-dz split-valence wave
    #     l=2, rc=5.3906 Bohr: d-type Gaussian polarization
    #   Number of RI-basis functions 0

  H:
    name: Hydrogen
    id: d65de229564ff8ea4db303e23b6d1ecf
    Z: 1.0
    valence: 1
    core: 0
    charge: 0.0
    file: /home/modules/software/GPAW-setups/0.9.20000/H.PBE.gz
    compensation charges: {type: gauss,
                           rc: 0.15,
                           lmax: 2}
    cutoffs: {filter: 0.85,
              core: 0.53}
    valence states:
      #              energy  rcut
      - 1s(1.00)    -6.494   0.476
      -  s          20.717   0.476
      -  p           0.000   0.476
  
    # LCAO basis set for H:
    #   Name: dzp
    #   File: /home/modules/software/GPAW-setups/0.9.20000/H.dzp.basis.gz
    #   Number of radial functions: 3
    #   Number of spherical harmonics: 5
    #     l=0, rc=6.4219 Bohr: 1s-sz confined orbital
    #     l=0, rc=3.6094 Bohr: 1s-dz split-valence wave
    #     l=1, rc=6.4219 Bohr: p-type Gaussian polarization
    #   Number of RI-basis functions 0

Reference energy: -838117.856603  # eV

Spin-paired calculation

Convergence criteria:
 Maximum [total energy] change in last 3 cyles: 0.0005 eV / electron
 Maximum integral of absolute [dens]ity change: 0.0001 electrons / valence electron
 Maximum integral of absolute [eigenst]ate change: 4e-08 eV^2 / valence electron
 Maximum number of scf [iter]ations: 333
 (Square brackets indicate name in SCF output, whereas a 'c' in
 the SCF output indicates the quantity has converged.)

Symmetries present (total): 1

  ( 1  0  0)
  ( 0  1  0)
  ( 0  0  1)

16 k-points: 4 x 4 x 1 Monkhorst-Pack grid
8 k-points in the irreducible part of the Brillouin zone
       k-points in crystal coordinates                weights
   0:     0.12500000   -0.37500000    0.00000000          2/16
   1:     0.12500000   -0.12500000    0.00000000          2/16
   2:     0.12500000    0.12500000    0.00000000          2/16
   3:     0.12500000    0.37500000    0.00000000          2/16
   4:     0.37500000   -0.37500000    0.00000000          2/16
   5:     0.37500000   -0.12500000    0.00000000          2/16
   6:     0.37500000    0.12500000    0.00000000          2/16
   7:     0.37500000    0.37500000    0.00000000          2/16

Wave functions: Uniform real-space grid
  Kinetic energy operator: 8*3+1=25 point O(h^6) finite-difference Laplacian
  ScaLapack parameters: grid=1x1, blocksize=None
  Wavefunction extrapolation:
    Improved wavefunction reuse through dual PAW basis 

Occupation numbers: Fermi-Dirac:
  width: 0.1000  # eV
 

Eigensolver
   Davidson(niter=2) 

Densities:
  Coarse grid: 40*40*152 grid
  Fine grid: 80*80*304 grid
  Total Charge: 0.000000 

Density mixing:
  Method: separate
  Backend: pulay
  Linear mixing parameter: 0.05
  old densities: 5
  Damping of long wavelength oscillations: 50 

Hamiltonian:
  XC and Coulomb potentials evaluated on a 80*80*304 grid
  Using the BEEF-vdW Exchange-Correlation functional
  Interpolation: tri-quintic (5. degree polynomial)
  Poisson solver: FastPoissonSolver using
    Stencil: 8*3+1=25 point O(h^6) finite-difference Laplacian
    FFT axes: [0, 1]
    FST axes: [2]
 

XC parameters: BEEF-vdW with 2 nearest neighbor stencil

Memory estimate:
  Process memory now: 215.13 MiB
  Calculator: 473.66 MiB
    Density: 50.57 MiB
      Arrays: 9.52 MiB
      Localized functions: 37.38 MiB
      Mixer: 3.66 MiB
    Hamiltonian: 9.04 MiB
      Arrays: 6.23 MiB
      XC: 0.00 MiB
      Poisson: 0.00 MiB
      vbar: 2.81 MiB
    Wavefunctions: 414.06 MiB
      Arrays psit_nG: 196.29 MiB
      Eigensolver: 210.92 MiB
      Projections: 0.54 MiB
      Projectors: 6.31 MiB

Total number of cores used: 40
Parallelization over k-points: 8
Domain decomposition: 1 x 1 x 5

Number of atoms: 38
Number of atomic orbitals: 1062
Number of bands in calculation: 268
Number of valence electrons: 439
Bands to converge: occupied

... initialized

Initializing position-dependent things.

Density initialized from atomic densities
Creating initial wave functions:
  268 bands from LCAO basis set

                                              
                                              
                                              
                                              
                                              
                                              
                    H                         
                                              
           Ti     TiO    Ti                   
                                              
            Ti     TTi    TTi                 
                                              
              Ti     TTi    TTi               
                Ti     Ti     Ti              
               Ti     Ti     Ti               
                 Ti     Ti     Ti             
                                              
           Ti     TTi    TTi     Ti           
                                              
            Ti      Ti     Ti                 
              Ti      Ti     Ti               
                                              
                                              
                                              
                                              

Positions:
   0 Ti     0.000000    0.000000   10.000000    ( 0.0000,  0.0000,  0.0000)
   1 Ti     1.450615    0.837513   12.368845    ( 0.0000,  0.0000,  0.0000)
   2 Ti    -0.000000    1.683540   14.802718    ( 0.0000,  0.0000,  0.0000)
   3 Ti    -0.000000   -0.000000   17.052536    ( 0.0000,  0.0000,  0.0000)
   4 Ti    -1.450615    2.512539   10.000000    ( 0.0000,  0.0000,  0.0000)
   5 Ti    -0.000000    3.350052   12.368845    ( 0.0000,  0.0000,  0.0000)
   6 Ti    -1.460491    4.181864   14.810195    ( 0.0000,  0.0000,  0.0000)
   7 Ti    -1.445663    2.504765   17.063618    ( 0.0000,  0.0000,  0.0000)
   8 Ti    -2.901231    5.025079   10.000000    ( 0.0000,  0.0000,  0.0000)
   9 Ti    -1.450615    5.862592   12.368845    ( 0.0000,  0.0000,  0.0000)
  10 Ti    -2.893857    6.695848   14.802718    ( 0.0000,  0.0000,  0.0000)
  11 Ti    -2.905487    5.033254   17.063618    ( 0.0000,  0.0000,  0.0000)
  12 Ti     2.901231    0.000000   10.000000    ( 0.0000,  0.0000,  0.0000)
  13 Ti     4.351846    0.837513   12.368845    ( 0.0000,  0.0000,  0.0000)
  14 Ti     2.888236    1.667524   14.807912    ( 0.0000,  0.0000,  0.0000)
  15 Ti     2.892022   -0.000402   17.063618    ( 0.0000,  0.0000,  0.0000)
  16 Ti     1.450615    2.512539   10.000000    ( 0.0000,  0.0000,  0.0000)
  17 Ti     2.901231    3.350052   12.368845    ( 0.0000,  0.0000,  0.0000)
  18 Ti     1.460491    4.181864   14.810195    ( 0.0000,  0.0000,  0.0000)
  19 Ti     1.445663    2.504765   17.063618    ( 0.0000,  0.0000,  0.0000)
  20 Ti    -0.000000    5.025079   10.000000    ( 0.0000,  0.0000,  0.0000)
  21 Ti     1.450615    5.862592   12.368845    ( 0.0000,  0.0000,  0.0000)
  22 Ti    -0.000000    6.711509   14.810195    ( 0.0000,  0.0000,  0.0000)
  23 Ti    -0.000000    5.025079   17.031043    ( 0.0000,  0.0000,  0.0000)
  24 Ti     5.802461    0.000000   10.000000    ( 0.0000,  0.0000,  0.0000)
  25 Ti     7.253076    0.837513   12.368845    ( 0.0000,  0.0000,  0.0000)
  26 Ti     5.815456    1.667524   14.807912    ( 0.0000,  0.0000,  0.0000)
  27 Ti     5.811670   -0.000402   17.063618    ( 0.0000,  0.0000,  0.0000)
  28 Ti     4.351846    2.512539   10.000000    ( 0.0000,  0.0000,  0.0000)
  29 Ti     5.802461    3.350052   12.368845    ( 0.0000,  0.0000,  0.0000)
  30 Ti     4.351846    4.202570   14.807912    ( 0.0000,  0.0000,  0.0000)
  31 Ti     4.351846    2.512539   17.027545    ( 0.0000,  0.0000,  0.0000)
  32 Ti     2.901231    5.025079   10.000000    ( 0.0000,  0.0000,  0.0000)
  33 Ti     4.351846    5.862592   12.368845    ( 0.0000,  0.0000,  0.0000)
  34 Ti     2.893857    6.695848   14.802718    ( 0.0000,  0.0000,  0.0000)
  35 Ti     2.905487    5.033254   17.063618    ( 0.0000,  0.0000,  0.0000)
  36 O      1.445663    2.504765   19.063618    ( 0.0000,  0.0000,  0.0000)
  37 H      1.445663    2.504765   20.023618    ( 0.0000,  0.0000,  0.0000)

Unit cell:
           periodic     x           y           z      points  spacing
  1. axis:    yes    8.703692    0.000000    0.000000    40     0.1884
  2. axis:    yes   -4.351846    7.537618    0.000000    40     0.1884
  3. axis:    no     0.000000    0.000000   27.106534   152     0.1783

  Lengths:   8.703692   8.703692  27.106534
  Angles:   90.000000  90.000000 120.000000

Effective grid spacing dv^(1/3) = 0.1941

     iter     time        total  log10-change:
                         energy  eigst   dens
iter:   1 12:26:06 -1998.980102
iter:   2 12:26:34 -1996.582230  -0.02  -1.09
iter:   3 12:27:02 -1988.328528  -0.91  -1.14
iter:   4 12:27:30 -1993.012982  -0.95  -1.23
iter:   5 12:27:58 -1981.472673  -0.47  -1.18
iter:   6 12:28:26 -1980.999516  -0.27  -1.43
iter:   7 12:28:54 -1980.405703  -1.11  -1.58
iter:   8 12:29:22 -1981.540580  -0.59  -1.66
iter:   9 12:29:50 -1981.175020  -1.16  -1.60
iter:  10 12:30:18 -1987.962936  -0.57  -1.75
iter:  11 12:30:46 -1980.551532  -1.29  -1.39
iter:  12 12:31:14 -1980.490278  -1.69  -2.11
iter:  13 12:31:42 -1980.146140  -1.78  -2.08
iter:  14 12:32:10 -1980.145179  -2.21  -2.26
iter:  15 12:32:38 -1980.171601c -2.44  -2.42
iter:  16 12:33:05 -1980.261848c -2.69  -2.48
iter:  17 12:33:33 -1980.200396c -2.72  -2.21
iter:  18 12:34:01 -1980.173559c -3.09  -2.44
iter:  19 12:34:29 -1980.172744c -2.97  -2.61
iter:  20 12:34:57 -1980.171486c -3.32  -2.67
iter:  21 12:35:25 -1980.176688c -2.96  -2.75
iter:  22 12:35:53 -1980.181390c -3.26  -3.01
iter:  23 12:36:21 -1980.185119c -3.67  -3.10
iter:  24 12:36:49 -1980.182435c -3.82  -2.86
iter:  25 12:37:16 -1980.180483c -3.91  -3.16
iter:  26 12:37:44 -1980.180947c -4.04  -3.35
iter:  27 12:38:12 -1980.180149c -4.13  -3.39
iter:  28 12:38:40 -1980.180156c -4.17  -3.53
iter:  29 12:39:08 -1980.181687c -4.22  -3.59
iter:  30 12:39:36 -1980.180431c -4.37  -3.20
iter:  31 12:40:04 -1980.180887c -4.61  -3.68
iter:  32 12:40:32 -1980.180843c -4.68  -3.84
iter:  33 12:41:00 -1980.181139c -4.77  -3.96
iter:  34 12:41:28 -1980.181054c -4.88  -3.97
iter:  35 12:41:56 -1980.180848c -4.98  -4.05c
iter:  36 12:42:23 -1980.180817c -5.07  -4.36c
iter:  37 12:42:51 -1980.180881c -5.11  -4.50c
iter:  38 12:43:19 -1980.180929c -5.20  -4.66c
iter:  39 12:43:47 -1980.180932c -5.26  -4.53c
iter:  40 12:44:15 -1980.181002c -5.39  -4.77c
iter:  41 12:44:43 -1980.180992c -5.46  -4.81c
iter:  42 12:45:11 -1980.180989c -5.52  -4.88c
iter:  43 12:45:39 -1980.180980c -5.59  -4.97c
iter:  44 12:46:07 -1980.181012c -5.65  -5.02c
iter:  45 12:46:35 -1980.181013c -5.74  -5.22c
iter:  46 12:47:03 -1980.181011c -5.77  -5.24c
iter:  47 12:47:31 -1980.180998c -5.78  -5.28c
iter:  48 12:47:59 -1980.181006c -5.91  -5.04c
iter:  49 12:48:27 -1980.181001c -6.03  -5.33c
iter:  50 12:48:54 -1980.181003c -6.11  -5.46c
iter:  51 12:49:22 -1980.181004c -6.13  -5.50c
iter:  52 12:49:50 -1980.181002c -6.22  -5.57c
iter:  53 12:50:18 -1980.181003c -6.27  -5.49c
iter:  54 12:50:46 -1980.181002c -6.37  -5.64c
iter:  55 12:51:14 -1980.180998c -6.44  -5.65c
iter:  56 12:51:42 -1980.180999c -6.48  -5.73c
iter:  57 12:52:10 -1980.180998c -6.51  -5.75c
iter:  58 12:52:38 -1980.180997c -6.57  -5.81c
iter:  59 12:53:06 -1980.180998c -6.68  -5.92c
iter:  60 12:53:34 -1980.180999c -6.69  -5.68c
iter:  61 12:54:02 -1980.180998c -6.81  -6.08c
iter:  62 12:54:29 -1980.180999c -6.86  -6.14c
iter:  63 12:54:57 -1980.180999c -6.86  -6.23c
iter:  64 12:55:25 -1980.180998c -6.92  -6.25c
iter:  65 12:55:53 -1980.180998c -7.02  -6.27c
iter:  66 12:56:21 -1980.180997c -7.11  -6.32c
iter:  67 12:56:49 -1980.180995c -7.11  -6.30c
iter:  68 12:57:17 -1980.180995c -7.15  -6.14c
iter:  69 12:57:45 -1980.180995c -7.24  -6.11c
iter:  70 12:58:13 -1980.180995c -7.24  -6.06c
iter:  71 12:58:41 -1980.180995c -7.29  -6.13c
iter:  72 12:59:08 -1980.180996c -7.31  -6.47c
iter:  73 12:59:36 -1980.180995c -7.31  -6.18c
iter:  74 13:00:04 -1980.180996c -7.43c -6.51c

Converged after 74 iterations.

Dipole moment: (-4.889907, -8.388467, 0.345962) |e|*Ang

Energy contributions relative to reference atoms: (reference = -838117.856603)

Kinetic:       +633.860782
Potential:     -582.851507
External:        +0.000000
XC:            -2025.269930
Entropy (-ST):   -2.491167
Local:           -4.674757
--------------------------
Free energy:   -1981.426579
Extrapolated:  -1980.180996

Showing only first 2 kpts
 Kpt  Band  Eigenvalues  Occupancy
  0   217     -4.37728    1.10601
  0   218     -4.37203    1.08001
  0   219     -4.34067    0.92353
  0   220     -4.33214    0.88129

  1   217     -4.32774    0.85966
  1   218     -4.30263    0.73935
  1   219     -4.27785    0.62801
  1   220     -4.26947    0.59250


Fermi level: -4.35599

No gap

Forces in eV/Ang:
  0 Ti    0.00066   -0.00062    0.46424
  1 Ti    0.03855    0.02421   -0.31071
  2 Ti   -0.11983   -0.06776   -0.11941
  3 Ti   -0.10245   -0.20432   -0.03067
  4 Ti    0.01921   -0.02679    0.34571
  5 Ti   -0.00334   -0.13313   -0.39448
  6 Ti    0.01689   -0.03008    0.01694
  7 Ti   -0.22547   -0.00652   -0.03919
  8 Ti   -0.01399    0.02733    0.35647
  9 Ti   -0.12239    0.06336   -0.40066
 10 Ti    0.00346    0.03586    0.00565
 11 Ti   -0.01137    0.01453    0.03658
 12 Ti   -0.03163   -0.00131    0.34551
 13 Ti   -0.00622   -0.09030   -0.31378
 14 Ti    0.12525   -0.07795   -0.12370
 15 Ti    0.09527   -0.19380   -0.03779
 16 Ti   -0.01586   -0.02689    0.33905
 17 Ti   -0.08357    0.04904   -0.31187
 18 Ti    0.01705    0.13426   -0.10883
 19 Ti   -0.00571   -0.01022    2.65282
 20 Ti    0.00170   -0.00076    0.32400
 21 Ti    0.11303    0.06124   -0.39733
 22 Ti    0.01782    0.03474   -0.03313
 23 Ti   -0.12368    0.19160   -0.03749
 24 Ti    0.03403   -0.00363    0.35328
 25 Ti   -0.03678    0.02934   -0.31304
 26 Ti    0.00492   -0.02300   -0.04522
 27 Ti    0.01528    0.00106   -0.05505
 28 Ti   -0.00002    0.00071    0.32270
 29 Ti    0.08214    0.05410   -0.31773
 30 Ti   -0.02956   -0.01866   -0.00115
 31 Ti    0.22871    0.01172   -0.04738
 32 Ti    0.01540    0.02723    0.34583
 33 Ti    0.00388   -0.04860   -0.31670
 34 Ti   -0.02005    0.00525   -0.03606
 35 Ti    0.12075    0.20092   -0.02984
 36 O    -0.00115   -0.00223   -1.73986
 37 H    -0.00253   -0.00367   -0.06999

      Step     Time          Energy         fmax
BFGS:    0 13:00:19    -1980.180996        2.6529
System changes: positions 

Initializing position-dependent things.

Density initialized from wave functions
                                              
                                              
                                              
                                              
                                              
                                              
                    H                         
                                              
           Ti     TiO    Ti                   
                                              
            Ti     TTi    TTi                 
                                              
              Ti     TTi    TTi               
                Ti     Ti     Ti              
               Ti     Ti     Ti               
                 Ti     Ti     Ti             
                                              
           Ti     TTi    TTi     Ti           
                                              
            Ti      Ti     Ti                 
              Ti      Ti     Ti               
                                              
                                              
                                              
                                              

Positions:
   0 Ti     0.000000    0.000000   10.000000    ( 0.0000,  0.0000,  0.0000)
   1 Ti     1.450615    0.837513   12.368845    ( 0.0000,  0.0000,  0.0000)
   2 Ti    -0.001712    1.682572   14.801012    ( 0.0000,  0.0000,  0.0000)
   3 Ti    -0.001464   -0.002919   17.052097    ( 0.0000,  0.0000,  0.0000)
   4 Ti    -1.450615    2.512539   10.000000    ( 0.0000,  0.0000,  0.0000)
   5 Ti    -0.000000    3.350052   12.368845    ( 0.0000,  0.0000,  0.0000)
   6 Ti    -1.460250    4.181434   14.810437    ( 0.0000,  0.0000,  0.0000)
   7 Ti    -1.448884    2.504672   17.063058    ( 0.0000,  0.0000,  0.0000)
   8 Ti    -2.901231    5.025079   10.000000    ( 0.0000,  0.0000,  0.0000)
   9 Ti    -1.450615    5.862592   12.368845    ( 0.0000,  0.0000,  0.0000)
  10 Ti    -2.893808    6.696360   14.802799    ( 0.0000,  0.0000,  0.0000)
  11 Ti    -2.905649    5.033462   17.064141    ( 0.0000,  0.0000,  0.0000)
  12 Ti     2.901231    0.000000   10.000000    ( 0.0000,  0.0000,  0.0000)
  13 Ti     4.351846    0.837513   12.368845    ( 0.0000,  0.0000,  0.0000)
  14 Ti     2.890025    1.666410   14.806145    ( 0.0000,  0.0000,  0.0000)
  15 Ti     2.893383   -0.003170   17.063078    ( 0.0000,  0.0000,  0.0000)
  16 Ti     1.450615    2.512539   10.000000    ( 0.0000,  0.0000,  0.0000)
  17 Ti     2.901231    3.350052   12.368845    ( 0.0000,  0.0000,  0.0000)
  18 Ti     1.460735    4.183782   14.808640    ( 0.0000,  0.0000,  0.0000)
  19 Ti     1.445581    2.504619   17.101516    ( 0.0000,  0.0000,  0.0000)
  20 Ti    -0.000000    5.025079   10.000000    ( 0.0000,  0.0000,  0.0000)
  21 Ti     1.450615    5.862592   12.368845    ( 0.0000,  0.0000,  0.0000)
  22 Ti     0.000255    6.712005   14.809722    ( 0.0000,  0.0000,  0.0000)
  23 Ti    -0.001767    5.027816   17.030508    ( 0.0000,  0.0000,  0.0000)
  24 Ti     5.802461    0.000000   10.000000    ( 0.0000,  0.0000,  0.0000)
  25 Ti     7.253076    0.837513   12.368845    ( 0.0000,  0.0000,  0.0000)
  26 Ti     5.815526    1.667195   14.807266    ( 0.0000,  0.0000,  0.0000)
  27 Ti     5.811888   -0.000387   17.062832    ( 0.0000,  0.0000,  0.0000)
  28 Ti     4.351846    2.512539   10.000000    ( 0.0000,  0.0000,  0.0000)
  29 Ti     5.802461    3.350052   12.368845    ( 0.0000,  0.0000,  0.0000)
  30 Ti     4.351424    4.202304   14.807896    ( 0.0000,  0.0000,  0.0000)
  31 Ti     4.355113    2.512707   17.026869    ( 0.0000,  0.0000,  0.0000)
  32 Ti     2.901231    5.025079   10.000000    ( 0.0000,  0.0000,  0.0000)
  33 Ti     4.351846    5.862592   12.368845    ( 0.0000,  0.0000,  0.0000)
  34 Ti     2.893571    6.695923   14.802203    ( 0.0000,  0.0000,  0.0000)
  35 Ti     2.907212    5.036125   17.063192    ( 0.0000,  0.0000,  0.0000)
  36 O      1.445647    2.504734   19.038763    ( 0.0000,  0.0000,  0.0000)
  37 H      1.445627    2.504713   20.022618    ( 0.0000,  0.0000,  0.0000)

Unit cell:
           periodic     x           y           z      points  spacing
  1. axis:    yes    8.703692    0.000000    0.000000    40     0.1884
  2. axis:    yes   -4.351846    7.537618    0.000000    40     0.1884
  3. axis:    no     0.000000    0.000000   27.106534   152     0.1783

  Lengths:   8.703692   8.703692  27.106534
  Angles:   90.000000  90.000000 120.000000

Effective grid spacing dv^(1/3) = 0.1941

     iter     time        total  log10-change:
                         energy  eigst   dens
iter:   1 13:01:37 -1980.344925  -1.97
iter:   2 13:02:06 -1980.483031  -2.58  -2.63
iter:   3 13:02:34 -1980.343367c -3.02  -2.12
iter:   4 13:03:03 -1980.317386c -3.37  -2.44
iter:   5 13:03:32 -1980.306010c -3.64  -2.84
iter:   6 13:04:00 -1980.302013c -3.64  -3.11
iter:   7 13:04:29 -1980.300503c -3.69  -3.36
iter:   8 13:04:57 -1980.299328c -3.90  -3.32
iter:   9 13:05:25 -1980.300154c -4.32  -3.67
iter:  10 13:05:54 -1980.301083c -4.51  -3.51
iter:  11 13:06:22 -1980.299690c -4.69  -3.08
iter:  12 13:06:51 -1980.299831c -4.96  -3.47
iter:  13 13:07:19 -1980.299761c -5.18  -3.94
iter:  14 13:07:48 -1980.299784c -5.24  -4.00
iter:  15 13:08:16 -1980.299684c -5.35  -4.11c
iter:  16 13:08:44 -1980.300214c -5.37  -4.00c
iter:  17 13:09:13 -1980.299878c -5.66  -3.63
iter:  18 13:09:41 -1980.299781c -5.88  -4.13c
iter:  19 13:10:10 -1980.299775c -5.98  -4.32c
iter:  20 13:10:38 -1980.299726c -5.91  -4.39c
iter:  21 13:11:07 -1980.299753c -6.11  -4.50c
iter:  22 13:11:35 -1980.299660c -6.24  -4.55c
iter:  23 13:12:03 -1980.299739c -6.42  -4.17c
iter:  24 13:12:32 -1980.299768c -6.55  -4.58c
iter:  25 13:13:00 -1980.299769c -6.62  -4.79c
iter:  26 13:13:29 -1980.299776c -6.69  -4.84c
iter:  27 13:13:57 -1980.299768c -6.81  -5.02c
iter:  28 13:14:25 -1980.299754c -6.84  -5.04c
iter:  29 13:14:54 -1980.299759c -7.06  -5.30c
iter:  30 13:15:22 -1980.299761c -7.14  -5.38c
iter:  31 13:15:51 -1980.299762c -7.19  -5.37c
iter:  32 13:16:19 -1980.299756c -7.30  -5.47c
iter:  33 13:16:48 -1980.299766c -7.34  -5.48c
iter:  34 13:17:16 -1980.299760c -7.50c -5.72c

Converged after 34 iterations.

Dipole moment: (-4.802526, -8.172594, 0.384839) |e|*Ang

Energy contributions relative to reference atoms: (reference = -838117.856603)

Kinetic:       +633.494626
Potential:     -582.892807
External:        +0.000000
XC:            -2024.986624
Entropy (-ST):   -2.493534
Local:           -4.668187
--------------------------
Free energy:   -1981.546527
Extrapolated:  -1980.299760

Showing only first 2 kpts
 Kpt  Band  Eigenvalues  Occupancy
  0   217     -4.34481    1.09418
  0   218     -4.34187    1.07959
  0   219     -4.31004    0.92074
  0   220     -4.30168    0.87940

  1   217     -4.29622    0.85257
  1   218     -4.27059    0.73018
  1   219     -4.25022    0.63860
  1   220     -4.24155    0.60151


Fermi level: -4.32592

No gap

Forces in eV/Ang:
  0 Ti   -0.00003   -0.00209    0.46351
  1 Ti    0.03835    0.02798   -0.30834
  2 Ti   -0.08946   -0.04351   -0.07549
  3 Ti   -0.08981   -0.19234   -0.04130
  4 Ti    0.01755   -0.02663    0.34506
  5 Ti    0.00002   -0.13506   -0.39157
  6 Ti    0.00918   -0.02506    0.01516
  7 Ti   -0.17945   -0.00532   -0.04961
  8 Ti   -0.01384    0.02721    0.35718
  9 Ti   -0.12243    0.06357   -0.40246
 10 Ti    0.00510    0.02615    0.00316
 11 Ti   -0.01022    0.01231    0.04185
 12 Ti   -0.03106   -0.00274    0.34474
 13 Ti   -0.01071   -0.08779   -0.30963
 14 Ti    0.08698   -0.06705   -0.08973
 15 Ti    0.06692   -0.15831   -0.04854
 16 Ti   -0.01577   -0.02696    0.34159
 17 Ti   -0.08688    0.04711   -0.30937
 18 Ti    0.01946    0.09679   -0.07488
 19 Ti    0.02390    0.03719    2.05478
 20 Ti    0.00070    0.00067    0.32340
 21 Ti    0.11307    0.05609   -0.39330
 22 Ti    0.02498    0.03254   -0.04121
 23 Ti   -0.11264    0.16226   -0.04346
 24 Ti    0.03415   -0.00372    0.35170
 25 Ti   -0.03232    0.03193   -0.30922
 26 Ti    0.00333   -0.03090   -0.05552
 27 Ti    0.01240    0.00092   -0.05111
 28 Ti    0.00151    0.00096    0.32174
 29 Ti    0.08218    0.05401   -0.31970
 30 Ti   -0.02277   -0.01045   -0.00278
 31 Ti    0.19698    0.01472   -0.05115
 32 Ti    0.01635    0.02854    0.34514
 33 Ti    0.00373   -0.04864   -0.31863
 34 Ti   -0.02553    0.01022   -0.04182
 35 Ti    0.09348    0.14399   -0.03595
 36 O    -0.00321   -0.00988   -0.12273
 37 H    -0.00288   -0.00408   -1.20986

BFGS:    1 13:17:31    -1980.299760        2.0553
System changes: positions 

Initializing position-dependent things.

Density initialized from wave functions
                                              
                                              
                                              
                                              
                                              
                                              
                    H                         
                                              
           Ti     TiO    Ti                   
                                              
            Ti     TTi    TTi                 
                                              
              Ti     TTi    TTi               
                Ti     Ti     Ti              
               Ti     Ti     Ti               
                 Ti     Ti     Ti             
                                              
           Ti     TTi    TTi     Ti           
                                              
            Ti      Ti     Ti                 
              Ti      Ti     Ti               
                                              
                                              
                                              
                                              

Positions:
   0 Ti     0.000000    0.000000   10.000000    ( 0.0000,  0.0000,  0.0000)
   1 Ti     1.450615    0.837513   12.368845    ( 0.0000,  0.0000,  0.0000)
   2 Ti    -0.007038    1.679801   14.796170    ( 0.0000,  0.0000,  0.0000)
   3 Ti    -0.006472   -0.013358   17.050106    ( 0.0000,  0.0000,  0.0000)
   4 Ti    -1.450615    2.512539   10.000000    ( 0.0000,  0.0000,  0.0000)
   5 Ti    -0.000000    3.350052   12.368845    ( 0.0000,  0.0000,  0.0000)
   6 Ti    -1.459616    4.180008   14.811276    ( 0.0000,  0.0000,  0.0000)
   7 Ti    -1.459286    2.504367   17.060622    ( 0.0000,  0.0000,  0.0000)
   8 Ti    -2.901231    5.025079   10.000000    ( 0.0000,  0.0000,  0.0000)
   9 Ti    -1.450615    5.862592   12.368845    ( 0.0000,  0.0000,  0.0000)
  10 Ti    -2.893568    6.697933   14.803013    ( 0.0000,  0.0000,  0.0000)
  11 Ti    -2.906214    5.034157   17.066263    ( 0.0000,  0.0000,  0.0000)
  12 Ti     2.901231    0.000000   10.000000    ( 0.0000,  0.0000,  0.0000)
  13 Ti     4.351846    0.837513   12.368845    ( 0.0000,  0.0000,  0.0000)
  14 Ti     2.895370    1.662643   14.800735    ( 0.0000,  0.0000,  0.0000)
  15 Ti     2.897475   -0.012250   17.060705    ( 0.0000,  0.0000,  0.0000)
  16 Ti     1.450615    2.512539   10.000000    ( 0.0000,  0.0000,  0.0000)
  17 Ti     2.901231    3.350052   12.368845    ( 0.0000,  0.0000,  0.0000)
  18 Ti     1.461722    4.189633   14.804020    ( 0.0000,  0.0000,  0.0000)
  19 Ti     1.446288    2.505693   17.221972    ( 0.0000,  0.0000,  0.0000)
  20 Ti    -0.000000    5.025079   10.000000    ( 0.0000,  0.0000,  0.0000)
  21 Ti     1.450615    5.862592   12.368845    ( 0.0000,  0.0000,  0.0000)
  22 Ti     0.001445    6.713774   14.807687    ( 0.0000,  0.0000,  0.0000)
  23 Ti    -0.007957    5.036988   17.028313    ( 0.0000,  0.0000,  0.0000)
  24 Ti     5.802461    0.000000   10.000000    ( 0.0000,  0.0000,  0.0000)
  25 Ti     7.253076    0.837513   12.368845    ( 0.0000,  0.0000,  0.0000)
  26 Ti     5.815733    1.665704   14.804514    ( 0.0000,  0.0000,  0.0000)
  27 Ti     5.812601   -0.000335   17.060043    ( 0.0000,  0.0000,  0.0000)
  28 Ti     4.351846    2.512539   10.000000    ( 0.0000,  0.0000,  0.0000)
  29 Ti     5.802461    3.350052   12.368845    ( 0.0000,  0.0000,  0.0000)
  30 Ti     4.350086    4.201593   14.807779    ( 0.0000,  0.0000,  0.0000)
  31 Ti     4.366174    2.513432   17.024224    ( 0.0000,  0.0000,  0.0000)
  32 Ti     2.901231    5.025079   10.000000    ( 0.0000,  0.0000,  0.0000)
  33 Ti     4.351846    5.862592   12.368845    ( 0.0000,  0.0000,  0.0000)
  34 Ti     2.892319    6.696371   14.800092    ( 0.0000,  0.0000,  0.0000)
  35 Ti     2.912693    5.044851   17.061399    ( 0.0000,  0.0000,  0.0000)
  36 O      1.445516    2.504354   19.001526    ( 0.0000,  0.0000,  0.0000)
  37 H      1.445481    2.504504   19.980036    ( 0.0000,  0.0000,  0.0000)

Unit cell:
           periodic     x           y           z      points  spacing
  1. axis:    yes    8.703692    0.000000    0.000000    40     0.1884
  2. axis:    yes   -4.351846    7.537618    0.000000    40     0.1884
  3. axis:    no     0.000000    0.000000   27.106534   152     0.1783

  Lengths:   8.703692   8.703692  27.106534
  Angles:   90.000000  90.000000 120.000000

Effective grid spacing dv^(1/3) = 0.1941

     iter     time        total  log10-change:
                         energy  eigst   dens
iter:   1 13:18:48 -1981.529377  -1.01
iter:   2 13:19:17 -1991.841511  -0.94  -1.85
iter:   3 13:19:45 -1981.702179  -1.57  -1.27
iter:   4 13:20:13 -1980.567156  -2.26  -1.71
iter:   5 13:20:42 -1980.485710  -2.57  -2.44
iter:   6 13:21:10 -1980.436939c -2.38  -2.57
iter:   7 13:21:39 -1980.432909c -2.60  -2.85
iter:   8 13:22:07 -1980.432838c -3.03  -2.93
iter:   9 13:22:36 -1980.439345c -3.11  -2.80
iter:  10 13:23:04 -1980.430611c -3.51  -2.68
iter:  11 13:23:33 -1980.427070c -3.82  -2.95
iter:  12 13:24:01 -1980.423871c -3.67  -2.95
iter:  13 13:24:29 -1980.424027c -4.07  -3.26
iter:  14 13:24:58 -1980.424619c -3.81  -3.24
iter:  15 13:25:26 -1980.424986c -4.12  -3.51
iter:  16 13:25:55 -1980.424313c -4.32  -3.49
iter:  17 13:26:23 -1980.424476c -4.58  -3.29
iter:  18 13:26:52 -1980.424935c -4.56  -3.64
iter:  19 13:27:20 -1980.425798c -4.52  -3.74
iter:  20 13:27:49 -1980.425243c -4.91  -3.46
iter:  21 13:28:17 -1980.425092c -5.06  -3.93
iter:  22 13:28:45 -1980.425326c -5.09  -4.07c
iter:  23 13:29:14 -1980.424583c -5.19  -3.76
iter:  24 13:29:42 -1980.424710c -5.36  -3.80
iter:  25 13:30:10 -1980.424787c -5.58  -4.33c
iter:  26 13:30:39 -1980.424860c -5.71  -4.20c
iter:  27 13:31:07 -1980.424862c -5.86  -4.45c
iter:  28 13:31:36 -1980.424832c -5.94  -4.54c
iter:  29 13:32:04 -1980.424774c -6.02  -4.46c
iter:  30 13:32:32 -1980.424847c -6.13  -4.32c
iter:  31 13:33:01 -1980.424807c -6.27  -4.63c
iter:  32 13:33:29 -1980.424829c -6.31  -4.47c
iter:  33 13:33:58 -1980.424856c -6.37  -4.77c
iter:  34 13:34:26 -1980.424867c -6.52  -4.73c
iter:  35 13:34:54 -1980.424854c -6.61  -4.90c
iter:  36 13:35:23 -1980.424836c -6.76  -5.26c
iter:  37 13:35:51 -1980.424838c -6.87  -5.43c
iter:  38 13:36:20 -1980.424834c -6.94  -5.43c
iter:  39 13:36:48 -1980.424834c -7.02  -5.27c
iter:  40 13:37:16 -1980.424843c -7.09  -5.44c
iter:  41 13:37:45 -1980.424844c -7.16  -5.67c
iter:  42 13:38:13 -1980.424845c -7.27  -5.71c
iter:  43 13:38:41 -1980.424842c -7.40c -5.75c

Converged after 43 iterations.

Dipole moment: (-4.491088, -7.390821, 0.455326) |e|*Ang

Energy contributions relative to reference atoms: (reference = -838117.856603)

Kinetic:       +637.911695
Potential:     -587.055309
External:        +0.000000
XC:            -2025.374452
Entropy (-ST):   -2.495283
Local:           -4.659134
--------------------------
Free energy:   -1981.672484
Extrapolated:  -1980.424842

Showing only first 2 kpts
 Kpt  Band  Eigenvalues  Occupancy
  0   217     -4.29042    1.09352
  0   218     -4.28026    1.04296
  0   219     -4.25777    0.93065
  0   220     -4.24571    0.87098

  1   217     -4.23629    0.82496
  1   218     -4.21753    0.73576
  1   219     -4.20778    0.69105
  1   220     -4.18863    0.60716


Fermi level: -4.27166

No gap

Forces in eV/Ang:
  0 Ti   -0.00233   -0.00572    0.46210
  1 Ti    0.03773    0.03599   -0.30423
  2 Ti   -0.02970    0.00622    0.04195
  3 Ti   -0.05764   -0.16749   -0.06241
  4 Ti    0.01316   -0.02677    0.34405
  5 Ti    0.00730   -0.13937   -0.38553
  6 Ti   -0.01689   -0.00605    0.00612
  7 Ti   -0.03517    0.00533   -0.06864
  8 Ti   -0.01344    0.02697    0.35895
  9 Ti   -0.12197    0.06468   -0.40995
 10 Ti    0.00899   -0.00779   -0.00844
 11 Ti   -0.00629    0.00320    0.05208
 12 Ti   -0.02908   -0.00628    0.34325
 13 Ti   -0.02353   -0.08087   -0.29880
 14 Ti    0.01187   -0.04977   -0.00119
 15 Ti   -0.01221   -0.04146   -0.06890
 16 Ti   -0.01561   -0.02709    0.34819
 17 Ti   -0.09387    0.04288   -0.30472
 18 Ti    0.02267    0.02371    0.01171
 19 Ti    0.00455    0.00695   -0.71148
 20 Ti   -0.00147    0.00467    0.32264
 21 Ti    0.11358    0.04159   -0.38253
 22 Ti    0.04557    0.02091   -0.07252
 23 Ti   -0.08262    0.05714   -0.04284
 24 Ti    0.03447   -0.00390    0.34638
 25 Ti   -0.01974    0.03925   -0.29931
 26 Ti   -0.00477   -0.05208   -0.09397
 27 Ti    0.00142    0.00028   -0.03356
 28 Ti    0.00556    0.00089    0.31979
 29 Ti    0.08235    0.05314   -0.32801
 30 Ti    0.00077    0.01441   -0.01050
 31 Ti    0.08704    0.01009   -0.04369
 32 Ti    0.01839    0.03233    0.34401
 33 Ti    0.00272   -0.04868   -0.32653
 34 Ti   -0.03979    0.02515   -0.06329
 35 Ti   -0.00285   -0.04832   -0.03657
 36 O    -0.02483   -0.04371    2.35115
 37 H     0.00251    0.00465   -0.96847

BFGS:    2 13:38:56    -1980.424842        2.3517
System changes: positions 

Initializing position-dependent things.

Density initialized from wave functions
                                              
                                              
                                              
                                              
                                              
                                              
                    H                         
                                              
           Ti     TiO    Ti                   
                                              
            Ti     TTi    TTi                 
                                              
              Ti     TTi    TTi               
                Ti     Ti     Ti              
               Ti     Ti     Ti               
                 Ti     Ti     Ti             
                                              
           Ti     TTi    TTi     Ti           
                                              
            Ti      Ti     Ti                 
              Ti      Ti     Ti               
                                              
                                              
                                              
                                              

Positions:
   0 Ti     0.000000    0.000000   10.000000    ( 0.0000,  0.0000,  0.0000)
   1 Ti     1.450615    0.837513   12.368845    ( 0.0000,  0.0000,  0.0000)
   2 Ti    -0.006617    1.680207   14.797190    ( 0.0000,  0.0000,  0.0000)
   3 Ti    -0.006311   -0.013446   17.049833    ( 0.0000,  0.0000,  0.0000)
   4 Ti    -1.450615    2.512539   10.000000    ( 0.0000,  0.0000,  0.0000)
   5 Ti    -0.000000    3.350052   12.368845    ( 0.0000,  0.0000,  0.0000)
   6 Ti    -1.459858    4.180154   14.811211    ( 0.0000,  0.0000,  0.0000)
   7 Ti    -1.458170    2.504466   17.060355    ( 0.0000,  0.0000,  0.0000)
   8 Ti    -2.901231    5.025079   10.000000    ( 0.0000,  0.0000,  0.0000)
   9 Ti    -1.450615    5.862592   12.368845    ( 0.0000,  0.0000,  0.0000)
  10 Ti    -2.893522    6.697642   14.802903    ( 0.0000,  0.0000,  0.0000)
  11 Ti    -2.906192    5.034088   17.066432    ( 0.0000,  0.0000,  0.0000)
  12 Ti     2.901231    0.000000   10.000000    ( 0.0000,  0.0000,  0.0000)
  13 Ti     4.351846    0.837513   12.368845    ( 0.0000,  0.0000,  0.0000)
  14 Ti     2.894797    1.662692   14.801447    ( 0.0000,  0.0000,  0.0000)
  15 Ti     2.896813   -0.011366   17.060428    ( 0.0000,  0.0000,  0.0000)
  16 Ti     1.450615    2.512539   10.000000    ( 0.0000,  0.0000,  0.0000)
  17 Ti     2.901231    3.350052   12.368845    ( 0.0000,  0.0000,  0.0000)
  18 Ti     1.461785    4.189096   14.804737    ( 0.0000,  0.0000,  0.0000)
  19 Ti     1.446092    2.505385   17.197856    ( 0.0000,  0.0000,  0.0000)
  20 Ti    -0.000000    5.025079   10.000000    ( 0.0000,  0.0000,  0.0000)
  21 Ti     1.450615    5.862592   12.368845    ( 0.0000,  0.0000,  0.0000)
  22 Ti     0.001689    6.713713   14.807306    ( 0.0000,  0.0000,  0.0000)
  23 Ti    -0.007855    5.036223   17.028253    ( 0.0000,  0.0000,  0.0000)
  24 Ti     5.802461    0.000000   10.000000    ( 0.0000,  0.0000,  0.0000)
  25 Ti     7.253076    0.837513   12.368845    ( 0.0000,  0.0000,  0.0000)
  26 Ti     5.815658    1.665445   14.804038    ( 0.0000,  0.0000,  0.0000)
  27 Ti     5.812513   -0.000340   17.060131    ( 0.0000,  0.0000,  0.0000)
  28 Ti     4.351846    2.512539   10.000000    ( 0.0000,  0.0000,  0.0000)
  29 Ti     5.802461    3.350052   12.368845    ( 0.0000,  0.0000,  0.0000)
  30 Ti     4.350280    4.201820   14.807697    ( 0.0000,  0.0000,  0.0000)
  31 Ti     4.365422    2.513405   17.024219    ( 0.0000,  0.0000,  0.0000)
  32 Ti     2.901231    5.025079   10.000000    ( 0.0000,  0.0000,  0.0000)
  33 Ti     4.351846    5.862592   12.368845    ( 0.0000,  0.0000,  0.0000)
  34 Ti     2.892137    6.696535   14.799808    ( 0.0000,  0.0000,  0.0000)
  35 Ti     2.911899    5.043196   17.061339    ( 0.0000,  0.0000,  0.0000)
  36 O      1.445291    2.504000   19.024621    ( 0.0000,  0.0000,  0.0000)
  37 H      1.445531    2.504587   19.981919    ( 0.0000,  0.0000,  0.0000)

Unit cell:
           periodic     x           y           z      points  spacing
  1. axis:    yes    8.703692    0.000000    0.000000    40     0.1884
  2. axis:    yes   -4.351846    7.537618    0.000000    40     0.1884
  3. axis:    no     0.000000    0.000000   27.106534   152     0.1783

  Lengths:   8.703692   8.703692  27.106534
  Angles:   90.000000  90.000000 120.000000

Effective grid spacing dv^(1/3) = 0.1941

     iter     time        total  log10-change:
                         energy  eigst   dens
iter:   1 13:40:13 -1980.470059  -2.18
iter:   2 13:40:42 -1980.481697  -2.94  -2.87
iter:   3 13:41:10 -1980.506401c -3.24  -2.66
iter:   4 13:41:39 -1980.463093c -3.71  -2.44
iter:   5 13:42:07 -1980.461325c -3.95  -3.06
iter:   6 13:42:36 -1980.459463c -3.92  -3.30
iter:   7 13:43:04 -1980.458472c -3.93  -3.32
iter:   8 13:43:32 -1980.458080c -4.33  -3.41
iter:   9 13:44:01 -1980.458142c -4.61  -3.62
iter:  10 13:44:29 -1980.457753c -4.76  -3.32
iter:  11 13:44:58 -1980.458048c -5.06  -3.61
iter:  12 13:45:26 -1980.457516c -5.22  -3.66
iter:  13 13:45:54 -1980.457747c -5.45  -3.90
iter:  14 13:46:23 -1980.457715c -5.61  -4.19c
iter:  15 13:46:51 -1980.457712c -5.56  -4.21c
iter:  16 13:47:20 -1980.457684c -5.81  -4.34c
iter:  17 13:47:50 -1980.457658c -5.94  -3.97
iter:  18 13:48:18 -1980.457692c -6.22  -4.50c
iter:  19 13:48:46 -1980.457667c -6.32  -4.62c
iter:  20 13:49:16 -1980.457695c -6.47  -4.59c
iter:  21 13:49:44 -1980.457695c -6.45  -4.64c
iter:  22 13:50:13 -1980.457742c -6.49  -4.81c
iter:  23 13:50:41 -1980.457708c -6.68  -4.41c
iter:  24 13:51:09 -1980.457714c -6.92  -4.98c
iter:  25 13:51:38 -1980.457693c -6.99  -4.91c
iter:  26 13:52:06 -1980.457711c -7.10  -4.99c
iter:  27 13:52:35 -1980.457706c -7.15  -4.98c
iter:  28 13:53:03 -1980.457700c -7.24  -5.27c
iter:  29 13:53:31 -1980.457707c -7.36  -5.27c
iter:  30 13:54:00 -1980.457706c -7.48c -5.15c

Converged after 30 iterations.

Dipole moment: (-4.509060, -7.411161, 0.424374) |e|*Ang

Energy contributions relative to reference atoms: (reference = -838117.856603)

Kinetic:       +637.085522
Potential:     -586.177114
External:        +0.000000
XC:            -2025.455407
Entropy (-ST):   -2.495721
Local:           -4.662847
--------------------------
Free energy:   -1981.705566
Extrapolated:  -1980.457706

Showing only first 2 kpts
 Kpt  Band  Eigenvalues  Occupancy
  0   217     -4.31363    1.09034
  0   218     -4.30597    1.05227
  0   219     -4.28104    0.92776
  0   220     -4.26989    0.87260

  1   217     -4.26127    0.83043
  1   218     -4.24016    0.73009
  1   219     -4.22848    0.67686
  1   220     -4.21273    0.60820


Fermi level: -4.29551

No gap

Forces in eV/Ang:
  0 Ti   -0.00185   -0.00514    0.46181
  1 Ti    0.03764    0.03447   -0.30461
  2 Ti   -0.03128    0.00088    0.02598
  3 Ti   -0.06671   -0.17854   -0.05633
  4 Ti    0.01392   -0.02670    0.34378
  5 Ti    0.00596   -0.13847   -0.38597
  6 Ti   -0.01312   -0.00656    0.00602
  7 Ti   -0.05528    0.00109   -0.06055
  8 Ti   -0.01350    0.02706    0.35875
  9 Ti   -0.12208    0.06459   -0.40911
 10 Ti    0.00748   -0.00466   -0.00819
 11 Ti   -0.00730    0.00378    0.04904
 12 Ti   -0.02954   -0.00573    0.34301
 13 Ti   -0.02090   -0.08249   -0.30283
 14 Ti    0.01876   -0.04659   -0.01137
 15 Ti    0.00146   -0.05589   -0.06007
 16 Ti   -0.01566   -0.02707    0.34694
 17 Ti   -0.09235    0.04354   -0.30520
 18 Ti    0.02012    0.02640    0.00136
 19 Ti    0.00628    0.00754    0.32264
 20 Ti   -0.00118    0.00389    0.32238
 21 Ti    0.11366    0.04470   -0.38634
 22 Ti    0.03972    0.01762   -0.06677
 23 Ti   -0.08625    0.07330   -0.03836
 24 Ti    0.03449   -0.00388    0.34671
 25 Ti   -0.02233    0.03771   -0.30285
 26 Ti   -0.00632   -0.04486   -0.08807
 27 Ti    0.00206   -0.00020   -0.03672
 28 Ti    0.00489    0.00100    0.31961
 29 Ti    0.08229    0.05337   -0.32719
 30 Ti   -0.00083    0.00996   -0.00998
 31 Ti    0.10233    0.00756   -0.04070
 32 Ti    0.01809    0.03170    0.34377
 33 Ti    0.00278   -0.04884   -0.32572
 34 Ti   -0.03384    0.02150   -0.05685
 35 Ti    0.01120   -0.01490   -0.03276
 36 O     0.00107    0.00125    0.25923
 37 H     0.00251    0.00498    0.04574

BFGS:    3 13:54:14    -1980.457706        0.3228
System changes: positions 

Initializing position-dependent things.

Density initialized from wave functions
                                              
                                              
                                              
                                              
                                              
                                              
                    H                         
                                              
           Ti     TiO    Ti                   
                                              
            Ti     TTi    TTi                 
                                              
              Ti     TTi    TTi               
                Ti     Ti     Ti              
               Ti     Ti     Ti               
                 Ti     Ti     Ti             
                                              
           Ti     TTi    TTi     Ti           
                                              
            Ti      Ti     Ti                 
              Ti      Ti     Ti               
                                              
                                              
                                              
                                              

Positions:
   0 Ti     0.000000    0.000000   10.000000    ( 0.0000,  0.0000,  0.0000)
   1 Ti     1.450615    0.837513   12.368845    ( 0.0000,  0.0000,  0.0000)
   2 Ti    -0.007461    1.680036   14.797294    ( 0.0000,  0.0000,  0.0000)
   3 Ti    -0.007659   -0.016879   17.048827    ( 0.0000,  0.0000,  0.0000)
   4 Ti    -1.450615    2.512539   10.000000    ( 0.0000,  0.0000,  0.0000)
   5 Ti    -0.000000    3.350052   12.368845    ( 0.0000,  0.0000,  0.0000)
   6 Ti    -1.460027    4.179962   14.811357    ( 0.0000,  0.0000,  0.0000)
   7 Ti    -1.459670    2.504473   17.059253    ( 0.0000,  0.0000,  0.0000)
   8 Ti    -2.901231    5.025079   10.000000    ( 0.0000,  0.0000,  0.0000)
   9 Ti    -1.450615    5.862592   12.368845    ( 0.0000,  0.0000,  0.0000)
  10 Ti    -2.893388    6.697665   14.802788    ( 0.0000,  0.0000,  0.0000)
  11 Ti    -2.906340    5.034190   17.067331    ( 0.0000,  0.0000,  0.0000)
  12 Ti     2.901231    0.000000   10.000000    ( 0.0000,  0.0000,  0.0000)
  13 Ti     4.351846    0.837513   12.368845    ( 0.0000,  0.0000,  0.0000)
  14 Ti     2.895445    1.661713   14.800928    ( 0.0000,  0.0000,  0.0000)
  15 Ti     2.897084   -0.012796   17.059335    ( 0.0000,  0.0000,  0.0000)
  16 Ti     1.450615    2.512539   10.000000    ( 0.0000,  0.0000,  0.0000)
  17 Ti     2.901231    3.350052   12.368845    ( 0.0000,  0.0000,  0.0000)
  18 Ti     1.462163    4.189901   14.804466    ( 0.0000,  0.0000,  0.0000)
  19 Ti     1.446179    2.505485   17.208616    ( 0.0000,  0.0000,  0.0000)
  20 Ti    -0.000000    5.025079   10.000000    ( 0.0000,  0.0000,  0.0000)
  21 Ti     1.450615    5.862592   12.368845    ( 0.0000,  0.0000,  0.0000)
  22 Ti     0.002390    6.714104   14.806128    ( 0.0000,  0.0000,  0.0000)
  23 Ti    -0.009590    5.037923   17.027519    ( 0.0000,  0.0000,  0.0000)
  24 Ti     5.802461    0.000000   10.000000    ( 0.0000,  0.0000,  0.0000)
  25 Ti     7.253076    0.837513   12.368845    ( 0.0000,  0.0000,  0.0000)
  26 Ti     5.815574    1.664643   14.802483    ( 0.0000,  0.0000,  0.0000)
  27 Ti     5.812589   -0.000339   17.059389    ( 0.0000,  0.0000,  0.0000)
  28 Ti     4.351846    2.512539   10.000000    ( 0.0000,  0.0000,  0.0000)
  29 Ti     5.802461    3.350052   12.368845    ( 0.0000,  0.0000,  0.0000)
  30 Ti     4.350184    4.201934   14.807533    ( 0.0000,  0.0000,  0.0000)
  31 Ti     4.367696    2.513567   17.023421    ( 0.0000,  0.0000,  0.0000)
  32 Ti     2.901231    5.025079   10.000000    ( 0.0000,  0.0000,  0.0000)
  33 Ti     4.351846    5.862592   12.368845    ( 0.0000,  0.0000,  0.0000)
  34 Ti     2.891523    6.696903   14.798778    ( 0.0000,  0.0000,  0.0000)
  35 Ti     2.912401    5.043472   17.060718    ( 0.0000,  0.0000,  0.0000)
  36 O      1.445251    2.503920   19.028265    ( 0.0000,  0.0000,  0.0000)
  37 H      1.445564    2.504655   19.980103    ( 0.0000,  0.0000,  0.0000)

Unit cell:
           periodic     x           y           z      points  spacing
  1. axis:    yes    8.703692    0.000000    0.000000    40     0.1884
  2. axis:    yes   -4.351846    7.537618    0.000000    40     0.1884
  3. axis:    no     0.000000    0.000000   27.106534   152     0.1783

  Lengths:   8.703692   8.703692  27.106534
  Angles:   90.000000  90.000000 120.000000

Effective grid spacing dv^(1/3) = 0.1941

     iter     time        total  log10-change:
                         energy  eigst   dens
iter:   1 13:55:32 -1980.474634  -2.95
iter:   2 13:56:00 -1980.583226  -3.06  -2.85
iter:   3 13:56:29 -1980.471283c -3.61  -2.22
iter:   4 13:56:57 -1980.464756c -4.23  -2.72
iter:   5 13:57:26 -1980.463174c -4.57  -3.37
iter:   6 13:57:54 -1980.463272c -4.22  -3.51
iter:   7 13:58:23 -1980.463432c -4.45  -3.68
iter:   8 13:58:52 -1980.463207c -4.99  -3.87
iter:   9 13:59:20 -1980.462922c -5.16  -3.76
iter:  10 13:59:49 -1980.463095c -5.43  -3.86
iter:  11 14:00:17 -1980.462799c -5.77  -3.90
iter:  12 14:00:46 -1980.462779c -5.58  -3.97
iter:  13 14:01:14 -1980.462769c -5.89  -4.37c
iter:  14 14:01:43 -1980.462852c -6.11  -4.42c
iter:  15 14:02:11 -1980.462954c -6.20  -4.50c
iter:  16 14:02:40 -1980.462879c -6.26  -4.41c
iter:  17 14:03:09 -1980.462978c -6.42  -4.28c
iter:  18 14:03:37 -1980.462947c -6.71  -4.56c
iter:  19 14:04:06 -1980.462852c -6.75  -4.68c
iter:  20 14:04:34 -1980.462864c -6.94  -4.88c
iter:  21 14:05:03 -1980.462901c -7.14  -5.03c
iter:  22 14:05:31 -1980.462887c -7.25  -5.14c
iter:  23 14:06:00 -1980.462914c -7.35  -4.80c
iter:  24 14:06:28 -1980.462899c -7.50c -5.11c

Converged after 24 iterations.

Dipole moment: (-4.440770, -7.209782, 0.424619) |e|*Ang

Energy contributions relative to reference atoms: (reference = -838117.856603)

Kinetic:       +637.578892
Potential:     -586.585344
External:        +0.000000
XC:            -2025.544229
Entropy (-ST):   -2.495681
Local:           -4.664378
--------------------------
Free energy:   -1981.710739
Extrapolated:  -1980.462899

Showing only first 2 kpts
 Kpt  Band  Eigenvalues  Occupancy
  0   217     -4.31357    1.09095
  0   218     -4.30509    1.04874
  0   219     -4.28114    0.92917
  0   220     -4.26951    0.87157

  1   217     -4.26071    0.82857
  1   218     -4.24046    0.73229
  1   219     -4.22931    0.68138
  1   220     -4.21211    0.60635


Fermi level: -4.29533

No gap

Forces in eV/Ang:
  0 Ti   -0.00190   -0.00538    0.46166
  1 Ti    0.03739    0.03498   -0.30460
  2 Ti   -0.02456    0.00217    0.03496
  3 Ti   -0.06602   -0.18253   -0.05352
  4 Ti    0.01368   -0.02669    0.34378
  5 Ti    0.00645   -0.13870   -0.38537
  6 Ti   -0.01572   -0.00181    0.00315
  7 Ti   -0.04019    0.00211   -0.05775
  8 Ti   -0.01343    0.02712    0.35895
  9 Ti   -0.12201    0.06490   -0.41066
 10 Ti    0.00665   -0.01040   -0.01108
 11 Ti   -0.00717    0.00129    0.04854
 12 Ti   -0.02958   -0.00600    0.34291
 13 Ti   -0.02192   -0.08230   -0.30386
 14 Ti    0.01541   -0.04071   -0.00187
 15 Ti   -0.00359   -0.04162   -0.05684
 16 Ti   -0.01570   -0.02707    0.34804
 17 Ti   -0.09258    0.04307   -0.30513
 18 Ti    0.01671    0.01894    0.00985
 19 Ti    0.00866    0.01159    0.18156
 20 Ti   -0.00136    0.00402    0.32248
 21 Ti    0.11397    0.04375   -0.38707
 22 Ti    0.03937    0.01164   -0.07017
 23 Ti   -0.08174    0.05858   -0.03176
 24 Ti    0.03461   -0.00388    0.34597
 25 Ti   -0.02143    0.03829   -0.30357
 26 Ti   -0.01048   -0.04306   -0.09281
 27 Ti   -0.00064   -0.00098   -0.03503
 28 Ti    0.00514    0.00108    0.31947
 29 Ti    0.08225    0.05330   -0.32901
 30 Ti    0.00364    0.01112   -0.01139
 31 Ti    0.08771    0.00366   -0.03514
 32 Ti    0.01823    0.03195    0.34378
 33 Ti    0.00249   -0.04906   -0.32742
 34 Ti   -0.03192    0.02156   -0.05604
 35 Ti    0.00234   -0.02949   -0.02794
 36 O    -0.00091   -0.00295    0.09568
 37 H     0.00267    0.00525    0.33757

BFGS:    4 14:06:43    -1980.462899        0.3376
System changes: positions 

Initializing position-dependent things.

Density initialized from wave functions
                                              
                                              
                                              
                                              
                                              
                                              
                    H                         
                                              
           Ti     TiO    Ti                   
                                              
            Ti     TTi    TTi                 
                                              
              Ti     TTi    TTi               
                Ti     Ti     Ti              
               Ti     Ti     Ti               
                 Ti     Ti     Ti             
                                              
           Ti     TTi    TTi     Ti           
                                              
             Ti     Ti     Ti                 
              Ti      Ti     Ti               
                                              
                                              
                                              
                                              

Positions:
   0 Ti     0.000000    0.000000   10.000000    ( 0.0000,  0.0000,  0.0000)
   1 Ti     1.450615    0.837513   12.368845    ( 0.0000,  0.0000,  0.0000)
   2 Ti    -0.009599    1.679803   14.798494    ( 0.0000,  0.0000,  0.0000)
   3 Ti    -0.011855   -0.027999   17.045582    ( 0.0000,  0.0000,  0.0000)
   4 Ti    -1.450615    2.512539   10.000000    ( 0.0000,  0.0000,  0.0000)
   5 Ti    -0.000000    3.350052   12.368845    ( 0.0000,  0.0000,  0.0000)
   6 Ti    -1.460774    4.179596   14.811689    ( 0.0000,  0.0000,  0.0000)
   7 Ti    -1.463350    2.504552   17.055715    ( 0.0000,  0.0000,  0.0000)
   8 Ti    -2.901231    5.025079   10.000000    ( 0.0000,  0.0000,  0.0000)
   9 Ti    -1.450615    5.862592   12.368845    ( 0.0000,  0.0000,  0.0000)
  10 Ti    -2.892973    6.697390   14.802265    ( 0.0000,  0.0000,  0.0000)
  11 Ti    -2.906799    5.034392   17.070262    ( 0.0000,  0.0000,  0.0000)
  12 Ti     2.901231    0.000000   10.000000    ( 0.0000,  0.0000,  0.0000)
  13 Ti     4.351846    0.837513   12.368845    ( 0.0000,  0.0000,  0.0000)
  14 Ti     2.896996    1.658886   14.800010    ( 0.0000,  0.0000,  0.0000)
  15 Ti     2.897433   -0.016399   17.055843    ( 0.0000,  0.0000,  0.0000)
  16 Ti     1.450615    2.512539   10.000000    ( 0.0000,  0.0000,  0.0000)
  17 Ti     2.901231    3.350052   12.368845    ( 0.0000,  0.0000,  0.0000)
  18 Ti     1.463276    4.191811   14.804304    ( 0.0000,  0.0000,  0.0000)
  19 Ti     1.446611    2.506049   17.231179    ( 0.0000,  0.0000,  0.0000)
  20 Ti    -0.000000    5.025079   10.000000    ( 0.0000,  0.0000,  0.0000)
  21 Ti     1.450615    5.862592   12.368845    ( 0.0000,  0.0000,  0.0000)
  22 Ti     0.004719    6.715090   14.802087    ( 0.0000,  0.0000,  0.0000)
  23 Ti    -0.014889    5.042463   17.025371    ( 0.0000,  0.0000,  0.0000)
  24 Ti     5.802461    0.000000   10.000000    ( 0.0000,  0.0000,  0.0000)
  25 Ti     7.253076    0.837513   12.368845    ( 0.0000,  0.0000,  0.0000)
  26 Ti     5.815118    1.662041   14.797144    ( 0.0000,  0.0000,  0.0000)
  27 Ti     5.812693   -0.000368   17.057118    ( 0.0000,  0.0000,  0.0000)
  28 Ti     4.351846    2.512539   10.000000    ( 0.0000,  0.0000,  0.0000)
  29 Ti     5.802461    3.350052   12.368845    ( 0.0000,  0.0000,  0.0000)
  30 Ti     4.350136    4.202452   14.806921    ( 0.0000,  0.0000,  0.0000)
  31 Ti     4.374061    2.513938   17.021062    ( 0.0000,  0.0000,  0.0000)
  32 Ti     2.901231    5.025079   10.000000    ( 0.0000,  0.0000,  0.0000)
  33 Ti     4.351846    5.862592   12.368845    ( 0.0000,  0.0000,  0.0000)
  34 Ti     2.889562    6.698150   14.795412    ( 0.0000,  0.0000,  0.0000)
  35 Ti     2.913307    5.043062   17.058867    ( 0.0000,  0.0000,  0.0000)
  36 O      1.445114    2.503615   19.039408    ( 0.0000,  0.0000,  0.0000)
  37 H      1.445693    2.504917   19.985564    ( 0.0000,  0.0000,  0.0000)

Unit cell:
           periodic     x           y           z      points  spacing
  1. axis:    yes    8.703692    0.000000    0.000000    40     0.1884
  2. axis:    yes   -4.351846    7.537618    0.000000    40     0.1884
  3. axis:    no     0.000000    0.000000   27.106534   152     0.1783

  Lengths:   8.703692   8.703692  27.106534
  Angles:   90.000000  90.000000 120.000000

Effective grid spacing dv^(1/3) = 0.1941

     iter     time        total  log10-change:
                         energy  eigst   dens
iter:   1 14:08:01 -1980.505168  -2.28
iter:   2 14:08:29 -1980.477820  -3.20  -2.68
iter:   3 14:08:58 -1980.548886c -3.20  -2.91
iter:   4 14:09:26 -1980.485013c -3.59  -2.32
iter:   5 14:09:55 -1980.474066c -3.96  -2.78
iter:   6 14:10:23 -1980.473878c -3.98  -3.23
iter:   7 14:10:52 -1980.473920c -4.03  -3.38
iter:   8 14:11:20 -1980.473745c -4.45  -3.56
iter:   9 14:11:49 -1980.474060c -4.61  -3.59
iter:  10 14:12:17 -1980.473265c -4.98  -3.40
iter:  11 14:12:46 -1980.473465c -5.04  -3.71
iter:  12 14:13:14 -1980.472835c -5.23  -3.75
iter:  13 14:13:43 -1980.473061c -5.36  -3.84
iter:  14 14:14:11 -1980.473232c -5.63  -4.10c
iter:  15 14:14:40 -1980.473402c -5.67  -4.17c
iter:  16 14:15:08 -1980.473469c -5.79  -4.04c
iter:  17 14:15:37 -1980.473299c -6.02  -4.18c
iter:  18 14:16:05 -1980.473450c -6.15  -4.40c
iter:  19 14:16:34 -1980.473298c -6.36  -4.45c
iter:  20 14:17:02 -1980.473232c -6.43  -4.55c
iter:  21 14:17:31 -1980.473216c -6.53  -4.73c
iter:  22 14:17:59 -1980.473219c -6.61  -4.64c
iter:  23 14:18:27 -1980.473258c -6.81  -4.59c
iter:  24 14:18:56 -1980.473277c -6.92  -5.10c
iter:  25 14:19:25 -1980.473269c -7.07  -5.22c
iter:  26 14:19:53 -1980.473277c -7.18  -5.27c
iter:  27 14:20:21 -1980.473282c -7.24  -5.29c
iter:  28 14:20:50 -1980.473285c -7.31  -5.39c
iter:  29 14:21:18 -1980.473282c -7.44c -5.35c

Converged after 29 iterations.

Dipole moment: (-4.238889, -6.600926, 0.425269) |e|*Ang

Energy contributions relative to reference atoms: (reference = -838117.856603)

Kinetic:       +638.256368
Potential:     -587.158716
External:        +0.000000
XC:            -2025.659183
Entropy (-ST):   -2.495519
Local:           -4.663992
--------------------------
Free energy:   -1981.721042
Extrapolated:  -1980.473282

Showing only first 2 kpts
 Kpt  Band  Eigenvalues  Occupancy
  0   217     -4.31354    1.09271
  0   218     -4.30350    1.04274
  0   219     -4.28118    0.93129
  0   220     -4.26865    0.86931

  1   217     -4.25987    0.82641
  1   218     -4.24133    0.73816
  1   219     -4.23089    0.69025
  1   220     -4.21038    0.60071


Fermi level: -4.29494

No gap

Forces in eV/Ang:
  0 Ti   -0.00172   -0.00593    0.46030
  1 Ti    0.03647    0.03564   -0.30296
  2 Ti   -0.00700    0.00055    0.05244
  3 Ti   -0.05466   -0.17330   -0.04634
  4 Ti    0.01325   -0.02658    0.34290
  5 Ti    0.00709   -0.13882   -0.38169
  6 Ti   -0.01988    0.01063   -0.00345
  7 Ti   -0.01208    0.00338   -0.05280
  8 Ti   -0.01331    0.02740    0.35915
  9 Ti   -0.12271    0.06525   -0.41520
 10 Ti    0.00339   -0.02420   -0.01724
 11 Ti   -0.00682   -0.00649    0.04844
 12 Ti   -0.03001   -0.00663    0.34162
 13 Ti   -0.02463   -0.08220   -0.30853
 14 Ti    0.01102   -0.02078    0.02021
 15 Ti   -0.00981   -0.01313   -0.05037
 16 Ti   -0.01583   -0.02705    0.34960
 17 Ti   -0.09221    0.04210   -0.30319
 18 Ti    0.00511    0.00091    0.02817
 19 Ti   -0.00535   -0.01495   -0.07161
 20 Ti   -0.00187    0.00404    0.32198
 21 Ti    0.11508    0.04148   -0.39061
 22 Ti    0.03496   -0.00521   -0.07618
 23 Ti   -0.06905    0.02762   -0.01960
 24 Ti    0.03499   -0.00385    0.34298
 25 Ti   -0.01900    0.03968   -0.30676
 26 Ti   -0.02346   -0.03220   -0.10099
 27 Ti   -0.00842   -0.00356   -0.03036
 28 Ti    0.00563    0.00146    0.31816
 29 Ti    0.08210    0.05441   -0.33441
 30 Ti    0.01453    0.01140   -0.01273
 31 Ti    0.05746   -0.00748   -0.02749
 32 Ti    0.01859    0.03242    0.34299
 33 Ti    0.00254   -0.05042   -0.33231
 34 Ti   -0.02457    0.01994   -0.05060
 35 Ti   -0.01335   -0.04996   -0.01850
 36 O    -0.00391   -0.00898   -0.07557
 37 H     0.00334    0.00651    0.65466

BFGS:    5 14:21:33    -1980.473282        0.6547
System changes: positions 

Initializing position-dependent things.

Density initialized from wave functions
                                              
                                              
                                              
                                              
                                              
                                              
                    H                         
                                              
           Ti     TiO    Ti                   
                                              
            Ti     TTi    TTi                 
                                              
              Ti     TTi    TTi               
                Ti     Ti     Ti              
               Ti     Ti     Ti               
                 Ti     Ti     Ti             
                                              
           Ti     TTi    TTi     Ti           
                                              
             Ti     Ti     Ti                 
              Ti      Ti     Ti               
                                              
                                              
                                              
                                              

Positions:
   0 Ti     0.000000    0.000000   10.000000    ( 0.0000,  0.0000,  0.0000)
   1 Ti     1.450615    0.837513   12.368845    ( 0.0000,  0.0000,  0.0000)
   2 Ti    -0.012799    1.679579   14.801685    ( 0.0000,  0.0000,  0.0000)
   3 Ti    -0.019232   -0.048330   17.039623    ( 0.0000,  0.0000,  0.0000)
   4 Ti    -1.450615    2.512539   10.000000    ( 0.0000,  0.0000,  0.0000)
   5 Ti    -0.000000    3.350052   12.368845    ( 0.0000,  0.0000,  0.0000)
   6 Ti    -1.462369    4.179311   14.812105    ( 0.0000,  0.0000,  0.0000)
   7 Ti    -1.468910    2.504746   17.049173    ( 0.0000,  0.0000,  0.0000)
   8 Ti    -2.901231    5.025079   10.000000    ( 0.0000,  0.0000,  0.0000)
   9 Ti    -1.450615    5.862592   12.368845    ( 0.0000,  0.0000,  0.0000)
  10 Ti    -2.892268    6.696390   14.801090    ( 0.0000,  0.0000,  0.0000)
  11 Ti    -2.907630    5.034534   17.075763    ( 0.0000,  0.0000,  0.0000)
  12 Ti     2.901231    0.000000   10.000000    ( 0.0000,  0.0000,  0.0000)
  13 Ti     4.351846    0.837513   12.368845    ( 0.0000,  0.0000,  0.0000)
  14 Ti     2.899378    1.654256   14.799259    ( 0.0000,  0.0000,  0.0000)
  15 Ti     2.897605   -0.021917   17.049422    ( 0.0000,  0.0000,  0.0000)
  16 Ti     1.450615    2.512539   10.000000    ( 0.0000,  0.0000,  0.0000)
  17 Ti     2.901231    3.350052   12.368845    ( 0.0000,  0.0000,  0.0000)
  18 Ti     1.465064    4.194502   14.804858    ( 0.0000,  0.0000,  0.0000)
  19 Ti     1.447056    2.506399   17.260212    ( 0.0000,  0.0000,  0.0000)
  20 Ti    -0.000000    5.025079   10.000000    ( 0.0000,  0.0000,  0.0000)
  21 Ti     1.450615    5.862592   12.368845    ( 0.0000,  0.0000,  0.0000)
  22 Ti     0.009010    6.716435   14.794305    ( 0.0000,  0.0000,  0.0000)
  23 Ti    -0.024298    5.049746   17.021658    ( 0.0000,  0.0000,  0.0000)
  24 Ti     5.802461    0.000000   10.000000    ( 0.0000,  0.0000,  0.0000)
  25 Ti     7.253076    0.837513   12.368845    ( 0.0000,  0.0000,  0.0000)
  26 Ti     5.813896    1.657410   14.786861    ( 0.0000,  0.0000,  0.0000)
  27 Ti     5.812642   -0.000493   17.053072    ( 0.0000,  0.0000,  0.0000)
  28 Ti     4.351846    2.512539   10.000000    ( 0.0000,  0.0000,  0.0000)
  29 Ti     5.802461    3.350052   12.368845    ( 0.0000,  0.0000,  0.0000)
  30 Ti     4.350423    4.203518   14.805723    ( 0.0000,  0.0000,  0.0000)
  31 Ti     4.384723    2.514333   17.016869    ( 0.0000,  0.0000,  0.0000)
  32 Ti     2.901231    5.025079   10.000000    ( 0.0000,  0.0000,  0.0000)
  33 Ti     4.351846    5.862592   12.368845    ( 0.0000,  0.0000,  0.0000)
  34 Ti     2.886055    6.700485   14.789218    ( 0.0000,  0.0000,  0.0000)
  35 Ti     2.914224    5.041061   17.055638    ( 0.0000,  0.0000,  0.0000)
  36 O      1.444857    2.503028   19.060358    ( 0.0000,  0.0000,  0.0000)
  37 H      1.445972    2.505473   20.004683    ( 0.0000,  0.0000,  0.0000)

Unit cell:
           periodic     x           y           z      points  spacing
  1. axis:    yes    8.703692    0.000000    0.000000    40     0.1884
  2. axis:    yes   -4.351846    7.537618    0.000000    40     0.1884
  3. axis:    no     0.000000    0.000000   27.106534   152     0.1783

  Lengths:   8.703692   8.703692  27.106534
  Angles:   90.000000  90.000000 120.000000

Effective grid spacing dv^(1/3) = 0.1941

     iter     time        total  log10-change:
                         energy  eigst   dens
iter:   1 14:22:50 -1980.578190  -1.92
iter:   2 14:23:18 -1981.362286  -2.25  -2.38
iter:   3 14:23:47 -1980.542011  -2.77  -1.79
iter:   4 14:24:15 -1980.492625  -3.19  -2.41
iter:   5 14:24:44 -1980.489833c -3.63  -2.76
iter:   6 14:25:12 -1980.488436c -3.79  -3.13
iter:   7 14:25:41 -1980.488119c -3.82  -3.30
iter:   8 14:26:09 -1980.487972c -4.02  -3.44
iter:   9 14:26:38 -1980.488119c -4.34  -3.60
iter:  10 14:27:06 -1980.487994c -4.59  -3.44
iter:  11 14:27:35 -1980.487242c -4.83  -3.54
iter:  12 14:28:03 -1980.487707c -4.94  -3.73
iter:  13 14:28:32 -1980.487299c -5.13  -3.75
iter:  14 14:29:00 -1980.487428c -5.32  -3.98
iter:  15 14:29:29 -1980.487685c -5.31  -4.06c
iter:  16 14:29:57 -1980.487734c -5.45  -3.93
iter:  17 14:30:26 -1980.487838c -5.63  -3.95
iter:  18 14:30:54 -1980.487664c -5.83  -4.23c
iter:  19 14:31:23 -1980.487702c -5.96  -4.18c
iter:  20 14:31:51 -1980.487556c -6.03  -4.37c
iter:  21 14:32:20 -1980.487491c -6.07  -4.48c
iter:  22 14:32:48 -1980.487507c -6.30  -4.53c
iter:  23 14:33:17 -1980.487611c -6.37  -4.37c
iter:  24 14:33:45 -1980.487677c -6.50  -4.83c
iter:  25 14:34:14 -1980.487640c -6.63  -4.77c
iter:  26 14:34:42 -1980.487618c -6.76  -4.98c
iter:  27 14:35:11 -1980.487626c -6.87  -5.11c
iter:  28 14:35:39 -1980.487628c -6.90  -5.08c
iter:  29 14:36:08 -1980.487639c -7.03  -4.78c
iter:  30 14:36:36 -1980.487647c -7.11  -5.32c
iter:  31 14:37:05 -1980.487634c -7.21  -5.31c
iter:  32 14:37:33 -1980.487634c -7.32  -5.41c
iter:  33 14:38:02 -1980.487631c -7.41c -5.52c

Converged after 33 iterations.

Dipole moment: (-3.886770, -5.531659, 0.424391) |e|*Ang

Energy contributions relative to reference atoms: (reference = -838117.856603)

Kinetic:       +638.663642
Potential:     -587.503730
External:        +0.000000
XC:            -2025.737028
Entropy (-ST):   -2.494956
Local:           -4.663037
--------------------------
Free energy:   -1981.735109
Extrapolated:  -1980.487631

Showing only first 2 kpts
 Kpt  Band  Eigenvalues  Occupancy
  0   217     -4.31526    1.09674
  0   218     -4.30375    1.03949
  0   219     -4.28212    0.93147
  0   220     -4.26901    0.86659

  1   217     -4.26119    0.82840
  1   218     -4.24454    0.74892
  1   219     -4.23397    0.70009
  1   220     -4.21008    0.59563


Fermi level: -4.29585

No gap

Forces in eV/Ang:
  0 Ti   -0.00100   -0.00647    0.45782
  1 Ti    0.03500    0.03619   -0.30049
  2 Ti    0.01550   -0.00966    0.06887
  3 Ti    0.02370    0.00825   -0.05456
  4 Ti    0.01308   -0.02637    0.34129
  5 Ti    0.00755   -0.13866   -0.37551
  6 Ti   -0.02443    0.03024   -0.01546
  7 Ti    0.01769    0.00252   -0.04245
  8 Ti   -0.01313    0.02798    0.35863
  9 Ti   -0.12393    0.06592   -0.42340
 10 Ti   -0.00285   -0.04536   -0.02688
 11 Ti   -0.00427   -0.02243    0.05066
 12 Ti   -0.03117   -0.00736    0.33919
 13 Ti   -0.02848   -0.08299   -0.31924
 14 Ti    0.00755    0.01808    0.04761
 15 Ti   -0.01568    0.01650   -0.03744
 16 Ti   -0.01611   -0.02699    0.35215
 17 Ti   -0.09074    0.04066   -0.30021
 18 Ti   -0.01536   -0.02397    0.04911
 19 Ti   -0.01585   -0.03785   -0.30634
 20 Ti   -0.00252    0.00351    0.32100
 21 Ti    0.11717    0.03890   -0.39894
 22 Ti    0.02201   -0.02657   -0.07920
 23 Ti   -0.03663   -0.00895   -0.00626
 24 Ti    0.03570   -0.00378    0.33845
 25 Ti   -0.01582    0.04138   -0.31420
 26 Ti   -0.04534   -0.00045   -0.10139
 27 Ti   -0.02190   -0.00814   -0.02526
 28 Ti    0.00597    0.00223    0.31580
 29 Ti    0.08169    0.05643   -0.34417
 30 Ti    0.03174    0.01005   -0.01403
 31 Ti    0.02233   -0.02222   -0.02439
 32 Ti    0.01900    0.03274    0.34155
 33 Ti    0.00256   -0.05289   -0.34087
 34 Ti   -0.01119    0.01362   -0.04105
 35 Ti   -0.03040   -0.06400   -0.00340
 36 O    -0.00289   -0.00262    0.00586
 37 H     0.00095    0.00275    0.75689

BFGS:    6 14:38:16    -1980.487631        0.7569
System changes: positions 

Initializing position-dependent things.

Density initialized from wave functions
                                              
                                              
                                              
                                              
                                              
                                              
                    H                         
                                              
           Ti     TiO    Ti                   
                                              
            Ti     TTi    TTi                 
                                              
              Ti     TTi    TTi               
                Ti     Ti     Ti              
               Ti     Ti     Ti               
                 Ti     Ti     Ti             
                                              
           Ti     TTi    TTi     Ti           
                                              
             Ti     Ti     Ti                 
              Ti      Ti     Ti               
                                              
                                              
                                              
                                              

Positions:
   0 Ti     0.000000    0.000000   10.000000    ( 0.0000,  0.0000,  0.0000)
   1 Ti     1.450615    0.837513   12.368845    ( 0.0000,  0.0000,  0.0000)
   2 Ti    -0.017093    1.679204   14.808226    ( 0.0000,  0.0000,  0.0000)
   3 Ti    -0.029265   -0.077336   17.029259    ( 0.0000,  0.0000,  0.0000)
   4 Ti    -1.450615    2.512539   10.000000    ( 0.0000,  0.0000,  0.0000)
   5 Ti    -0.000000    3.350052   12.368845    ( 0.0000,  0.0000,  0.0000)
   6 Ti    -1.465333    4.179539   14.812393    ( 0.0000,  0.0000,  0.0000)
   7 Ti    -1.476616    2.505078   17.038370    ( 0.0000,  0.0000,  0.0000)
   8 Ti    -2.901231    5.025079   10.000000    ( 0.0000,  0.0000,  0.0000)
   9 Ti    -1.450615    5.862592   12.368845    ( 0.0000,  0.0000,  0.0000)
  10 Ti    -2.891255    6.693874   14.798752    ( 0.0000,  0.0000,  0.0000)
  11 Ti    -2.908941    5.034245   17.085156    ( 0.0000,  0.0000,  0.0000)
  12 Ti     2.901231    0.000000   10.000000    ( 0.0000,  0.0000,  0.0000)
  13 Ti     4.351846    0.837513   12.368845    ( 0.0000,  0.0000,  0.0000)
  14 Ti     2.902813    1.647772   14.799339    ( 0.0000,  0.0000,  0.0000)
  15 Ti     2.897312   -0.029686   17.038898    ( 0.0000,  0.0000,  0.0000)
  16 Ti     1.450615    2.512539   10.000000    ( 0.0000,  0.0000,  0.0000)
  17 Ti     2.901231    3.350052   12.368845    ( 0.0000,  0.0000,  0.0000)
  18 Ti     1.467466    4.197786   14.806931    ( 0.0000,  0.0000,  0.0000)
  19 Ti     1.447448    2.506205   17.293607    ( 0.0000,  0.0000,  0.0000)
  20 Ti    -0.000000    5.025079   10.000000    ( 0.0000,  0.0000,  0.0000)
  21 Ti     1.450615    5.862592   12.368845    ( 0.0000,  0.0000,  0.0000)
  22 Ti     0.015950    6.717950   14.780931    ( 0.0000,  0.0000,  0.0000)
  23 Ti    -0.039044    5.060384   17.015818    ( 0.0000,  0.0000,  0.0000)
  24 Ti     5.802461    0.000000   10.000000    ( 0.0000,  0.0000,  0.0000)
  25 Ti     7.253076    0.837513   12.368845    ( 0.0000,  0.0000,  0.0000)
  26 Ti     5.811112    1.650459   14.769293    ( 0.0000,  0.0000,  0.0000)
  27 Ti     5.812086   -0.000849   17.046488    ( 0.0000,  0.0000,  0.0000)
  28 Ti     4.351846    2.512539   10.000000    ( 0.0000,  0.0000,  0.0000)
  29 Ti     5.802461    3.350052   12.368845    ( 0.0000,  0.0000,  0.0000)
  30 Ti     4.351562    4.205400   14.803623    ( 0.0000,  0.0000,  0.0000)
  31 Ti     4.401064    2.514511   17.009944    ( 0.0000,  0.0000,  0.0000)
  32 Ti     2.901231    5.025079   10.000000    ( 0.0000,  0.0000,  0.0000)
  33 Ti     4.351846    5.862592   12.368845    ( 0.0000,  0.0000,  0.0000)
  34 Ti     2.880498    6.704304   14.778980    ( 0.0000,  0.0000,  0.0000)
  35 Ti     2.914759    5.036305   17.050646    ( 0.0000,  0.0000,  0.0000)
  36 O      1.444538    2.502370   19.099722    ( 0.0000,  0.0000,  0.0000)
  37 H      1.446404    2.506357   20.045531    ( 0.0000,  0.0000,  0.0000)

Unit cell:
           periodic     x           y           z      points  spacing
  1. axis:    yes    8.703692    0.000000    0.000000    40     0.1884
  2. axis:    yes   -4.351846    7.537618    0.000000    40     0.1884
  3. axis:    no     0.000000    0.000000   27.106534   152     0.1783

  Lengths:   8.703692   8.703692  27.106534
  Angles:   90.000000  90.000000 120.000000

Effective grid spacing dv^(1/3) = 0.1941

     iter     time        total  log10-change:
                         energy  eigst   dens
iter:   1 14:39:33 -1980.804037  -1.59
iter:   2 14:40:02 -1986.014093  -1.49  -2.07
iter:   3 14:40:30 -1980.626406  -2.16  -1.42
iter:   4 14:40:59 -1980.512398  -2.62  -2.26
iter:   5 14:41:27 -1980.506212c -3.10  -2.65
iter:   6 14:41:56 -1980.505389c -3.33  -3.00
iter:   7 14:42:24 -1980.504235c -3.43  -3.19
iter:   8 14:42:52 -1980.506092c -3.64  -3.31
iter:   9 14:43:21 -1980.504974c -3.81  -3.08
iter:  10 14:43:49 -1980.504792c -4.15  -3.41
iter:  11 14:44:18 -1980.505220c -4.34  -3.56
iter:  12 14:44:46 -1980.504476c -4.43  -3.54
iter:  13 14:45:15 -1980.504654c -4.57  -3.66
iter:  14 14:45:43 -1980.504945c -4.57  -3.78
iter:  15 14:46:12 -1980.504748c -4.95  -3.57
iter:  16 14:46:40 -1980.504884c -5.06  -3.80
iter:  17 14:47:09 -1980.504974c -5.04  -3.96
iter:  18 14:47:37 -1980.505291c -5.17  -4.00c
iter:  19 14:48:06 -1980.505178c -5.43  -4.21c
iter:  20 14:48:34 -1980.504968c -5.58  -4.25c
iter:  21 14:49:03 -1980.504919c -5.56  -4.28c
iter:  22 14:49:31 -1980.504888c -5.84  -4.31c
iter:  23 14:50:00 -1980.505009c -5.95  -4.54c
iter:  24 14:50:28 -1980.504980c -6.08  -4.77c
iter:  25 14:50:57 -1980.505033c -6.17  -4.82c
iter:  26 14:51:25 -1980.504979c -6.26  -4.80c
iter:  27 14:51:54 -1980.505020c -6.33  -4.93c
iter:  28 14:52:22 -1980.505028c -6.46  -4.69c
iter:  29 14:52:51 -1980.505036c -6.59  -5.01c
iter:  30 14:53:19 -1980.505013c -6.70  -5.14c
iter:  31 14:53:48 -1980.505007c -6.78  -5.37c
iter:  32 14:54:16 -1980.505005c -6.88  -5.44c
iter:  33 14:54:45 -1980.505021c -6.98  -5.48c
iter:  34 14:55:13 -1980.505022c -7.08  -5.61c
iter:  35 14:55:42 -1980.505023c -7.16  -5.50c
iter:  36 14:56:10 -1980.505022c -7.25  -5.70c
iter:  37 14:56:38 -1980.505020c -7.31  -5.73c
iter:  38 14:57:07 -1980.505023c -7.38  -5.83c
iter:  39 14:57:35 -1980.505019c -7.47c -5.77c

Converged after 39 iterations.

Dipole moment: (-3.391367, -4.012372, 0.415330) |e|*Ang

Energy contributions relative to reference atoms: (reference = -838117.856603)

Kinetic:       +638.408726
Potential:     -587.245183
External:        +0.000000
XC:            -2025.759453
Entropy (-ST):   -2.493397
Local:           -4.662410
--------------------------
Free energy:   -1981.751718
Extrapolated:  -1980.505019

Showing only first 2 kpts
 Kpt  Band  Eigenvalues  Occupancy
  0   217     -4.32451    1.10661
  0   218     -4.31155    1.04220
  0   219     -4.28833    0.92625
  0   220     -4.27571    0.86389

  1   217     -4.27072    0.83950
  1   218     -4.25587    0.76811
  1   219     -4.24309    0.70861
  1   220     -4.21953    0.60485


Fermi level: -4.30310

No gap

Forces in eV/Ang:
  0 Ti    0.00059   -0.00686    0.45459
  1 Ti    0.03272    0.03683   -0.29622
  2 Ti    0.04634   -0.02423    0.07733
  3 Ti    0.12874    0.22766   -0.04198
  4 Ti    0.01357   -0.02600    0.33929
  5 Ti    0.00774   -0.13792   -0.36608
  6 Ti   -0.02637    0.05619   -0.03343
  7 Ti    0.04905   -0.00301   -0.02537
  8 Ti   -0.01296    0.02901    0.35745
  9 Ti   -0.12629    0.06614   -0.43732
 10 Ti   -0.01426   -0.07086   -0.03799
 11 Ti    0.00431   -0.05323    0.04658
 12 Ti   -0.03353   -0.00809    0.33573
 13 Ti   -0.03490   -0.08476   -0.34218
 14 Ti   -0.00831    0.08741    0.08155
 15 Ti   -0.02267    0.05070   -0.01855
 16 Ti   -0.01664   -0.02689    0.35672
 17 Ti   -0.08760    0.03857   -0.29510
 18 Ti   -0.04688   -0.06359    0.06999
 19 Ti    0.01784    0.01594   -0.24395
 20 Ti   -0.00327    0.00202    0.32001
 21 Ti    0.12061    0.03502   -0.41621
 22 Ti   -0.02386   -0.03081   -0.05127
 23 Ti    0.04865   -0.07108   -0.02462
 24 Ti    0.03687   -0.00365    0.33251
 25 Ti   -0.01083    0.04328   -0.33029
 26 Ti   -0.07719    0.08771   -0.03635
 27 Ti   -0.03983   -0.01443   -0.02781
 28 Ti    0.00582    0.00364    0.31257
 29 Ti    0.08097    0.06108   -0.36026
 30 Ti    0.05272    0.00393   -0.01324
 31 Ti   -0.04673   -0.03554   -0.03783
 32 Ti    0.01942    0.03266    0.33959
 33 Ti    0.00311   -0.05692   -0.35490
 34 Ti    0.01925    0.00111   -0.03043
 35 Ti   -0.04435   -0.05972    0.00711
 36 O    -0.00905   -0.00999   -0.13345
 37 H     0.00439    0.00763    0.66606

BFGS:    7 14:57:50    -1980.505019        0.6661
System changes: positions 

Initializing position-dependent things.

Density initialized from wave functions
                                              
                                              
                                              
                                              
                                              
                                              
                    H                         
                                              
           Ti     TiO    Ti                   
                                              
            Ti     TTi    TTi                 
                                              
              Ti     TTi    TTi               
                Ti     Ti     Ti              
               Ti     Ti     Ti               
                 Ti     Ti     Ti             
                                              
           Ti     TTi    TTi     Ti           
                                              
             Ti     Ti     Ti                 
              Ti      Ti     Ti               
                                              
                                              
                                              
                                              

Positions:
   0 Ti     0.000000    0.000000   10.000000    ( 0.0000,  0.0000,  0.0000)
   1 Ti     1.450615    0.837513   12.368845    ( 0.0000,  0.0000,  0.0000)
   2 Ti    -0.017486    1.678870   14.811657    ( 0.0000,  0.0000,  0.0000)
[...]
  33 Ti     4.351846    5.862592   12.368845    ( 0.0000,  0.0000,  0.0000)
  34 Ti     2.885900    6.704236   14.769709    ( 0.0000,  0.0000,  0.0000)
  35 Ti     2.938975    5.016739   17.010814    ( 0.0000,  0.0000,  0.0000)
  36 O      1.437075    2.492395   19.314538    ( 0.0000,  0.0000,  0.0000)
  37 H      1.446084    2.508921   20.270700    ( 0.0000,  0.0000,  0.0000)

Unit cell:
           periodic     x           y           z      points  spacing
  1. axis:    yes    8.703692    0.000000    0.000000    40     0.1884
  2. axis:    yes   -4.351846    7.537618    0.000000    40     0.1884
  3. axis:    no     0.000000    0.000000   27.106534   152     0.1783

  Lengths:   8.703692   8.703692  27.106534
  Angles:   90.000000  90.000000 120.000000

Effective grid spacing dv^(1/3) = 0.1941

     iter     time        total  log10-change:
                         energy  eigst   dens
iter:   1 19:37:45 -1980.592908  -3.40
iter:   2 19:38:14 -1980.590162  -3.67  -3.00
iter:   3 19:38:42 -1980.590105c -4.30  -2.88
iter:   4 19:39:11 -1980.586891c -4.86  -2.93
iter:   5 19:39:39 -1980.586792c -5.12  -3.71
iter:   6 19:40:08 -1980.586936c -5.07  -3.85
iter:   7 19:40:37 -1980.587080c -5.16  -4.04c
iter:   8 19:41:05 -1980.587015c -5.51  -4.20c
iter:   9 19:41:34 -1980.586843c -5.80  -4.21c
iter:  10 19:42:02 -1980.586959c -5.96  -4.11c
iter:  11 19:42:31 -1980.586818c -6.16  -4.15c
iter:  12 19:42:59 -1980.586830c -6.21  -4.46c
iter:  13 19:43:28 -1980.586799c -6.38  -4.50c
iter:  14 19:43:56 -1980.586825c -6.59  -4.63c
iter:  15 19:44:25 -1980.586858c -6.69  -4.69c
iter:  16 19:44:53 -1980.586901c -6.77  -4.88c
iter:  17 19:45:22 -1980.586867c -7.00  -4.87c
iter:  18 19:45:50 -1980.586871c -7.06  -4.74c
iter:  19 19:46:19 -1980.586874c -7.19  -5.16c
iter:  20 19:46:47 -1980.586849c -7.34  -5.25c
iter:  21 19:47:16 -1980.586858c -7.45c -5.37c

Converged after 21 iterations.

Dipole moment: (-7.340955, -5.074961, 0.367264) |e|*Ang

Energy contributions relative to reference atoms: (reference = -838117.856603)

Kinetic:       +635.305940
Potential:     -584.713256
External:        +0.000000
XC:            -2025.278241
Entropy (-ST):   -2.472718
Local:           -4.664943
--------------------------
Free energy:   -1981.823217
Extrapolated:  -1980.586858

Showing only first 2 kpts
 Kpt  Band  Eigenvalues  Occupancy
  0   217     -4.36740    1.13186
  0   218     -4.35101    1.05068
  0   219     -4.32976    0.94452
  0   220     -4.31913    0.89171

  1   217     -4.32301    0.91096
  1   218     -4.31570    0.87483
  1   219     -4.30247    0.81034
  1   220     -4.26201    0.62495


Fermi level: -4.34087

No gap

Forces in eV/Ang:
  0 Ti    0.00050    0.00163    0.46214
  1 Ti    0.06001    0.02520   -0.28855
  2 Ti   -0.01564   -0.00753    0.04181
  3 Ti    0.00040    0.02212    0.00570
  4 Ti    0.02134   -0.03113    0.33880
  5 Ti    0.00780   -0.13947   -0.37875
  6 Ti    0.01732   -0.00803   -0.00176
  7 Ti    0.00690   -0.02053   -0.00097
  8 Ti   -0.01444    0.03040    0.33538
  9 Ti   -0.14206    0.04135   -0.53405
 10 Ti    0.00285   -0.00935    0.00865
 11 Ti   -0.00439    0.00109   -0.02030
 12 Ti   -0.03302    0.00028    0.33435
 13 Ti   -0.04748   -0.05495   -0.32723
 14 Ti   -0.00855   -0.01118    0.03232
 15 Ti    0.00483    0.02672    0.00638
 16 Ti   -0.01643   -0.02614    0.37688
 17 Ti   -0.09607    0.03383   -0.26871
 18 Ti    0.00632   -0.00490    0.01946
 19 Ti   -0.00670   -0.02618    0.00465
 20 Ti    0.00578    0.00068    0.32281
 21 Ti    0.10579    0.01378   -0.40843
 22 Ti    0.02398   -0.01472   -0.01097
 23 Ti    0.03117    0.00000    0.02725
 24 Ti    0.03536   -0.00550    0.35608
 25 Ti    0.01498    0.05954   -0.32932
 26 Ti    0.02592   -0.01090    0.00133
 27 Ti   -0.01336    0.00383    0.02487
 28 Ti   -0.00329    0.00024    0.31623
 29 Ti    0.07419    0.09225   -0.44443
 30 Ti   -0.01464   -0.02221   -0.00778
 31 Ti   -0.02611    0.01326    0.01758
 32 Ti    0.01353    0.02748    0.33897
 33 Ti    0.01812   -0.06959   -0.43323
 34 Ti   -0.00855    0.01499    0.01051
 35 Ti   -0.00245    0.00620    0.02384
 36 O     0.01743    0.02141   -0.06100
 37 H    -0.00442   -0.00260    0.02971

BFGS:   26 19:47:31    -1980.586858        0.0670
System changes: positions 

Initializing position-dependent things.

Density initialized from wave functions
                                              
                                              
                                              
                                              
                                              
                                              
                                              
                    H                         
                    O                         
           Ti     Ti     Ti                   
                    Ti                        
            TTi    Ti     TTi                 
              TTi    TTi    TTi               
                                              
               TTi    TTi    TTi              
                                              
                 Ti     Ti     Ti             
                                              
           Ti     TTi    TTi     Ti           
                                              
            Ti      Ti     Ti                 
              Ti      Ti     Ti               
                                              
                                              
                                              
                                              

Positions:
   0 Ti     0.000000    0.000000   10.000000    ( 0.0000,  0.0000,  0.0000)
   1 Ti     1.450615    0.837513   12.368845    ( 0.0000,  0.0000,  0.0000)
   2 Ti     0.037613    1.678796   14.833065    ( 0.0000,  0.0000,  0.0000)
   3 Ti     0.031944   -0.039217   17.000115    ( 0.0000,  0.0000,  0.0000)
   4 Ti    -1.450615    2.512539   10.000000    ( 0.0000,  0.0000,  0.0000)
   5 Ti    -0.000000    3.350052   12.368845    ( 0.0000,  0.0000,  0.0000)
   6 Ti    -1.474069    4.189666   14.775923    ( 0.0000,  0.0000,  0.0000)
   7 Ti    -1.441165    2.521017   17.007690    ( 0.0000,  0.0000,  0.0000)
   8 Ti    -2.901231    5.025079   10.000000    ( 0.0000,  0.0000,  0.0000)
   9 Ti    -1.450615    5.862592   12.368845    ( 0.0000,  0.0000,  0.0000)
  10 Ti    -2.903321    6.660287   14.769830    ( 0.0000,  0.0000,  0.0000)
  11 Ti    -2.902953    5.017936   17.109717    ( 0.0000,  0.0000,  0.0000)
  12 Ti     2.901231    0.000000   10.000000    ( 0.0000,  0.0000,  0.0000)
  13 Ti     4.351846    0.837513   12.368845    ( 0.0000,  0.0000,  0.0000)
  14 Ti     2.888758    1.680082   14.850045    ( 0.0000,  0.0000,  0.0000)
  15 Ti     2.870524   -0.038210   17.008987    ( 0.0000,  0.0000,  0.0000)
  16 Ti     1.450615    2.512539   10.000000    ( 0.0000,  0.0000,  0.0000)
  17 Ti     2.901231    3.350052   12.368845    ( 0.0000,  0.0000,  0.0000)
  18 Ti     1.458385    4.175255   14.848407    ( 0.0000,  0.0000,  0.0000)
  19 Ti     1.452315    2.511501   17.491366    ( 0.0000,  0.0000,  0.0000)
  20 Ti    -0.000000    5.025079   10.000000    ( 0.0000,  0.0000,  0.0000)
  21 Ti     1.450615    5.862592   12.368845    ( 0.0000,  0.0000,  0.0000)
  22 Ti     0.003147    6.718634   14.768047    ( 0.0000,  0.0000,  0.0000)
  23 Ti    -0.052767    5.029781   17.005298    ( 0.0000,  0.0000,  0.0000)
  24 Ti     5.802461    0.000000   10.000000    ( 0.0000,  0.0000,  0.0000)
  25 Ti     7.253076    0.837513   12.368845    ( 0.0000,  0.0000,  0.0000)
  26 Ti     5.814233    1.666525   14.759377    ( 0.0000,  0.0000,  0.0000)
  27 Ti     5.811102   -0.004380   16.996464    ( 0.0000,  0.0000,  0.0000)
  28 Ti     4.351846    2.512539   10.000000    ( 0.0000,  0.0000,  0.0000)
  29 Ti     5.802461    3.350052   12.368845    ( 0.0000,  0.0000,  0.0000)
  30 Ti     4.375087    4.199237   14.774791    ( 0.0000,  0.0000,  0.0000)
  31 Ti     4.394337    2.526923   17.015356    ( 0.0000,  0.0000,  0.0000)
  32 Ti     2.901231    5.025079   10.000000    ( 0.0000,  0.0000,  0.0000)
  33 Ti     4.351846    5.862592   12.368845    ( 0.0000,  0.0000,  0.0000)
  34 Ti     2.886293    6.705887   14.771379    ( 0.0000,  0.0000,  0.0000)
  35 Ti     2.939903    5.017359   17.014148    ( 0.0000,  0.0000,  0.0000)
  36 O      1.439144    2.494299   19.312036    ( 0.0000,  0.0000,  0.0000)
  37 H      1.445620    2.508584   20.268362    ( 0.0000,  0.0000,  0.0000)

Unit cell:
           periodic     x           y           z      points  spacing
  1. axis:    yes    8.703692    0.000000    0.000000    40     0.1884
  2. axis:    yes   -4.351846    7.537618    0.000000    40     0.1884
  3. axis:    no     0.000000    0.000000   27.106534   152     0.1783

  Lengths:   8.703692   8.703692  27.106534
  Angles:   90.000000  90.000000 120.000000

Effective grid spacing dv^(1/3) = 0.1941

     iter     time        total  log10-change:
                         energy  eigst   dens
iter:   1 19:48:47 -1980.606309  -2.93
iter:   2 19:49:16 -1980.658734  -2.98  -2.72
iter:   3 19:49:44 -1980.657233c -3.22  -2.33
iter:   4 19:50:13 -1980.587535c -4.10  -2.31
iter:   5 19:50:41 -1980.587412c -4.49  -3.36
iter:   6 19:51:10 -1980.587361c -4.64  -3.63
iter:   7 19:51:38 -1980.587537c -4.68  -3.80
iter:   8 19:52:06 -1980.587488c -4.96  -3.99
iter:   9 19:52:35 -1980.587261c -5.28  -4.00
iter:  10 19:53:03 -1980.587325c -5.40  -4.09c
iter:  11 19:53:32 -1980.587071c -5.68  -4.01c
iter:  12 19:54:00 -1980.587123c -5.74  -4.10c
iter:  13 19:54:28 -1980.587049c -5.93  -4.24c
iter:  14 19:54:57 -1980.587118c -6.07  -4.39c
iter:  15 19:55:25 -1980.587186c -6.15  -4.47c
iter:  16 19:55:54 -1980.587156c -6.34  -4.73c
iter:  17 19:56:22 -1980.587227c -6.42  -4.53c
iter:  18 19:56:50 -1980.587192c -6.62  -4.66c
iter:  19 19:57:19 -1980.587151c -6.73  -4.94c
iter:  20 19:57:47 -1980.587165c -6.83  -5.06c
iter:  21 19:58:16 -1980.587153c -7.00  -5.09c
iter:  22 19:58:44 -1980.587159c -7.11  -5.18c
iter:  23 19:59:12 -1980.587165c -7.20  -5.30c
iter:  24 19:59:41 -1980.587181c -7.34  -5.34c
iter:  25 20:00:09 -1980.587169c -7.46c -5.21c

Converged after 25 iterations.

Dipole moment: (-7.256339, -5.235324, 0.368172) |e|*Ang

Energy contributions relative to reference atoms: (reference = -838117.856603)

Kinetic:       +635.037780
Potential:     -584.534991
External:        +0.000000
XC:            -2025.189063
Entropy (-ST):   -2.474091
Local:           -4.663850
--------------------------
Free energy:   -1981.824215
Extrapolated:  -1980.587169

Showing only first 2 kpts
 Kpt  Band  Eigenvalues  Occupancy
  0   217     -4.36668    1.13286
  0   218     -4.34998    1.05007
  0   219     -4.32913    0.94595
  0   220     -4.31727    0.88706

  1   217     -4.32134    0.90720
  1   218     -4.31426    0.87225
  1   219     -4.30129    0.80903
  1   220     -4.26103    0.62465


Fermi level: -4.33995

No gap

Forces in eV/Ang:
  0 Ti    0.00099    0.00189    0.46200
  1 Ti    0.05991    0.02556   -0.28757
  2 Ti   -0.00136    0.01075    0.02579
  3 Ti    0.02611   -0.00809   -0.00445
  4 Ti    0.02192   -0.03118    0.33849
  5 Ti    0.00977   -0.14039   -0.37746
  6 Ti    0.01392   -0.00260    0.00838
  7 Ti    0.00105   -0.01228   -0.00103
  8 Ti   -0.01428    0.03072    0.33506
  9 Ti   -0.13940    0.04183   -0.52983
 10 Ti   -0.00422   -0.01409    0.01715
 11 Ti   -0.00562    0.00978   -0.00873
 12 Ti   -0.03344    0.00019    0.33501
 13 Ti   -0.04607   -0.05417   -0.32032
 14 Ti    0.00480    0.00136    0.03120
 15 Ti    0.00745    0.01737    0.00138
 16 Ti   -0.01688   -0.02644    0.37612
 17 Ti   -0.09692    0.03215   -0.26973
 18 Ti    0.00581   -0.01442    0.02294
 19 Ti   -0.00827   -0.02574   -0.01132
 20 Ti    0.00539    0.00030    0.32380
 21 Ti    0.10755    0.01301   -0.40337
 22 Ti    0.01300   -0.01612   -0.00966
 23 Ti    0.02587   -0.00543    0.01810
 24 Ti    0.03536   -0.00524    0.35677
 25 Ti    0.01414    0.05980   -0.32397
 26 Ti   -0.00818    0.00602    0.01265
 27 Ti    0.00099    0.00845    0.01077
 28 Ti   -0.00334   -0.00001    0.31694
 29 Ti    0.07446    0.09092   -0.44303
 30 Ti   -0.01489   -0.01797    0.00407
 31 Ti   -0.03391    0.00389   -0.01272
 32 Ti    0.01373    0.02754    0.33912
 33 Ti    0.01635   -0.06841   -0.43087
 34 Ti   -0.00905    0.00589    0.01773
 35 Ti   -0.00189   -0.00019    0.00870
 36 O     0.01874    0.02055   -0.03301
 37 H    -0.00253   -0.00117    0.02518

BFGS:   27 20:00:24    -1980.587169        0.0432
Timing:                                      incl.     excl.
-------------------------------------------------------------------
Density initialized from wave functions:    23.525    23.524   0.1% |
 Symmetrize density:                         0.001     0.001   0.0% |
Forces:                                    412.274   412.274   1.5% ||
Hamiltonian:                                94.973     0.005   0.0% |
 Atomic:                                     0.007     0.007   0.0% |
  XC Correction:                             0.000     0.000   0.0% |
 Calculate atomic Hamiltonians:              0.009     0.009   0.0% |
 Communicate:                                4.643     4.643   0.0% |
 Hartree integrate/restrict:                 0.298     0.298   0.0% |
 Initialize Hamiltonian:                     0.001     0.001   0.0% |
 Poisson:                                    4.859     0.207   0.0% |
  Communicate from 1D:                       0.405     0.405   0.0% |
  Communicate from 2D:                       0.840     0.840   0.0% |
  Communicate to 1D:                         0.231     0.231   0.0% |
  Communicate to 2D:                         0.912     0.912   0.0% |
  FFT 1D:                                    1.054     1.054   0.0% |
  FFT 2D:                                    1.210     1.210   0.0% |
 XC 3D grid:                                85.063    21.316   0.1% |
  VdW-DF integral:                          63.747     3.568   0.0% |
   Convolution:                              5.740     5.740   0.0% |
   FFT:                                      4.162     4.162   0.0% |
   gather:                                  19.126    19.126   0.1% |
   hmm1:                                     1.144     1.144   0.0% |
   hmm2:                                     2.556     2.556   0.0% |
   iFFT:                                     3.954     3.954   0.0% |
   potential:                               19.339     0.461   0.0% |
    collect:                                 1.306     1.306   0.0% |
    p1:                                     11.555    11.555   0.0% |
    p2:                                      3.938     3.938   0.0% |
    sum:                                     2.079     2.079   0.0% |
   splines:                                  4.158     4.158   0.0% |
 vbar:                                       0.087     0.087   0.0% |
LCAO initialization:                        47.026     1.601   0.0% |
 LCAO eigensolver:                          35.014     0.005   0.0% |
  Calculate projections:                     0.000     0.000   0.0% |
  DenseAtomicCorrection:                     0.000     0.000   0.0% |
  Distribute overlap matrix:                33.919    33.919   0.1% |
  Orbital Layouts:                           0.892     0.892   0.0% |
  Potential matrix:                          0.038     0.038   0.0% |
  Sum over cells:                            0.160     0.160   0.0% |
 LCAO to grid:                               8.421     8.421   0.0% |
 Set positions (LCAO WFS):                   1.990     1.344   0.0% |
  Basic WFS set positions:                   0.001     0.001   0.0% |
  Basis functions set positions:             0.000     0.000   0.0% |
  P tci:                                     0.001     0.001   0.0% |
  ST tci:                                    0.552     0.552   0.0% |
  mktci:                                     0.091     0.091   0.0% |
Redistribute:                                0.016     0.016   0.0% |
SCF-cycle:                               25590.008   417.346   1.5% ||
 Davidson:                               22179.950  7344.462  26.9% |----------|
  Apply hamiltonian:                       536.082   536.082   2.0% ||
  Subspace diag:                          2113.275     0.110   0.0% |
   calc_h_matrix:                         1085.214   546.697   2.0% ||
    Apply hamiltonian:                     538.517   538.517   2.0% ||
   diagonalize:                             42.321    42.321   0.2% |
   rotate_psi:                             985.631   985.631   3.6% ||
  calc. matrices:                        10044.347  3630.950  13.3% |----|
   Apply hamiltonian:                     6413.396  6413.396  23.5% |--------|
  diagonalize:                             231.665   231.665   0.8% |
  rotate_psi:                             1910.118  1910.118   7.0% |--|
 Density:                                   52.312     0.021   0.0% |
  Atomic density matrices:                   4.254     4.254   0.0% |
  Mix:                                      14.596    14.596   0.1% |
  Multipole moments:                         0.367     0.367   0.0% |
  Pseudo density:                           33.074    33.049   0.1% |
   Symmetrize density:                       0.024     0.024   0.0% |
 Hamiltonian:                             2830.495     0.121   0.0% |
  Atomic:                                    0.225     0.221   0.0% |
   XC Correction:                            0.003     0.003   0.0% |
  Calculate atomic Hamiltonians:             0.294     0.294   0.0% |
  Communicate:                             143.872   143.872   0.5% |
  Hartree integrate/restrict:                9.078     9.078   0.0% |
  Poisson:                                 151.897     6.232   0.0% |
   Communicate from 1D:                     12.788    12.788   0.0% |
   Communicate from 2D:                     25.991    25.991   0.1% |
   Communicate to 1D:                        7.260     7.260   0.0% |
   Communicate to 2D:                       28.441    28.441   0.1% |
   FFT 1D:                                  33.234    33.234   0.1% |
   FFT 2D:                                  37.950    37.950   0.1% |
  XC 3D grid:                             2523.003   663.784   2.4% ||
   VdW-DF integral:                       1859.219   110.824   0.4% |
    Convolution:                           178.543   178.543   0.7% |
    FFT:                                   129.800   129.800   0.5% |
    gather:                                600.241   600.241   2.2% ||
    hmm1:                                   34.855    34.855   0.1% |
    hmm2:                                   79.404    79.404   0.3% |
    iFFT:                                  123.284   123.284   0.5% |
    potential:                             602.264    14.110   0.1% |
     collect:                               40.465    40.465   0.1% |
     p1:                                   373.936   373.936   1.4% ||
     p2:                                   121.997   121.997   0.4% |
     sum:                                   51.756    51.756   0.2% |
    splines:                                 0.005     0.005   0.0% |
  vbar:                                      2.004     2.004   0.0% |
 Orthonormalize:                           109.905     0.006   0.0% |
  calc_s_matrix:                             7.735     7.735   0.0% |
  inverse-cholesky:                         86.557    86.557   0.3% |
  projections:                               0.002     0.002   0.0% |
  rotate_psi_s:                             15.607    15.607   0.1% |
Set symmetry:                                0.001     0.001   0.0% |
Other:                                    1179.371  1179.371   4.3% |-|
-------------------------------------------------------------------
Total:                                             27347.194 100.0%

Memory usage: 1.51 GiB
Date: Tue Sep 26 20:00:24 2023
