
  ___ ___ ___ _ _ _  
 |   |   |_  | | | | 
 | | | | | . | | | | 
 |__ |  _|___|_____|  22.8.0
 |___|_|             

User:   s204775@a126.nifl.fysik.dtu.dk
Date:   Tue Sep 26 12:24:55 2023
Arch:   x86_64
Pid:    25637
CWD:    /home/cat/s204775/projects/Bachelor_project/OH_missing_features
Python: 3.10.4
gpaw:   /home/modules/software/GPAW/22.8.0-intel-2022a/lib/python3.10/site-packages/gpaw
_gpaw:  /home/modules/software/GPAW/22.8.0-intel-2022a/lib/python3.10/site-packages/
        _gpaw.cpython-310-x86_64-linux-gnu.so
ase:    /home/modules/software/ASE/3.22.1-intel-2022a/lib/python3.10/site-packages/ase (version 3.22.1)
numpy:  /home/modules/software/SciPy-bundle/2022.05-intel-2022a/lib/python3.10/site-packages/numpy (version 1.22.3)
scipy:  /home/modules/software/SciPy-bundle/2022.05-intel-2022a/lib/python3.10/site-packages/scipy (version 1.8.1)
libxc:  5.2.3
units:  Angstrom and eV
cores: 40
OpenMP: False
OMP_NUM_THREADS: 1

Input parameters:
  basis: dzp
  h: 0.18
  kpts: {size: (4, 4, 1)}
  xc: BEEF-vdW

System changes: positions, numbers, cell, pbc, initial_charges, initial_magmoms 

Initialize ...

species:
  Tl:
    name: Thallium
    id: 5a3688cb07e09c63f278d9dd157b5100
    Z: 81.0
    valence: 13
    core: 68
    charge: 0.0
    file: /home/modules/software/GPAW-setups/0.9.20000/Tl.PBE.gz
    compensation charges: {type: gauss,
                           rc: 0.38,
                           lmax: 2}
    cutoffs: {filter: 2.11,
              core: 2.55}
    valence states:
      #              energy  rcut
      - 6s(2.00)    -9.493   1.212
      - 6p(1.00)    -2.379   1.270
      - 5d(10.00)   -15.517   1.191
      -  s          17.718   1.212
      -  p          24.832   1.270
      -  d          11.695   1.191
  
    # LCAO basis set for Tl:
    #   Name: dzp
    #   File: /home/modules/software/GPAW-setups/0.9.20000/Tl.dzp.basis.gz
    #   Number of radial functions: 7
    #   Number of spherical harmonics: 23
    #     l=0, rc=7.3438 Bohr: 6s-sz confined orbital
    #     l=1, rc=11.0312 Bohr: 6p-sz confined orbital
    #     l=2, rc=4.8750 Bohr: 5d-sz confined orbital
    #     l=0, rc=4.2500 Bohr: 6s-dz split-valence wave
    #     l=1, rc=6.6250 Bohr: 6p-dz split-valence wave
    #     l=2, rc=2.9531 Bohr: 5d-dz split-valence wave
    #     l=2, rc=11.0312 Bohr: d-type Gaussian polarization
    #   Number of RI-basis functions 0

  O:
    name: Oxygen
    id: 32ecd46bf208036f09c70b0ec9a88b78
    Z: 8.0
    valence: 6
    core: 2
    charge: 0.0
    file: /home/modules/software/GPAW-setups/0.9.20000/O.PBE.gz
    compensation charges: {type: gauss,
                           rc: 0.21,
                           lmax: 2}
    cutoffs: {filter: 1.17,
              core: 0.83}
    valence states:
      #              energy  rcut
      - 2s(2.00)   -23.961   0.688
      - 2p(4.00)    -9.029   0.598
      -  s           3.251   0.688
      -  p          18.182   0.598
      -  d           0.000   0.619
  
    # LCAO basis set for O:
    #   Name: dzp
    #   File: /home/modules/software/GPAW-setups/0.9.20000/O.dzp.basis.gz
    #   Number of radial functions: 5
    #   Number of spherical harmonics: 13
    #     l=0, rc=4.3438 Bohr: 2s-sz confined orbital
    #     l=1, rc=5.3906 Bohr: 2p-sz confined orbital
    #     l=0, rc=2.2969 Bohr: 2s-dz split-valence wave
    #     l=1, rc=2.8906 Bohr: 2p-dz split-valence wave
    #     l=2, rc=5.3906 Bohr: d-type Gaussian polarization
    #   Number of RI-basis functions 0

  H:
    name: Hydrogen
    id: d65de229564ff8ea4db303e23b6d1ecf
    Z: 1.0
    valence: 1
    core: 0
    charge: 0.0
    file: /home/modules/software/GPAW-setups/0.9.20000/H.PBE.gz
    compensation charges: {type: gauss,
                           rc: 0.15,
                           lmax: 2}
    cutoffs: {filter: 0.85,
              core: 0.53}
    valence states:
      #              energy  rcut
      - 1s(1.00)    -6.494   0.476
      -  s          20.717   0.476
      -  p           0.000   0.476
  
    # LCAO basis set for H:
    #   Name: dzp
    #   File: /home/modules/software/GPAW-setups/0.9.20000/H.dzp.basis.gz
    #   Number of radial functions: 3
    #   Number of spherical harmonics: 5
    #     l=0, rc=6.4219 Bohr: 1s-sz confined orbital
    #     l=0, rc=3.6094 Bohr: 1s-dz split-valence wave
    #     l=1, rc=6.4219 Bohr: p-type Gaussian polarization
    #   Number of RI-basis functions 0

Reference energy: -19803672.632242  # eV

Spin-paired calculation

Convergence criteria:
 Maximum [total energy] change in last 3 cyles: 0.0005 eV / electron
 Maximum integral of absolute [dens]ity change: 0.0001 electrons / valence electron
 Maximum integral of absolute [eigenst]ate change: 4e-08 eV^2 / valence electron
 Maximum number of scf [iter]ations: 333
 (Square brackets indicate name in SCF output, whereas a 'c' in
 the SCF output indicates the quantity has converged.)

Symmetries present (total): 6

  ( 1  0  0)  ( 1 -1  0)  ( 0  1  0)  ( 0 -1  0)  (-1  1  0)  (-1  0  0)
  ( 0  1  0)  ( 0 -1  0)  ( 1  0  0)  ( 1 -1  0)  (-1  0  0)  (-1  1  0)
  ( 0  0  1)  ( 0  0  1)  ( 0  0  1)  ( 0  0  1)  ( 0  0  1)  ( 0  0  1)
Note: your k-points are not as symmetric as your crystal!

16 k-points: 4 x 4 x 1 Monkhorst-Pack grid
6 k-points in the irreducible part of the Brillouin zone
       k-points in crystal coordinates                weights
   0:     0.12500000   -0.12500000    0.00000000          2/16
   1:     0.12500000    0.12500000    0.00000000          2/16
   2:     0.37500000   -0.37500000    0.00000000          2/16
   3:     0.37500000   -0.12500000    0.00000000          4/16
   4:     0.37500000    0.12500000    0.00000000          4/16
   5:     0.37500000    0.37500000    0.00000000          2/16

Wave functions: Uniform real-space grid
  Kinetic energy operator: 8*3+1=25 point O(h^6) finite-difference Laplacian
  ScaLapack parameters: grid=1x1, blocksize=None
  Wavefunction extrapolation:
    Improved wavefunction reuse through dual PAW basis 

Occupation numbers: Fermi-Dirac:
  width: 0.1000  # eV
 

Eigensolver
   Davidson(niter=2) 

Densities:
  Coarse grid: 52*52*160 grid
  Fine grid: 104*104*320 grid
  Total Charge: 0.000000 

Density mixing:
  Method: separate
  Backend: pulay
  Linear mixing parameter: 0.05
  old densities: 5
  Damping of long wavelength oscillations: 50 

Hamiltonian:
  XC and Coulomb potentials evaluated on a 104*104*320 grid
  Using the BEEF-vdW Exchange-Correlation functional
  Interpolation: tri-quintic (5. degree polynomial)
  Poisson solver: FastPoissonSolver using
    Stencil: 8*3+1=25 point O(h^6) finite-difference Laplacian
    FFT axes: [0, 1]
    FST axes: [2]
 

XC parameters: BEEF-vdW with 2 nearest neighbor stencil

Memory estimate:
  Process memory now: 178.98 MiB
  Calculator: 406.00 MiB
    Density: 16.60 MiB
      Arrays: 4.22 MiB
      Localized functions: 10.78 MiB
      Mixer: 1.60 MiB
    Hamiltonian: 3.44 MiB
      Arrays: 2.76 MiB
      XC: 0.00 MiB
      Poisson: 0.00 MiB
      vbar: 0.68 MiB
    Wavefunctions: 385.96 MiB
      Arrays psit_nG: 277.23 MiB
      Eigensolver: 106.76 MiB
      Projections: 0.44 MiB
      Projectors: 1.52 MiB

Total number of cores used: 40
Parallelization over k-points: 2
Domain decomposition: 2 x 2 x 5

Number of atoms: 38
Number of atomic orbitals: 846
Number of bands in calculation: 289
Number of valence electrons: 475
Bands to converge: occupied

... initialized

Initializing position-dependent things.

Density initialized from atomic densities
Creating initial wave functions:
  289 bands from LCAO basis set

                                                             
                                                             
                                                             
                                                             
                                                             
                                                             
                                     H                       
                                  Tl O     Tl       Tl       
                                                             
                            Tl       Tl       Tl             
                                                             
                      Tl       Tl      Tl                    
                         Tl      Tl       Tl                 
                                                             
                  Tl       Tl       Tl                       
                             Tl       Tl       Tl            
            Tl       Tl       Tl                             
                       Tl       Tl       Tl                  
                                                             
                 Tl       Tl      Tl                         
                    Tl      Tl       Tl                      
             Tl       Tl       Tl                            
                                                             
       Tl       Tl       Tl                                  
                                                             
                                                             
                                                             
                                                             

Positions:
   0 Tl     0.000000    0.000000   10.000000    ( 0.0000,  0.0000,  0.0000)
   1 Tl     3.527816    2.036786   12.880450    ( 0.0000,  0.0000,  0.0000)
   2 Tl     1.764813    1.018915   15.753208    ( 0.0000,  0.0000,  0.0000)
   3 Tl     5.291724    3.055179   18.682936    ( 0.0000,  0.0000,  0.0000)
   4 Tl     1.763908    3.055179   10.000000    ( 0.0000,  0.0000,  0.0000)
   5 Tl     5.291724    5.091964   12.880450    ( 0.0000,  0.0000,  0.0000)
   6 Tl     3.536429    4.068599   15.756428    ( 0.0000,  0.0000,  0.0000)
   7 Tl     7.055234    6.110037   18.676583    ( 0.0000,  0.0000,  0.0000)
   8 Tl     3.527816    6.110357   10.000000    ( 0.0000,  0.0000,  0.0000)
   9 Tl     7.055633    8.147143   12.880450    ( 0.0000,  0.0000,  0.0000)
  10 Tl     5.291724    7.127705   15.753208    ( 0.0000,  0.0000,  0.0000)
  11 Tl     8.819619    9.166041   18.676583    ( 0.0000,  0.0000,  0.0000)
  12 Tl     3.527816    0.000000   10.000000    ( 0.0000,  0.0000,  0.0000)
  13 Tl     7.055633    2.036786   12.880450    ( 0.0000,  0.0000,  0.0000)
  14 Tl     5.291724    1.028338   15.756428    ( 0.0000,  0.0000,  0.0000)
  15 Tl     8.819065    3.054993   18.676583    ( 0.0000,  0.0000,  0.0000)
  16 Tl     5.291724    3.055179   10.000000    ( 0.0000,  0.0000,  0.0000)
  17 Tl     8.819541    5.091964   12.880450    ( 0.0000,  0.0000,  0.0000)
  18 Tl     7.047020    4.068599   15.756428    ( 0.0000,  0.0000,  0.0000)
  19 Tl    10.583449    6.110357   18.680650    ( 0.0000,  0.0000,  0.0000)
  20 Tl     7.055633    6.110357   10.000000    ( 0.0000,  0.0000,  0.0000)
  21 Tl    10.583449    8.147143   12.880450    ( 0.0000,  0.0000,  0.0000)
  22 Tl     8.816138    7.130714   15.755224    ( 0.0000,  0.0000,  0.0000)
  23 Tl    12.347279    9.166041   18.676583    ( 0.0000,  0.0000,  0.0000)
  24 Tl     7.055633    0.000000   10.000000    ( 0.0000,  0.0000,  0.0000)
  25 Tl    10.583449    2.036786   12.880450    ( 0.0000,  0.0000,  0.0000)
  26 Tl     8.818636    1.018915   15.753208    ( 0.0000,  0.0000,  0.0000)
  27 Tl    12.347833    3.054993   18.676583    ( 0.0000,  0.0000,  0.0000)
  28 Tl     8.819541    3.055179   10.000000    ( 0.0000,  0.0000,  0.0000)
  29 Tl    12.347357    5.091964   12.880450    ( 0.0000,  0.0000,  0.0000)
  30 Tl    10.583449    4.069643   15.755224    ( 0.0000,  0.0000,  0.0000)
  31 Tl    14.111664    6.110037   18.676583    ( 0.0000,  0.0000,  0.0000)
  32 Tl    10.583449    6.110357   10.000000    ( 0.0000,  0.0000,  0.0000)
  33 Tl    14.111265    8.147143   12.880450    ( 0.0000,  0.0000,  0.0000)
  34 Tl    12.350760    7.130714   15.755224    ( 0.0000,  0.0000,  0.0000)
  35 Tl    15.875173    9.165536   18.652511    ( 0.0000,  0.0000,  0.0000)
  36 O     10.583449    6.110357   20.680650    ( 0.0000,  0.0000,  0.0000)
  37 H     10.583449    6.110357   21.640650    ( 0.0000,  0.0000,  0.0000)

Unit cell:
           periodic     x           y           z      points  spacing
  1. axis:    yes   10.583449    0.000000    0.000000    52     0.1763
  2. axis:    yes    5.291724    9.165536    0.000000    52     0.1763
  3. axis:    no     0.000000    0.000000   28.641350   160     0.1790

  Lengths:  10.583449  10.583449  28.641350
  Angles:   90.000000  90.000000  60.000000

Effective grid spacing dv^(1/3) = 0.1859

     iter     time        total  log10-change:
                         energy  eigst   dens
iter:   1 12:25:44 -12543.759009
iter:   2 12:26:09 -12543.209055  -0.86  -1.43
iter:   3 12:26:35 -12540.996853  -0.95  -1.45
iter:   4 12:27:00 -12541.057689  -1.90  -1.63
iter:   5 12:27:25 -12540.870360c -2.23  -1.64
iter:   6 12:27:51 -12540.993356c -1.70  -1.69
iter:   7 12:28:16 -12540.925647c -1.84  -2.10
iter:   8 12:28:42 -12540.941405c -2.49  -2.37
iter:   9 12:29:07 -12540.909723c -2.58  -2.44
iter:  10 12:29:32 -12540.877787c -2.73  -2.54
iter:  11 12:29:58 -12540.866195c -3.00  -2.67
iter:  12 12:30:23 -12540.866035c -3.45  -2.75
iter:  13 12:30:48 -12540.864478c -3.62  -2.82
iter:  14 12:31:14 -12540.863528c -3.46  -2.94
iter:  15 12:31:39 -12540.863488c -4.15  -3.03
iter:  16 12:32:04 -12540.862834c -3.98  -3.04
iter:  17 12:32:30 -12540.862546c -4.06  -3.15
iter:  18 12:32:55 -12540.862521c -4.41  -3.33
iter:  19 12:33:21 -12540.862494c -4.88  -3.40
iter:  20 12:33:46 -12540.862403c -5.00  -3.45
iter:  21 12:34:11 -12540.862355c -5.25  -3.65
iter:  22 12:34:37 -12540.862263c -5.77  -3.79
iter:  23 12:35:02 -12540.862151c -6.00  -3.89
iter:  24 12:35:28 -12540.862148c -6.57  -4.07c
iter:  25 12:35:53 -12540.862154c -6.87  -4.16c
iter:  26 12:36:18 -12540.862136c -6.72  -4.22c
iter:  27 12:36:44 -12540.862090c -6.71  -4.35c
iter:  28 12:37:09 -12540.862080c -6.93  -4.53c
iter:  29 12:37:34 -12540.862095c -7.14  -4.67c
iter:  30 12:38:00 -12540.862088c -7.46c -4.97c

Converged after 30 iterations.

Dipole moment: (-26.585908, -15.349381, -0.173930) |e|*Ang

Energy contributions relative to reference atoms: (reference = -19803672.632242)

Kinetic:       +1293.059304
Potential:     -1219.066083
External:        +0.000000
XC:            -12614.710938
Entropy (-ST):   -0.876083
Local:           +0.293671
--------------------------
Free energy:   -12541.300130
Extrapolated:  -12540.862088

Showing only first 2 kpts
 Kpt  Band  Eigenvalues  Occupancy
  0   235     -3.94430    1.38248
  0   236     -3.92853    1.31320
  0   237     -3.88271    1.09473
  0   238     -3.86203    0.99159

  1   235     -3.98591    1.54481
  1   236     -3.89786    1.16911
  1   237     -3.85399    0.95143
  1   238     -3.80645    0.72129


Fermi level: -3.86371

No gap

Forces in eV/Ang:
  0 Tl    0.00000    0.00000   -0.01513
  1 Tl   -0.02329   -0.01344    0.03021
  2 Tl   -0.01293   -0.00746    0.00232
  3 Tl   -0.00000    0.00000    0.02834
  4 Tl   -0.01128    0.03580   -0.10246
  5 Tl   -0.00000    0.02689    0.03021
  6 Tl   -0.00051    0.00029    0.01366
  7 Tl   -0.04234    0.00102    0.04167
  8 Tl   -0.03665   -0.00813   -0.10246
  9 Tl    0.00924   -0.00533    0.00600
 10 Tl   -0.00000    0.01493    0.00232
 11 Tl   -0.02205    0.03616    0.04167
 12 Tl    0.02536   -0.02767   -0.10246
 13 Tl    0.02329   -0.01344    0.03021
 14 Tl   -0.00000   -0.00058    0.01366
 15 Tl   -0.02029   -0.03717    0.04167
 16 Tl    0.00000   -0.00000   -0.08395
 17 Tl    0.03529    0.02038    0.03087
 18 Tl    0.00051    0.00029    0.01366
 19 Tl   -0.00000    0.00000   -2.58747
 20 Tl    0.03665   -0.00813   -0.10246
 21 Tl    0.00000   -0.04075    0.03087
 22 Tl   -0.05019    0.02898   -0.04164
 23 Tl    0.02205    0.03616    0.04167
 24 Tl   -0.02536   -0.02767   -0.10246
 25 Tl   -0.00000    0.01066    0.00600
 26 Tl    0.01293   -0.00746    0.00232
 27 Tl    0.02029   -0.03717    0.04167
 28 Tl    0.01128    0.03580   -0.10246
 29 Tl   -0.03529    0.02038    0.03087
 30 Tl    0.00000   -0.05795   -0.04164
 31 Tl    0.04234    0.00102    0.04167
 32 Tl   -0.00000    0.00000   -0.11600
 33 Tl   -0.00924   -0.00533    0.00600
 34 Tl    0.05019    0.02898   -0.04164
 35 Tl    0.00000    0.00000   -0.00381
 36 O    -0.00000    0.00000    2.72279
 37 H     0.00000    0.00000    0.04607

      Step     Time          Energy         fmax
BFGS:    0 12:38:08   -12540.862088        2.7228
System changes: positions 

Initializing position-dependent things.

Density initialized from wave functions
                                                             
                                                             
                                                             
                                                             
                                                             
                                                             
                                     H                       
                                  Tl O     Tl       Tl       
                                                             
                            Tl       Tl       Tl             
                                                             
                      Tl       Tl      Tl                    
                         Tl      Tl       Tl                 
                                                             
                  Tl       Tl       Tl                       
                             Tl       Tl       Tl            
            Tl       Tl       Tl                             
                       Tl       Tl       Tl                  
                                                             
                 Tl       Tl      Tl                         
                    Tl      Tl       Tl                      
             Tl       Tl       Tl                            
                                                             
       Tl       Tl       Tl                                  
                                                             
                                                             
                                                             
                                                             

Positions:
   0 Tl     0.000000    0.000000   10.000000    ( 0.0000,  0.0000,  0.0000)
   1 Tl     3.527816    2.036786   12.880450    ( 0.0000,  0.0000,  0.0000)
   2 Tl     1.764628    1.018809   15.753241    ( 0.0000,  0.0000,  0.0000)
   3 Tl     5.291724    3.055179   18.683341    ( 0.0000,  0.0000,  0.0000)
   4 Tl     1.763908    3.055179   10.000000    ( 0.0000,  0.0000,  0.0000)
   5 Tl     5.291724    5.091964   12.880450    ( 0.0000,  0.0000,  0.0000)
   6 Tl     3.536422    4.068603   15.756623    ( 0.0000,  0.0000,  0.0000)
   7 Tl     7.054629    6.110052   18.677178    ( 0.0000,  0.0000,  0.0000)
   8 Tl     3.527816    6.110357   10.000000    ( 0.0000,  0.0000,  0.0000)
   9 Tl     7.055633    8.147143   12.880450    ( 0.0000,  0.0000,  0.0000)
  10 Tl     5.291724    7.127918   15.753241    ( 0.0000,  0.0000,  0.0000)
  11 Tl     8.819304    9.166557   18.677178    ( 0.0000,  0.0000,  0.0000)
  12 Tl     3.527816    0.000000   10.000000    ( 0.0000,  0.0000,  0.0000)
  13 Tl     7.055633    2.036786   12.880450    ( 0.0000,  0.0000,  0.0000)
  14 Tl     5.291724    1.028330   15.756623    ( 0.0000,  0.0000,  0.0000)
  15 Tl     8.818775    3.054462   18.677178    ( 0.0000,  0.0000,  0.0000)
  16 Tl     5.291724    3.055179   10.000000    ( 0.0000,  0.0000,  0.0000)
  17 Tl     8.819541    5.091964   12.880450    ( 0.0000,  0.0000,  0.0000)
  18 Tl     7.047027    4.068603   15.756623    ( 0.0000,  0.0000,  0.0000)
  19 Tl    10.583449    6.110357   18.643686    ( 0.0000,  0.0000,  0.0000)
  20 Tl     7.055633    6.110357   10.000000    ( 0.0000,  0.0000,  0.0000)
  21 Tl    10.583449    8.147143   12.880450    ( 0.0000,  0.0000,  0.0000)
  22 Tl     8.815421    7.131128   15.754629    ( 0.0000,  0.0000,  0.0000)
  23 Tl    12.347594    9.166557   18.677178    ( 0.0000,  0.0000,  0.0000)
  24 Tl     7.055633    0.000000   10.000000    ( 0.0000,  0.0000,  0.0000)
  25 Tl    10.583449    2.036786   12.880450    ( 0.0000,  0.0000,  0.0000)
  26 Tl     8.818821    1.018809   15.753241    ( 0.0000,  0.0000,  0.0000)
  27 Tl    12.348123    3.054462   18.677178    ( 0.0000,  0.0000,  0.0000)
  28 Tl     8.819541    3.055179   10.000000    ( 0.0000,  0.0000,  0.0000)
  29 Tl    12.347357    5.091964   12.880450    ( 0.0000,  0.0000,  0.0000)
  30 Tl    10.583449    4.068815   15.754629    ( 0.0000,  0.0000,  0.0000)
  31 Tl    14.112268    6.110052   18.677178    ( 0.0000,  0.0000,  0.0000)
  32 Tl    10.583449    6.110357   10.000000    ( 0.0000,  0.0000,  0.0000)
  33 Tl    14.111265    8.147143   12.880450    ( 0.0000,  0.0000,  0.0000)
  34 Tl    12.351477    7.131128   15.754629    ( 0.0000,  0.0000,  0.0000)
  35 Tl    15.875173    9.165536   18.652456    ( 0.0000,  0.0000,  0.0000)
  36 O     10.583449    6.110357   20.719547    ( 0.0000,  0.0000,  0.0000)
  37 H     10.583449    6.110357   21.641308    ( 0.0000,  0.0000,  0.0000)

Unit cell:
           periodic     x           y           z      points  spacing
  1. axis:    yes   10.583449    0.000000    0.000000    52     0.1763
  2. axis:    yes    5.291724    9.165536    0.000000    52     0.1763
  3. axis:    no     0.000000    0.000000   28.641350   160     0.1790

  Lengths:  10.583449  10.583449  28.641350
  Angles:   90.000000  90.000000  60.000000

Effective grid spacing dv^(1/3) = 0.1859

     iter     time        total  log10-change:
                         energy  eigst   dens
iter:   1 12:38:52 -12541.006022  -2.04
iter:   2 12:39:17 -12540.998321  -3.08  -2.78
iter:   3 12:39:42 -12540.990551c -3.82  -2.85
iter:   4 12:40:07 -12540.975288c -3.53  -3.06
iter:   5 12:40:33 -12540.973217c -3.74  -3.18
iter:   6 12:40:58 -12540.973342c -3.75  -3.47
iter:   7 12:41:23 -12540.971814c -4.23  -3.49
iter:   8 12:41:48 -12540.971872c -4.67  -3.83
iter:   9 12:42:14 -12540.971933c -5.53  -3.92
iter:  10 12:42:39 -12540.971983c -5.74  -3.93
iter:  11 12:43:04 -12540.971922c -5.62  -3.91
iter:  12 12:43:30 -12540.971954c -6.08  -4.14c
iter:  13 12:43:55 -12540.972009c -6.24  -4.22c
iter:  14 12:44:20 -12540.971988c -6.60  -4.39c
iter:  15 12:44:46 -12540.971945c -6.76  -4.51c
iter:  16 12:45:11 -12540.971949c -6.97  -4.64c
iter:  17 12:45:36 -12540.971958c -7.24  -4.70c
iter:  18 12:46:01 -12540.971960c -7.78c -4.78c

Converged after 18 iterations.

Dipole moment: (-26.788267, -15.466213, -0.253135) |e|*Ang

Energy contributions relative to reference atoms: (reference = -19803672.632242)

Kinetic:       +1291.691002
Potential:     -1217.700939
External:        +0.000000
XC:            -12614.828733
Entropy (-ST):   -0.875064
Local:           +0.304241
--------------------------
Free energy:   -12541.409492
Extrapolated:  -12540.971960

Showing only first 2 kpts
 Kpt  Band  Eigenvalues  Occupancy
  0   235     -3.98588    1.38438
  0   236     -3.96985    1.31407
  0   237     -3.92450    1.09801
  0   238     -3.90528    1.00219

  1   235     -4.02505    1.53781
  1   236     -3.93614    1.15526
  1   237     -3.89575    0.95460
  1   238     -3.84815    0.72389


Fermi level: -3.90484

No gap

Forces in eV/Ang:
  0 Tl    0.00000   -0.00000   -0.01660
  1 Tl   -0.02301   -0.01329    0.03128
  2 Tl   -0.01366   -0.00789   -0.00086
  3 Tl   -0.00000    0.00000    0.02415
  4 Tl   -0.01191    0.03711   -0.10170
  5 Tl   -0.00000    0.02657    0.03128
  6 Tl    0.00172   -0.00099    0.01265
  7 Tl   -0.02715    0.00210    0.04780
  8 Tl   -0.03809   -0.00824   -0.10170
  9 Tl    0.01098   -0.00634    0.00818
 10 Tl   -0.00000    0.01578   -0.00086
 11 Tl   -0.01539    0.02247    0.04780
 12 Tl    0.02618   -0.02887   -0.10170
 13 Tl    0.02301   -0.01329    0.03128
 14 Tl   -0.00000    0.00199    0.01265
 15 Tl   -0.01176   -0.02456    0.04780
 16 Tl    0.00000   -0.00000   -0.08526
 17 Tl    0.03556    0.02053    0.02834
 18 Tl   -0.00172   -0.00099    0.01265
 19 Tl   -0.00000    0.00000   -1.25042
 20 Tl    0.03809   -0.00824   -0.10170
 21 Tl    0.00000   -0.04106    0.02834
 22 Tl   -0.06237    0.03601   -0.05703
 23 Tl    0.01539    0.02247    0.04780
 24 Tl   -0.02618   -0.02887   -0.10170
 25 Tl   -0.00000    0.01268    0.00818
 26 Tl    0.01366   -0.00789   -0.00086
 27 Tl    0.01176   -0.02456    0.04780
 28 Tl    0.01191    0.03711   -0.10170
 29 Tl   -0.03556    0.02053    0.02834
 30 Tl    0.00000   -0.07202   -0.05703
 31 Tl    0.02715    0.00210    0.04780
 32 Tl    0.00000    0.00000   -0.11624
 33 Tl   -0.01098   -0.00634    0.00818
 34 Tl    0.06237    0.03601   -0.05703
 35 Tl   -0.00000    0.00000   -0.00776
 36 O     0.00000    0.00000   -0.76640
 37 H     0.00000    0.00000    2.28969

BFGS:    1 12:46:09   -12540.971960        2.2897
System changes: positions 

Initializing position-dependent things.

Density initialized from wave functions
                                                             
                                                             
                                                             
                                                             
                                                             
                                     H                       
                                                             
                                  Tl O     Tl       Tl       
                                                             
                            Tl       Tl       Tl             
                                                             
                      Tl       Tl      Tl                    
                         Tl      Tl       Tl                 
                                                             
                  Tl       Tl       Tl                       
                             Tl       Tl       Tl            
            Tl       Tl       Tl                             
                       Tl       Tl       Tl                  
                                                             
                 Tl       Tl      Tl                         
                    Tl      Tl       Tl                      
                                                             
             Tl       Tl       Tl                            
       Tl       Tl       Tl                                  
                                                             
                                                             
                                                             
                                                             

Positions:
   0 Tl     0.000000    0.000000   10.000000    ( 0.0000,  0.0000,  0.0000)
   1 Tl     3.527816    2.036786   12.880450    ( 0.0000,  0.0000,  0.0000)
   2 Tl     1.764298    1.018618   15.753248    ( 0.0000,  0.0000,  0.0000)
   3 Tl     5.291724    3.055179   18.683974    ( 0.0000,  0.0000,  0.0000)
   4 Tl     1.763908    3.055179   10.000000    ( 0.0000,  0.0000,  0.0000)
   5 Tl     5.291724    5.091964   12.880450    ( 0.0000,  0.0000,  0.0000)
   6 Tl     3.536445    4.068590   15.756944    ( 0.0000,  0.0000,  0.0000)
   7 Tl     7.053823    6.110094   18.678303    ( 0.0000,  0.0000,  0.0000)
   8 Tl     3.527816    6.110357   10.000000    ( 0.0000,  0.0000,  0.0000)
   9 Tl     7.055633    8.147143   12.880450    ( 0.0000,  0.0000,  0.0000)
  10 Tl     5.291724    7.128300   15.753248    ( 0.0000,  0.0000,  0.0000)
  11 Tl     8.818864    9.167234   18.678303    ( 0.0000,  0.0000,  0.0000)
  12 Tl     3.527816    0.000000   10.000000    ( 0.0000,  0.0000,  0.0000)
  13 Tl     7.055633    2.036786   12.880450    ( 0.0000,  0.0000,  0.0000)
  14 Tl     5.291724    1.028356   15.756944    ( 0.0000,  0.0000,  0.0000)
  15 Tl     8.818408    3.053743   18.678303    ( 0.0000,  0.0000,  0.0000)
  16 Tl     5.291724    3.055179   10.000000    ( 0.0000,  0.0000,  0.0000)
  17 Tl     8.819541    5.091964   12.880450    ( 0.0000,  0.0000,  0.0000)
  18 Tl     7.047004    4.068590   15.756944    ( 0.0000,  0.0000,  0.0000)
  19 Tl    10.583449    6.110357   18.600854    ( 0.0000,  0.0000,  0.0000)
  20 Tl     7.055633    6.110357   10.000000    ( 0.0000,  0.0000,  0.0000)
  21 Tl    10.583449    8.147143   12.880450    ( 0.0000,  0.0000,  0.0000)
  22 Tl     8.813991    7.131954   15.753360    ( 0.0000,  0.0000,  0.0000)
  23 Tl    12.348034    9.167234   18.678303    ( 0.0000,  0.0000,  0.0000)
  24 Tl     7.055633    0.000000   10.000000    ( 0.0000,  0.0000,  0.0000)
  25 Tl    10.583449    2.036786   12.880450    ( 0.0000,  0.0000,  0.0000)
  26 Tl     8.819151    1.018618   15.753248    ( 0.0000,  0.0000,  0.0000)
  27 Tl    12.348490    3.053743   18.678303    ( 0.0000,  0.0000,  0.0000)
  28 Tl     8.819541    3.055179   10.000000    ( 0.0000,  0.0000,  0.0000)
  29 Tl    12.347357    5.091964   12.880450    ( 0.0000,  0.0000,  0.0000)
  30 Tl    10.583449    4.067163   15.753360    ( 0.0000,  0.0000,  0.0000)
  31 Tl    14.113075    6.110094   18.678303    ( 0.0000,  0.0000,  0.0000)
  32 Tl    10.583449    6.110357   10.000000    ( 0.0000,  0.0000,  0.0000)
  33 Tl    14.111265    8.147143   12.880450    ( 0.0000,  0.0000,  0.0000)
  34 Tl    12.352907    7.131954   15.753360    ( 0.0000,  0.0000,  0.0000)
  35 Tl    15.875173    9.165536   18.652300    ( 0.0000,  0.0000,  0.0000)
  36 O     10.583449    6.110357   20.731878    ( 0.0000,  0.0000,  0.0000)
  37 H     10.583449    6.110357   21.677725    ( 0.0000,  0.0000,  0.0000)

Unit cell:
           periodic     x           y           z      points  spacing
  1. axis:    yes   10.583449    0.000000    0.000000    52     0.1763
  2. axis:    yes    5.291724    9.165536    0.000000    52     0.1763
  3. axis:    no     0.000000    0.000000   28.641350   160     0.1790

  Lengths:  10.583449  10.583449  28.641350
  Angles:   90.000000  90.000000  60.000000

Effective grid spacing dv^(1/3) = 0.1859

     iter     time        total  log10-change:
                         energy  eigst   dens
iter:   1 12:46:53 -12541.133455  -2.23
iter:   2 12:47:18 -12541.109930  -3.22  -2.57
iter:   3 12:47:44 -12541.081444c -3.69  -2.56
iter:   4 12:48:09 -12541.067676c -3.40  -3.02
iter:   5 12:48:34 -12541.064505c -4.41  -3.13
iter:   6 12:48:59 -12541.063813c -4.20  -3.48
iter:   7 12:49:25 -12541.063553c -4.43  -3.53
iter:   8 12:49:50 -12541.063589c -4.67  -3.73
iter:   9 12:50:16 -12541.063510c -5.42  -3.77
iter:  10 12:50:41 -12541.063587c -5.61  -4.03c
iter:  11 12:51:06 -12541.063602c -5.89  -4.08c
iter:  12 12:51:31 -12541.063554c -6.37  -4.08c
iter:  13 12:51:57 -12541.063502c -6.23  -4.26c
iter:  14 12:52:22 -12541.063513c -6.74  -4.25c
iter:  15 12:52:47 -12541.063505c -6.90  -4.28c
iter:  16 12:53:13 -12541.063492c -6.55  -4.42c
iter:  17 12:53:38 -12541.063502c -7.20  -4.71c
iter:  18 12:54:03 -12541.063506c -7.39  -4.78c
iter:  19 12:54:28 -12541.063502c -7.96c -4.90c

Converged after 19 iterations.

Dipole moment: (-27.005167, -15.591440, -0.298579) |e|*Ang

Energy contributions relative to reference atoms: (reference = -19803672.632242)

Kinetic:       +1288.782712
Potential:     -1215.471018
External:        +0.000000
XC:            -12614.245051
Entropy (-ST):   -0.874434
Local:           +0.307072
--------------------------
Free energy:   -12541.500719
Extrapolated:  -12541.063502

Showing only first 2 kpts
 Kpt  Band  Eigenvalues  Occupancy
  0   235     -4.00981    1.38653
  0   236     -3.99352    1.31515
  0   237     -3.94950    1.10577
  0   238     -3.93015    1.00943

  1   235     -4.04699    1.53250
  1   236     -3.95758    1.14552
  1   237     -3.91899    0.95367
  1   238     -3.87291    0.73006


Fermi level: -3.92827

No gap

Forces in eV/Ang:
  0 Tl   -0.00000    0.00000   -0.01957
  1 Tl   -0.02276   -0.01314    0.03312
  2 Tl   -0.01284   -0.00741   -0.00448
  3 Tl    0.00000    0.00000    0.03361
  4 Tl   -0.01192    0.03690   -0.10387
  5 Tl   -0.00000    0.02629    0.03312
  6 Tl   -0.00044    0.00025    0.01104
  7 Tl   -0.02483    0.00364    0.05393
  8 Tl   -0.03792   -0.00813   -0.10387
  9 Tl    0.00975   -0.00563    0.00993
 10 Tl   -0.00000    0.01483   -0.00448
 11 Tl   -0.01557    0.01969    0.05393
 12 Tl    0.02600   -0.02877   -0.10387
 13 Tl    0.02276   -0.01314    0.03312
 14 Tl    0.00000   -0.00051    0.01104
 15 Tl   -0.00926   -0.02333    0.05393
 16 Tl   -0.00000   -0.00000   -0.08852
 17 Tl    0.03422    0.01976    0.02985
 18 Tl    0.00044    0.00025    0.01104
 19 Tl    0.00000    0.00000   -0.62761
 20 Tl    0.03792   -0.00813   -0.10387
 21 Tl    0.00000   -0.03952    0.02985
 22 Tl   -0.07029    0.04058   -0.07132
 23 Tl    0.01557    0.01969    0.05393
 24 Tl   -0.02600   -0.02877   -0.10387
 25 Tl   -0.00000    0.01125    0.00993
 26 Tl    0.01284   -0.00741   -0.00448
 27 Tl    0.00926   -0.02333    0.05393
 28 Tl    0.01192    0.03690   -0.10387
 29 Tl   -0.03422    0.01976    0.02985
 30 Tl    0.00000   -0.08117   -0.07132
 31 Tl    0.02483    0.00364    0.05393
 32 Tl   -0.00000    0.00000   -0.12019
 33 Tl   -0.00975   -0.00563    0.00993
 34 Tl    0.07029    0.04058   -0.07132
 35 Tl    0.00000    0.00000    0.00104
 36 O     0.00000    0.00000    0.03131
 37 H     0.00000    0.00000    0.79489

BFGS:    2 12:54:36   -12541.063502        0.7949
System changes: positions 

Initializing position-dependent things.

Density initialized from wave functions
                                                             
                                                             
                                                             
                                                             
                                                             
                                     H                       
                                                             
                                  Tl O     Tl       Tl       
                                                             
                            Tl       Tl       Tl             
                                                             
                      Tl       Tl      Tl                    
                         Tl      Tl       Tl                 
                                                             
                  Tl       Tl       Tl                       
                             Tl       Tl       Tl            
            Tl       Tl       Tl                             
                       Tl       Tl       Tl                  
                                                             
                 Tl       Tl      Tl                         
                    Tl      Tl       Tl                      
                                                             
             Tl       Tl       Tl                            
       Tl       Tl       Tl                                  
                                                             
                                                             
                                                             
                                                             

Positions:
   0 Tl     0.000000    0.000000   10.000000    ( 0.0000,  0.0000,  0.0000)
   1 Tl     3.527816    2.036786   12.880450    ( 0.0000,  0.0000,  0.0000)
   2 Tl     1.763809    1.018336   15.753146    ( 0.0000,  0.0000,  0.0000)
   3 Tl     5.291724    3.055179   18.685160    ( 0.0000,  0.0000,  0.0000)
   4 Tl     1.763908    3.055179   10.000000    ( 0.0000,  0.0000,  0.0000)
   5 Tl     5.291724    5.091964   12.880450    ( 0.0000,  0.0000,  0.0000)
   6 Tl     3.536437    4.068594   15.757387    ( 0.0000,  0.0000,  0.0000)
   7 Tl     7.052746    6.110205   18.680217    ( 0.0000,  0.0000,  0.0000)
   8 Tl     3.527816    6.110357   10.000000    ( 0.0000,  0.0000,  0.0000)
   9 Tl     7.055633    8.147143   12.880450    ( 0.0000,  0.0000,  0.0000)
  10 Tl     5.291724    7.128864   15.753146    ( 0.0000,  0.0000,  0.0000)
  11 Tl     8.818230    9.168111   18.680217    ( 0.0000,  0.0000,  0.0000)
  12 Tl     3.527816    0.000000   10.000000    ( 0.0000,  0.0000,  0.0000)
  13 Tl     7.055633    2.036786   12.880450    ( 0.0000,  0.0000,  0.0000)
  14 Tl     5.291724    1.028347   15.757387    ( 0.0000,  0.0000,  0.0000)
  15 Tl     8.817966    3.052755   18.680217    ( 0.0000,  0.0000,  0.0000)
  16 Tl     5.291724    3.055179   10.000000    ( 0.0000,  0.0000,  0.0000)
  17 Tl     8.819541    5.091964   12.880450    ( 0.0000,  0.0000,  0.0000)
  18 Tl     7.047012    4.068594   15.757387    ( 0.0000,  0.0000,  0.0000)
  19 Tl    10.583449    6.110357   18.559816    ( 0.0000,  0.0000,  0.0000)
  20 Tl     7.055633    6.110357   10.000000    ( 0.0000,  0.0000,  0.0000)
  21 Tl    10.583449    8.147143   12.880450    ( 0.0000,  0.0000,  0.0000)
  22 Tl     8.811526    7.133377   15.750956    ( 0.0000,  0.0000,  0.0000)
  23 Tl    12.348668    9.168111   18.680217    ( 0.0000,  0.0000,  0.0000)
  24 Tl     7.055633    0.000000   10.000000    ( 0.0000,  0.0000,  0.0000)
  25 Tl    10.583449    2.036786   12.880450    ( 0.0000,  0.0000,  0.0000)
  26 Tl     8.819640    1.018336   15.753146    ( 0.0000,  0.0000,  0.0000)
  27 Tl    12.348932    3.052755   18.680217    ( 0.0000,  0.0000,  0.0000)
  28 Tl     8.819541    3.055179   10.000000    ( 0.0000,  0.0000,  0.0000)
  29 Tl    12.347357    5.091964   12.880450    ( 0.0000,  0.0000,  0.0000)
  30 Tl    10.583449    4.064317   15.750956    ( 0.0000,  0.0000,  0.0000)
  31 Tl    14.114152    6.110205   18.680217    ( 0.0000,  0.0000,  0.0000)
  32 Tl    10.583449    6.110357   10.000000    ( 0.0000,  0.0000,  0.0000)
  33 Tl    14.111265    8.147143   12.880450    ( 0.0000,  0.0000,  0.0000)
  34 Tl    12.355371    7.133377   15.750956    ( 0.0000,  0.0000,  0.0000)
  35 Tl    15.875173    9.165536   18.652264    ( 0.0000,  0.0000,  0.0000)
  36 O     10.583449    6.110357   20.749641    ( 0.0000,  0.0000,  0.0000)
  37 H     10.583449    6.110357   21.708685    ( 0.0000,  0.0000,  0.0000)

Unit cell:
           periodic     x           y           z      points  spacing
  1. axis:    yes   10.583449    0.000000    0.000000    52     0.1763
  2. axis:    yes    5.291724    9.165536    0.000000    52     0.1763
  3. axis:    no     0.000000    0.000000   28.641350   160     0.1790

  Lengths:  10.583449  10.583449  28.641350
  Angles:   90.000000  90.000000  60.000000

Effective grid spacing dv^(1/3) = 0.1859

     iter     time        total  log10-change:
                         energy  eigst   dens
iter:   1 12:55:20 -12541.129996  -2.27
iter:   2 12:55:46 -12541.119043  -3.26  -2.68
iter:   3 12:56:11 -12541.101647c -3.84  -2.66
iter:   4 12:56:36 -12541.095271c -3.64  -3.16
iter:   5 12:57:01 -12541.093658c -4.67  -3.28
iter:   6 12:57:27 -12541.093281c -4.71  -3.55
iter:   7 12:57:52 -12541.093353c -4.70  -3.61
iter:   8 12:58:17 -12541.093358c -5.01  -3.85
iter:   9 12:58:43 -12541.093321c -5.61  -3.89
iter:  10 12:59:08 -12541.093359c -5.74  -4.11c
iter:  11 12:59:33 -12541.093375c -5.81  -4.15c
iter:  12 12:59:59 -12541.093349c -6.39  -4.18c
iter:  13 13:00:24 -12541.093313c -6.13  -4.45c
iter:  14 13:00:49 -12541.093307c -7.06  -4.49c
iter:  15 13:01:15 -12541.093298c -6.67  -4.58c
iter:  16 13:01:40 -12541.093299c -6.71  -4.81c
iter:  17 13:02:05 -12541.093310c -7.32  -4.84c
iter:  18 13:02:30 -12541.093315c -7.39  -4.95c
iter:  19 13:02:56 -12541.093311c -7.93c -5.27c

Converged after 19 iterations.

Dipole moment: (-27.276418, -15.748047, -0.348529) |e|*Ang

Energy contributions relative to reference atoms: (reference = -19803672.632242)

Kinetic:       +1286.589896
Potential:     -1213.734052
External:        +0.000000
XC:            -12613.823316
Entropy (-ST):   -0.873758
Local:           +0.311041
--------------------------
Free energy:   -12541.530190
Extrapolated:  -12541.093311

Showing only first 2 kpts
 Kpt  Band  Eigenvalues  Occupancy
  0   235     -4.03627    1.39001
  0   236     -4.01964    1.31730
  0   237     -3.97661    1.11301
  0   238     -3.95677    1.01432

  1   235     -4.07140    1.52807
  1   236     -3.98113    1.13529
  1   237     -3.94451    0.95302
  1   238     -3.89950    0.73449


Fermi level: -3.95391

No gap

Forces in eV/Ang:
  0 Tl    0.00000   -0.00000   -0.01826
  1 Tl   -0.02251   -0.01299    0.03147
  2 Tl   -0.01082   -0.00625   -0.00513
  3 Tl   -0.00000    0.00000    0.03305
  4 Tl   -0.01155    0.03649   -0.10071
  5 Tl   -0.00000    0.02599    0.03147
  6 Tl   -0.00201    0.00116    0.01073
  7 Tl   -0.00718    0.00507    0.06349
  8 Tl   -0.03738   -0.00825   -0.10071
  9 Tl    0.01101   -0.00635    0.00781
 10 Tl   -0.00000    0.01249   -0.00513
 11 Tl   -0.00799    0.00369    0.06349
 12 Tl    0.02583   -0.02825   -0.10071
 13 Tl    0.02251   -0.01299    0.03147
 14 Tl    0.00000   -0.00232    0.01073
 15 Tl    0.00080   -0.00876    0.06349
 16 Tl    0.00000   -0.00000   -0.08713
 17 Tl    0.03514    0.02029    0.03042
 18 Tl    0.00201    0.00116    0.01073
 19 Tl   -0.00000    0.00000   -0.03479
 20 Tl    0.03738   -0.00825   -0.10071
 21 Tl    0.00000   -0.04058    0.03042
 22 Tl   -0.07659    0.04422   -0.09006
 23 Tl    0.00799    0.00369    0.06349
 24 Tl   -0.02583   -0.02825   -0.10071
 25 Tl   -0.00000    0.01271    0.00781
 26 Tl    0.01082   -0.00625   -0.00513
 27 Tl   -0.00080   -0.00876    0.06349
 28 Tl    0.01155    0.03649   -0.10071
 29 Tl   -0.03514    0.02029    0.03042
 30 Tl    0.00000   -0.08844   -0.09006
 31 Tl    0.00718    0.00507    0.06349
 32 Tl   -0.00000   -0.00000   -0.11773
 33 Tl   -0.01101   -0.00635    0.00781
 34 Tl    0.07659    0.04422   -0.09006
 35 Tl   -0.00000   -0.00000    0.00060
 36 O     0.00000    0.00000    0.08237
 37 H    -0.00000    0.00000    0.09922

BFGS:    3 13:03:04   -12541.093311        0.1262
System changes: positions 

Initializing position-dependent things.

Density initialized from wave functions
                                                             
                                                             
                                                             
                                                             
                                                             
                                     H                       
                                                             
                                  Tl O     Tl       Tl       
                                                             
                            Tl       Tl       Tl             
                                                             
                      Tl       Tl      Tl                    
                         Tl      Tl       Tl                 
                                                             
                  Tl       Tl       Tl                       
                             Tl       Tl       Tl            
            Tl       Tl       Tl                             
                       Tl       Tl       Tl                  
                                                             
                 Tl       Tl      Tl                         
                    Tl      Tl       Tl                      
                                                             
             Tl       Tl       Tl                            
       Tl       Tl       Tl                                  
                                                             
                                                             
                                                             
                                                             

Positions:
   0 Tl     0.000000    0.000000   10.000000    ( 0.0000,  0.0000,  0.0000)
   1 Tl     3.527816    2.036786   12.880450    ( 0.0000,  0.0000,  0.0000)
   2 Tl     1.763562    1.018193   15.753051    ( 0.0000,  0.0000,  0.0000)
   3 Tl     5.291724    3.055179   18.685867    ( 0.0000,  0.0000,  0.0000)
   4 Tl     1.763908    3.055179   10.000000    ( 0.0000,  0.0000,  0.0000)
   5 Tl     5.291724    5.091964   12.880450    ( 0.0000,  0.0000,  0.0000)
   6 Tl     3.536404    4.068614   15.757629    ( 0.0000,  0.0000,  0.0000)
   7 Tl     7.052474    6.110303   18.681534    ( 0.0000,  0.0000,  0.0000)
   8 Tl     3.527816    6.110357   10.000000    ( 0.0000,  0.0000,  0.0000)
   9 Tl     7.055633    8.147143   12.880450    ( 0.0000,  0.0000,  0.0000)
  10 Tl     5.291724    7.129150   15.753051    ( 0.0000,  0.0000,  0.0000)
  11 Tl     8.818008    9.168298   18.681534    ( 0.0000,  0.0000,  0.0000)
  12 Tl     3.527816    0.000000   10.000000    ( 0.0000,  0.0000,  0.0000)
  13 Tl     7.055633    2.036786   12.880450    ( 0.0000,  0.0000,  0.0000)
  14 Tl     5.291724    1.028309   15.757629    ( 0.0000,  0.0000,  0.0000)
  15 Tl     8.817915    3.052470   18.681534    ( 0.0000,  0.0000,  0.0000)
  16 Tl     5.291724    3.055179   10.000000    ( 0.0000,  0.0000,  0.0000)
  17 Tl     8.819541    5.091964   12.880450    ( 0.0000,  0.0000,  0.0000)
  18 Tl     7.047045    4.068614   15.757629    ( 0.0000,  0.0000,  0.0000)
  19 Tl    10.583449    6.110357   18.552619    ( 0.0000,  0.0000,  0.0000)
  20 Tl     7.055633    6.110357   10.000000    ( 0.0000,  0.0000,  0.0000)
  21 Tl    10.583449    8.147143   12.880450    ( 0.0000,  0.0000,  0.0000)
  22 Tl     8.809921    7.134304   15.749139    ( 0.0000,  0.0000,  0.0000)
  23 Tl    12.348889    9.168298   18.681534    ( 0.0000,  0.0000,  0.0000)
  24 Tl     7.055633    0.000000   10.000000    ( 0.0000,  0.0000,  0.0000)
  25 Tl    10.583449    2.036786   12.880450    ( 0.0000,  0.0000,  0.0000)
  26 Tl     8.819887    1.018193   15.753051    ( 0.0000,  0.0000,  0.0000)
  27 Tl    12.348983    3.052470   18.681534    ( 0.0000,  0.0000,  0.0000)
  28 Tl     8.819541    3.055179   10.000000    ( 0.0000,  0.0000,  0.0000)
  29 Tl    12.347357    5.091964   12.880450    ( 0.0000,  0.0000,  0.0000)
  30 Tl    10.583449    4.062463   15.749139    ( 0.0000,  0.0000,  0.0000)
  31 Tl    14.114424    6.110303   18.681534    ( 0.0000,  0.0000,  0.0000)
  32 Tl    10.583449    6.110357   10.000000    ( 0.0000,  0.0000,  0.0000)
  33 Tl    14.111265    8.147143   12.880450    ( 0.0000,  0.0000,  0.0000)
  34 Tl    12.356977    7.134304   15.749139    ( 0.0000,  0.0000,  0.0000)
  35 Tl    15.875173    9.165536   18.652263    ( 0.0000,  0.0000,  0.0000)
  36 O     10.583449    6.110357   20.754083    ( 0.0000,  0.0000,  0.0000)
  37 H     10.583449    6.110357   21.714968    ( 0.0000,  0.0000,  0.0000)

Unit cell:
           periodic     x           y           z      points  spacing
  1. axis:    yes   10.583449    0.000000    0.000000    52     0.1763
  2. axis:    yes    5.291724    9.165536    0.000000    52     0.1763
  3. axis:    no     0.000000    0.000000   28.641350   160     0.1790

  Lengths:  10.583449  10.583449  28.641350
  Angles:   90.000000  90.000000  60.000000

Effective grid spacing dv^(1/3) = 0.1859

     iter     time        total  log10-change:
                         energy  eigst   dens
iter:   1 13:03:48 -12541.096718  -3.59
iter:   2 13:04:13 -12541.096653  -4.53  -3.28
iter:   3 13:04:38 -12541.095612c -5.19  -3.29
iter:   4 13:05:03 -12541.095635c -5.14  -3.85
iter:   5 13:05:29 -12541.095454c -5.94  -4.04c
iter:   6 13:05:54 -12541.095440c -6.17  -4.22c
iter:   7 13:06:19 -12541.095485c -6.12  -4.28c
iter:   8 13:06:44 -12541.095474c -6.59  -4.53c
iter:   9 13:07:10 -12541.095480c -7.27  -4.56c
iter:  10 13:07:35 -12541.095468c -7.41c -4.61c

Converged after 10 iterations.

Dipole moment: (-27.334599, -15.781638, -0.357810) |e|*Ang

Energy contributions relative to reference atoms: (reference = -19803672.632242)

Kinetic:       +1286.074300
Potential:     -1213.296251
External:        +0.000000
XC:            -12613.738350
Entropy (-ST):   -0.873759
Local:           +0.301712
--------------------------
Free energy:   -12541.532347
Extrapolated:  -12541.095468

Showing only first 2 kpts
 Kpt  Band  Eigenvalues  Occupancy
  0   235     -4.04126    1.39044
  0   236     -4.02472    1.31820
  0   237     -3.98182    1.11461
  0   238     -3.96148    1.01341

  1   235     -4.07627    1.52801
  1   236     -3.98562    1.13333
  1   237     -3.94955    0.95379
  1   238     -3.90450    0.73499


Fermi level: -3.95880

No gap

Forces in eV/Ang:
  0 Tl    0.00000    0.00000   -0.01723
  1 Tl   -0.02237   -0.01292    0.03108
  2 Tl   -0.00877   -0.00506   -0.00260
  3 Tl    0.00000    0.00000    0.02657
  4 Tl   -0.01169    0.03703   -0.09968
  5 Tl   -0.00000    0.02583    0.03108
  6 Tl   -0.00311    0.00180    0.01332
  7 Tl   -0.00282    0.00605    0.05927
  8 Tl   -0.03791   -0.00839   -0.09968
  9 Tl    0.00952   -0.00550    0.00440
 10 Tl   -0.00000    0.01012   -0.00260
 11 Tl   -0.00664   -0.00058    0.05927
 12 Tl    0.02623   -0.02864   -0.09968
 13 Tl    0.02237   -0.01292    0.03108
 14 Tl    0.00000   -0.00360    0.01332
 15 Tl    0.00383   -0.00546    0.05927
 16 Tl    0.00000   -0.00000   -0.08678
 17 Tl    0.03524    0.02035    0.02945
 18 Tl    0.00311    0.00180    0.01332
 19 Tl    0.00000    0.00000    0.07663
 20 Tl    0.03791   -0.00839   -0.09968
 21 Tl    0.00000   -0.04070    0.02945
 22 Tl   -0.07271    0.04198   -0.09440
 23 Tl    0.00664   -0.00058    0.05927
 24 Tl   -0.02623   -0.02864   -0.09968
 25 Tl   -0.00000    0.01099    0.00440
 26 Tl    0.00877   -0.00506   -0.00260
 27 Tl   -0.00383   -0.00546    0.05927
 28 Tl    0.01169    0.03703   -0.09968
 29 Tl   -0.03524    0.02035    0.02945
 30 Tl    0.00000   -0.08395   -0.09440
 31 Tl    0.00282    0.00605    0.05927
 32 Tl   -0.00000   -0.00000   -0.11728
 33 Tl   -0.00952   -0.00550    0.00440
 34 Tl    0.07271    0.04198   -0.09440
 35 Tl   -0.00000   -0.00000   -0.00629
 36 O    -0.00000    0.00000    0.11506
 37 H    -0.00000    0.00000    0.01164

BFGS:    4 13:07:43   -12541.095468        0.1263
System changes: positions 

Initializing position-dependent things.

Density initialized from wave functions
                                                             
                                                             
                                                             
                                                             
                                                             
                                     H                       
                                                             
                                  Tl O     Tl       Tl       
                                                             
                            Tl       Tl       Tl             
                                                             
                      Tl       Tl      Tl                    
                         Tl      Tl       Tl                 
                                                             
                  Tl       Tl       Tl                       
                             Tl       Tl       Tl            
            Tl       Tl       Tl                             
                       Tl       Tl       Tl                  
                                                             
                 Tl       Tl      Tl                         
                    Tl      Tl       Tl                      
                                                             
             Tl       Tl       Tl                            
       Tl       Tl       Tl                                  
                                                             
                                                             
                                                             
                                                             

Positions:
   0 Tl     0.000000    0.000000   10.000000    ( 0.0000,  0.0000,  0.0000)
   1 Tl     3.527816    2.036786   12.880450    ( 0.0000,  0.0000,  0.0000)
   2 Tl     1.763015    1.017877   15.752874    ( 0.0000,  0.0000,  0.0000)
   3 Tl     5.291724    3.055179   18.687451    ( 0.0000,  0.0000,  0.0000)
   4 Tl     1.763908    3.055179   10.000000    ( 0.0000,  0.0000,  0.0000)
   5 Tl     5.291724    5.091964   12.880450    ( 0.0000,  0.0000,  0.0000)
   6 Tl     3.536274    4.068688   15.758311    ( 0.0000,  0.0000,  0.0000)
   7 Tl     7.052049    6.110594   18.684781    ( 0.0000,  0.0000,  0.0000)
   8 Tl     3.527816    6.110357   10.000000    ( 0.0000,  0.0000,  0.0000)
   9 Tl     7.055633    8.147143   12.880450    ( 0.0000,  0.0000,  0.0000)
  10 Tl     5.291724    7.129781   15.752874    ( 0.0000,  0.0000,  0.0000)
  11 Tl     8.817544    9.168521   18.684781    ( 0.0000,  0.0000,  0.0000)
  12 Tl     3.527816    0.000000   10.000000    ( 0.0000,  0.0000,  0.0000)
  13 Tl     7.055633    2.036786   12.880450    ( 0.0000,  0.0000,  0.0000)
  14 Tl     5.291724    1.028159   15.758311    ( 0.0000,  0.0000,  0.0000)
  15 Tl     8.817954    3.051957   18.684781    ( 0.0000,  0.0000,  0.0000)
  16 Tl     5.291724    3.055179   10.000000    ( 0.0000,  0.0000,  0.0000)
  17 Tl     8.819541    5.091964   12.880450    ( 0.0000,  0.0000,  0.0000)
  18 Tl     7.047175    4.068688   15.758311    ( 0.0000,  0.0000,  0.0000)
  19 Tl    10.583449    6.110357   18.544858    ( 0.0000,  0.0000,  0.0000)
  20 Tl     7.055633    6.110357   10.000000    ( 0.0000,  0.0000,  0.0000)
  21 Tl    10.583449    8.147143   12.880450    ( 0.0000,  0.0000,  0.0000)
  22 Tl     8.805937    7.136604   15.744278    ( 0.0000,  0.0000,  0.0000)
  23 Tl    12.349354    9.168521   18.684781    ( 0.0000,  0.0000,  0.0000)
  24 Tl     7.055633    0.000000   10.000000    ( 0.0000,  0.0000,  0.0000)
  25 Tl    10.583449    2.036786   12.880450    ( 0.0000,  0.0000,  0.0000)
  26 Tl     8.820434    1.017877   15.752874    ( 0.0000,  0.0000,  0.0000)
  27 Tl    12.348944    3.051957   18.684781    ( 0.0000,  0.0000,  0.0000)
  28 Tl     8.819541    3.055179   10.000000    ( 0.0000,  0.0000,  0.0000)
  29 Tl    12.347357    5.091964   12.880450    ( 0.0000,  0.0000,  0.0000)
  30 Tl    10.583449    4.057863   15.744278    ( 0.0000,  0.0000,  0.0000)
  31 Tl    14.114849    6.110594   18.684781    ( 0.0000,  0.0000,  0.0000)
  32 Tl    10.583449    6.110357   10.000000    ( 0.0000,  0.0000,  0.0000)
  33 Tl    14.111265    8.147143   12.880450    ( 0.0000,  0.0000,  0.0000)
  34 Tl    12.360961    7.136604   15.744278    ( 0.0000,  0.0000,  0.0000)
  35 Tl    15.875173    9.165536   18.652052    ( 0.0000,  0.0000,  0.0000)
  36 O     10.583449    6.110357   20.762586    ( 0.0000,  0.0000,  0.0000)
  37 H     10.583449    6.110357   21.724595    ( 0.0000,  0.0000,  0.0000)

Unit cell:
           periodic     x           y           z      points  spacing
  1. axis:    yes   10.583449    0.000000    0.000000    52     0.1763
  2. axis:    yes    5.291724    9.165536    0.000000    52     0.1763
  3. axis:    no     0.000000    0.000000   28.641350   160     0.1790

  Lengths:  10.583449  10.583449  28.641350
  Angles:   90.000000  90.000000  60.000000

Effective grid spacing dv^(1/3) = 0.1859

     iter     time        total  log10-change:
                         energy  eigst   dens
iter:   1 13:08:27 -12541.101098  -3.12
iter:   2 13:08:52 -12541.100856  -4.12  -3.19
iter:   3 13:09:17 -12541.099398c -4.84  -3.21
iter:   4 13:09:42 -12541.099133c -4.75  -3.60
iter:   5 13:10:08 -12541.098920c -5.56  -3.88
iter:   6 13:10:33 -12541.098873c -5.76  -3.97
iter:   7 13:10:58 -12541.098958c -5.68  -4.05c
iter:   8 13:11:24 -12541.098920c -6.12  -4.28c
iter:   9 13:11:49 -12541.098973c -6.54  -4.30c
iter:  10 13:12:14 -12541.098947c -7.01  -4.37c
iter:  11 13:12:39 -12541.098964c -7.08  -4.50c
iter:  12 13:13:05 -12541.098949c -7.20  -4.67c
iter:  13 13:13:30 -12541.098954c -7.57c -4.97c

Converged after 13 iterations.

Dipole moment: (-27.407542, -15.823752, -0.371099) |e|*Ang

Energy contributions relative to reference atoms: (reference = -19803672.632242)

Kinetic:       +1285.607786
Potential:     -1212.941995
External:        +0.000000
XC:            -12613.637054
Entropy (-ST):   -0.873885
Local:           +0.309252
--------------------------
Free energy:   -12541.535896
Extrapolated:  -12541.098954

Showing only first 2 kpts
 Kpt  Band  Eigenvalues  Occupancy
  0   235     -4.04814    1.39068
  0   236     -4.03208    1.32060
  0   237     -3.98894    1.11607
  0   238     -3.96745    1.00917

  1   235     -4.08348    1.52941
  1   236     -3.99170    1.12965
  1   237     -3.95681    0.95599
  1   238     -3.91127    0.73477


Fermi level: -3.96562

No gap

Forces in eV/Ang:
  0 Tl    0.00000   -0.00000   -0.01940
  1 Tl   -0.02305   -0.01331    0.03354
  2 Tl   -0.00714   -0.00412   -0.00318
  3 Tl   -0.00000    0.00000    0.03676
  4 Tl   -0.01153    0.03529   -0.10178
  5 Tl   -0.00000    0.02661    0.03354
  6 Tl   -0.00533    0.00308    0.01350
  7 Tl   -0.00655    0.00873    0.06040
  8 Tl   -0.03632   -0.00766   -0.10178
  9 Tl    0.00615   -0.00355    0.00351
 10 Tl   -0.00000    0.00824   -0.00318
 11 Tl   -0.01083    0.00131    0.06040
 12 Tl    0.02479   -0.02763   -0.10178
 13 Tl    0.02305   -0.01331    0.03354
 14 Tl    0.00000   -0.00615    0.01350
 15 Tl    0.00429   -0.01004    0.06040
 16 Tl   -0.00000   -0.00000   -0.08856
 17 Tl    0.03255    0.01879    0.02940
 18 Tl    0.00533    0.00308    0.01350
 19 Tl    0.00000    0.00000    0.16493
 20 Tl    0.03632   -0.00766   -0.10178
 21 Tl    0.00000   -0.03758    0.02940
 22 Tl   -0.06303    0.03639   -0.09034
 23 Tl    0.01083    0.00131    0.06040
 24 Tl   -0.02479   -0.02763   -0.10178
 25 Tl   -0.00000    0.00710    0.00351
 26 Tl    0.00714   -0.00412   -0.00318
 27 Tl   -0.00429   -0.01004    0.06040
 28 Tl    0.01153    0.03529   -0.10178
 29 Tl   -0.03255    0.01879    0.02940
 30 Tl    0.00000   -0.07278   -0.09034
 31 Tl    0.00655    0.00873    0.06040
 32 Tl   -0.00000    0.00000   -0.12037
 33 Tl   -0.00615   -0.00355    0.00351
 34 Tl    0.06303    0.03639   -0.09034
 35 Tl    0.00000   -0.00000    0.00091
 36 O     0.00000    0.00000    0.08558
 37 H     0.00000    0.00000   -0.03848

BFGS:    5 13:13:38   -12541.098954        0.1649
System changes: positions 

Initializing position-dependent things.

Density initialized from wave functions
                                                             
                                                             
                                                             
                                                             
                                                             
                                     H                       
                                                             
                                  Tl O     Tl       Tl       
                                                             
                            Tl       Tl       Tl             
                                                             
                      Tl       Tl      Tl                    
                         Tl      Tl       Tl                 
                                                             
                  Tl       Tl       Tl                       
                             Tl       Tl       Tl            
            Tl       Tl       Tl                             
                       Tl       Tl       Tl                  
                                                             
                 Tl       Tl      Tl                         
                    Tl      Tl       Tl                      
                                                             
             Tl       Tl       Tl                            
       Tl       Tl       Tl                                  
                                                             
                                                             
                                                             
                                                             

Positions:
   0 Tl     0.000000    0.000000   10.000000    ( 0.0000,  0.0000,  0.0000)
   1 Tl     3.527816    2.036786   12.880450    ( 0.0000,  0.0000,  0.0000)
   2 Tl     1.761691    1.017113   15.752377    ( 0.0000,  0.0000,  0.0000)
   3 Tl     5.291724    3.055179   18.691924    ( 0.0000,  0.0000,  0.0000)
   4 Tl     1.763908    3.055179   10.000000    ( 0.0000,  0.0000,  0.0000)
   5 Tl     5.291724    5.091964   12.880450    ( 0.0000,  0.0000,  0.0000)
   6 Tl     3.535851    4.068933   15.760047    ( 0.0000,  0.0000,  0.0000)
   7 Tl     7.050929    6.111451   18.693200    ( 0.0000,  0.0000,  0.0000)
   8 Tl     3.527816    6.110357   10.000000    ( 0.0000,  0.0000,  0.0000)
   9 Tl     7.055633    8.147143   12.880450    ( 0.0000,  0.0000,  0.0000)
  10 Tl     5.291724    7.131311   15.752377    ( 0.0000,  0.0000,  0.0000)
  11 Tl     8.816241    9.169062   18.693200    ( 0.0000,  0.0000,  0.0000)
  12 Tl     3.527816    0.000000   10.000000    ( 0.0000,  0.0000,  0.0000)
  13 Tl     7.055633    2.036786   12.880450    ( 0.0000,  0.0000,  0.0000)
  14 Tl     5.291724    1.027670   15.760047    ( 0.0000,  0.0000,  0.0000)
  15 Tl     8.818137    3.050558   18.693200    ( 0.0000,  0.0000,  0.0000)
  16 Tl     5.291724    3.055179   10.000000    ( 0.0000,  0.0000,  0.0000)
  17 Tl     8.819541    5.091964   12.880450    ( 0.0000,  0.0000,  0.0000)
  18 Tl     7.047598    4.068933   15.760047    ( 0.0000,  0.0000,  0.0000)
  19 Tl    10.583449    6.110357   18.535031    ( 0.0000,  0.0000,  0.0000)
  20 Tl     7.055633    6.110357   10.000000    ( 0.0000,  0.0000,  0.0000)
  21 Tl    10.583449    8.147143   12.880450    ( 0.0000,  0.0000,  0.0000)
  22 Tl     8.796060    7.142306   15.731877    ( 0.0000,  0.0000,  0.0000)
  23 Tl    12.350657    9.169062   18.693200    ( 0.0000,  0.0000,  0.0000)
  24 Tl     7.055633    0.000000   10.000000    ( 0.0000,  0.0000,  0.0000)
  25 Tl    10.583449    2.036786   12.880450    ( 0.0000,  0.0000,  0.0000)
  26 Tl     8.821758    1.017113   15.752377    ( 0.0000,  0.0000,  0.0000)
  27 Tl    12.348761    3.050558   18.693200    ( 0.0000,  0.0000,  0.0000)
  28 Tl     8.819541    3.055179   10.000000    ( 0.0000,  0.0000,  0.0000)
  29 Tl    12.347357    5.091964   12.880450    ( 0.0000,  0.0000,  0.0000)
  30 Tl    10.583449    4.046458   15.731877    ( 0.0000,  0.0000,  0.0000)
  31 Tl    14.115969    6.111451   18.693200    ( 0.0000,  0.0000,  0.0000)
  32 Tl    10.583449    6.110357   10.000000    ( 0.0000,  0.0000,  0.0000)
  33 Tl    14.111265    8.147143   12.880450    ( 0.0000,  0.0000,  0.0000)
  34 Tl    12.370838    7.142306   15.731877    ( 0.0000,  0.0000,  0.0000)
  35 Tl    15.875173    9.165536   18.651827    ( 0.0000,  0.0000,  0.0000)
  36 O     10.583449    6.110357   20.780211    ( 0.0000,  0.0000,  0.0000)
  37 H     10.583449    6.110357   21.743151    ( 0.0000,  0.0000,  0.0000)

Unit cell:
           periodic     x           y           z      points  spacing
  1. axis:    yes   10.583449    0.000000    0.000000    52     0.1763
  2. axis:    yes    5.291724    9.165536    0.000000    52     0.1763
  3. axis:    no     0.000000    0.000000   28.641350   160     0.1790

  Lengths:  10.583449  10.583449  28.641350
  Angles:   90.000000  90.000000  60.000000

Effective grid spacing dv^(1/3) = 0.1859

     iter     time        total  log10-change:
                         energy  eigst   dens
iter:   1 13:14:22 -12541.133497  -2.43
iter:   2 13:14:47 -12541.128396  -3.38  -2.62
iter:   3 13:15:12 -12541.106452c -4.15  -2.67
iter:   4 13:15:38 -12541.104884c -4.12  -3.27
iter:   5 13:16:03 -12541.104546c -4.74  -3.55
iter:   6 13:16:28 -12541.104394c -5.02  -3.66
iter:   7 13:16:53 -12541.104603c -5.11  -3.78
iter:   8 13:17:19 -12541.104570c -5.70  -3.95
iter:   9 13:17:44 -12541.104555c -6.05  -3.98
iter:  10 13:18:09 -12541.104573c -6.69  -4.09c
iter:  11 13:18:34 -12541.104636c -6.18  -4.17c
iter:  12 13:19:00 -12541.104604c -6.92  -4.45c
iter:  13 13:19:25 -12541.104599c -7.11  -4.58c
iter:  14 13:19:50 -12541.104600c -7.38  -4.64c
iter:  15 13:20:15 -12541.104603c -7.17  -4.70c
iter:  16 13:20:41 -12541.104601c -7.50c -4.88c

Converged after 16 iterations.

Dipole moment: (-27.578927, -15.922701, -0.392443) |e|*Ang

Energy contributions relative to reference atoms: (reference = -19803672.632242)

Kinetic:       +1284.758098
Potential:     -1212.282386
External:        +0.000000
XC:            -12613.451746
Entropy (-ST):   -0.874447
Local:           +0.308657
--------------------------
Free energy:   -12541.541824
Extrapolated:  -12541.104601

Showing only first 2 kpts
 Kpt  Band  Eigenvalues  Occupancy
  0   235     -4.05864    1.38910
  0   236     -4.04421    1.32621
  0   237     -4.00026    1.11827
  0   238     -3.97574    0.99622

  1   235     -4.09554    1.53364
  1   236     -4.00129    1.12338
  1   237     -3.96883    0.96173
  1   238     -3.92189    0.73359


Fermi level: -3.97649

No gap

Forces in eV/Ang:
  0 Tl    0.00000    0.00000   -0.01842
  1 Tl   -0.02223   -0.01283    0.03491
  2 Tl   -0.00007   -0.00004    0.00241
  3 Tl   -0.00000    0.00000    0.03618
  4 Tl   -0.01165    0.03693   -0.10025
  5 Tl   -0.00000    0.02567    0.03491
  6 Tl   -0.00590    0.00341    0.01754
  7 Tl   -0.00112    0.01372    0.05790
  8 Tl   -0.03780   -0.00837   -0.10025
  9 Tl    0.00366   -0.00211   -0.00560
 10 Tl   -0.00000    0.00009    0.00241
 11 Tl   -0.01244   -0.00589    0.05790
 12 Tl    0.02615   -0.02855   -0.10025
 13 Tl    0.02223   -0.01283    0.03491
 14 Tl    0.00000   -0.00681    0.01754
 15 Tl    0.01132   -0.00783    0.05790
 16 Tl    0.00000   -0.00000   -0.08748
 17 Tl    0.03139    0.01813    0.02304
 18 Tl    0.00590    0.00341    0.01754
 19 Tl   -0.00000    0.00000    0.28720
 20 Tl    0.03780   -0.00837   -0.10025
 21 Tl    0.00000   -0.03625    0.02304
 22 Tl   -0.03878    0.02239   -0.06697
 23 Tl    0.01244   -0.00589    0.05790
 24 Tl   -0.02615   -0.02855   -0.10025
 25 Tl   -0.00000    0.00423   -0.00560
 26 Tl    0.00007   -0.00004    0.00241
 27 Tl   -0.01132   -0.00783    0.05790
 28 Tl    0.01165    0.03693   -0.10025
 29 Tl   -0.03139    0.01813    0.02304
 30 Tl    0.00000   -0.04478   -0.06697
 31 Tl    0.00112    0.01372    0.05790
 32 Tl    0.00000   -0.00000   -0.11888
 33 Tl   -0.00366   -0.00211   -0.00560
 34 Tl    0.03878    0.02239   -0.06697
 35 Tl    0.00000   -0.00000    0.00090
 36 O    -0.00000    0.00000    0.04524
 37 H     0.00000    0.00000   -0.07397

BFGS:    6 13:20:48   -12541.104601        0.2872
System changes: positions 

Initializing position-dependent things.

Density initialized from wave functions
                                                             
                                                             
                                                             
                                                             
                                                             
                                     H                       
                                                             
                                  Tl O     Tl       Tl       
                                                             
                            Tl       Tl       Tl             
                                                             
                      Tl       Tl      Tl                    
                         Tl      Tl       Tl                 
                                                             
                  Tl       Tl       Tl                       
                             Tl       Tl       Tl            
            Tl       Tl       Tl                             
                       Tl       Tl       Tl                  
                                                             
                 Tl       Tl      Tl                         
                    Tl      Tl       Tl                      
                                                             
             Tl       Tl       Tl                            
       Tl       Tl       Tl                                  
                                                             
                                                             
                                                             
                                                             

Positions:
   0 Tl     0.000000    0.000000   10.000000    ( 0.0000,  0.0000,  0.0000)
   1 Tl     3.527816    2.036786   12.880450    ( 0.0000,  0.0000,  0.0000)
   2 Tl     1.760256    1.016284   15.751886    ( 0.0000,  0.0000,  0.0000)
   3 Tl     5.291724    3.055179   18.697509    ( 0.0000,  0.0000,  0.0000)
   4 Tl     1.763908    3.055179   10.000000    ( 0.0000,  0.0000,  0.0000)
   5 Tl     5.291724    5.091964   12.880450    ( 0.0000,  0.0000,  0.0000)
   6 Tl     3.535292    4.069255   15.762291    ( 0.0000,  0.0000,  0.0000)
   7 Tl     7.049788    6.112668   18.703634    ( 0.0000,  0.0000,  0.0000)
   8 Tl     3.527816    6.110357   10.000000    ( 0.0000,  0.0000,  0.0000)
   9 Tl     7.055633    8.147143   12.880450    ( 0.0000,  0.0000,  0.0000)
  10 Tl     5.291724    7.132968   15.751886    ( 0.0000,  0.0000,  0.0000)
  11 Tl     8.814617    9.169442   18.703634    ( 0.0000,  0.0000,  0.0000)
  12 Tl     3.527816    0.000000   10.000000    ( 0.0000,  0.0000,  0.0000)
  13 Tl     7.055633    2.036786   12.880450    ( 0.0000,  0.0000,  0.0000)
  14 Tl     5.291724    1.027025   15.762291    ( 0.0000,  0.0000,  0.0000)
  15 Tl     8.818620    3.048961   18.703634    ( 0.0000,  0.0000,  0.0000)
  16 Tl     5.291724    3.055179   10.000000    ( 0.0000,  0.0000,  0.0000)
  17 Tl     8.819541    5.091964   12.880450    ( 0.0000,  0.0000,  0.0000)
  18 Tl     7.048157    4.069255   15.762291    ( 0.0000,  0.0000,  0.0000)
  19 Tl    10.583449    6.110357   18.533346    ( 0.0000,  0.0000,  0.0000)
  20 Tl     7.055633    6.110357   10.000000    ( 0.0000,  0.0000,  0.0000)
  21 Tl    10.583449    8.147143   12.880450    ( 0.0000,  0.0000,  0.0000)
  22 Tl     8.784448    7.149011   15.717017    ( 0.0000,  0.0000,  0.0000)
  23 Tl    12.352281    9.169442   18.703634    ( 0.0000,  0.0000,  0.0000)
  24 Tl     7.055633    0.000000   10.000000    ( 0.0000,  0.0000,  0.0000)
  25 Tl    10.583449    2.036786   12.880450    ( 0.0000,  0.0000,  0.0000)
  26 Tl     8.823193    1.016284   15.751886    ( 0.0000,  0.0000,  0.0000)
  27 Tl    12.348278    3.048961   18.703634    ( 0.0000,  0.0000,  0.0000)
  28 Tl     8.819541    3.055179   10.000000    ( 0.0000,  0.0000,  0.0000)
  29 Tl    12.347357    5.091964   12.880450    ( 0.0000,  0.0000,  0.0000)
  30 Tl    10.583449    4.033050   15.717017    ( 0.0000,  0.0000,  0.0000)
  31 Tl    14.117110    6.112668   18.703634    ( 0.0000,  0.0000,  0.0000)
  32 Tl    10.583449    6.110357   10.000000    ( 0.0000,  0.0000,  0.0000)
  33 Tl    14.111265    8.147143   12.880450    ( 0.0000,  0.0000,  0.0000)
  34 Tl    12.382449    7.149011   15.717017    ( 0.0000,  0.0000,  0.0000)
  35 Tl    15.875173    9.165536   18.651604    ( 0.0000,  0.0000,  0.0000)
  36 O     10.583449    6.110357   20.798036    ( 0.0000,  0.0000,  0.0000)
  37 H     10.583449    6.110357   21.760462    ( 0.0000,  0.0000,  0.0000)

Unit cell:
           periodic     x           y           z      points  spacing
  1. axis:    yes   10.583449    0.000000    0.000000    52     0.1763
  2. axis:    yes    5.291724    9.165536    0.000000    52     0.1763
  3. axis:    no     0.000000    0.000000   28.641350   160     0.1790

  Lengths:  10.583449  10.583449  28.641350
  Angles:   90.000000  90.000000  60.000000

Effective grid spacing dv^(1/3) = 0.1859

     iter     time        total  log10-change:
                         energy  eigst   dens
iter:   1 13:21:32 -12541.142009  -2.33
iter:   2 13:21:58 -12541.135921  -3.31  -2.58
iter:   3 13:22:23 -12541.110344c -4.09  -2.64
iter:   4 13:22:48 -12541.107953c -3.94  -3.19
iter:   5 13:23:13 -12541.107832c -4.88  -3.55
iter:   6 13:23:39 -12541.107679c -4.97  -3.63
iter:   7 13:24:04 -12541.107916c -4.80  -3.77
iter:   8 13:24:29 -12541.107879c -5.53  -3.82
iter:   9 13:24:54 -12541.107863c -5.83  -4.07c
iter:  10 13:25:20 -12541.107802c -6.37  -4.16c
iter:  11 13:25:45 -12541.107835c -6.49  -4.36c
iter:  12 13:26:10 -12541.107844c -6.71  -4.41c
iter:  13 13:26:36 -12541.107850c -7.43c -4.56c

Converged after 13 iterations.

Dipole moment: (-27.703632, -15.994699, -0.405794) |e|*Ang

Energy contributions relative to reference atoms: (reference = -19803672.632242)

Kinetic:       +1283.889467
Potential:     -1211.583277
External:        +0.000000
XC:            -12613.283837
Entropy (-ST):   -0.875248
Local:           +0.307422
--------------------------
Free energy:   -12541.545475
Extrapolated:  -12541.107850

Showing only first 2 kpts
 Kpt  Band  Eigenvalues  Occupancy
  0   235     -4.06457    1.38383
  0   236     -4.05285    1.33274
  0   237     -4.00719    1.11710
  0   238     -3.97950    0.97916

  1   235     -4.10434    1.53945
  1   236     -4.00739    1.11806
  1   237     -3.97732    0.96826
  1   238     -3.92857    0.73130


Fermi level: -3.98367

No gap

Forces in eV/Ang:
  0 Tl   -0.00000   -0.00000   -0.02205
  1 Tl   -0.02541   -0.01467    0.04122
  2 Tl    0.00721    0.00416    0.01102
  3 Tl    0.00000    0.00000    0.04367
  4 Tl   -0.01140    0.03468   -0.10399
  5 Tl   -0.00000    0.02934    0.04122
  6 Tl   -0.00998    0.00576    0.02670
  7 Tl    0.00045    0.01678    0.05353
  8 Tl   -0.03573   -0.00747   -0.10399
  9 Tl   -0.00789    0.00456   -0.01834
 10 Tl    0.00000   -0.00833    0.01102
 11 Tl   -0.01431   -0.00878    0.05353
 12 Tl    0.02433   -0.02721   -0.10399
 13 Tl    0.02541   -0.01467    0.04122
 14 Tl    0.00000   -0.01153    0.02670
 15 Tl    0.01476   -0.00800    0.05353
 16 Tl   -0.00000   -0.00000   -0.09427
 17 Tl    0.02881    0.01663    0.01716
 18 Tl    0.00998    0.00576    0.02670
 19 Tl    0.00000    0.00000    0.36357
 20 Tl    0.03573   -0.00747   -0.10399
 21 Tl    0.00000   -0.03326    0.01716
 22 Tl   -0.00620    0.00358   -0.02523
 23 Tl    0.01431   -0.00878    0.05353
 24 Tl   -0.02433   -0.02721   -0.10399
 25 Tl    0.00000   -0.00912   -0.01834
 26 Tl   -0.00721    0.00416    0.01102
 27 Tl   -0.01476   -0.00800    0.05353
 28 Tl    0.01140    0.03468   -0.10399
 29 Tl   -0.02881    0.01663    0.01716
 30 Tl    0.00000   -0.00716   -0.02523
 31 Tl   -0.00045    0.01678    0.05353
 32 Tl   -0.00000   -0.00000   -0.12050
 33 Tl    0.00789    0.00456   -0.01834
 34 Tl    0.00620    0.00358   -0.02523
 35 Tl   -0.00000   -0.00000   -0.00240
 36 O    -0.00000    0.00000   -0.19672
 37 H     0.00000    0.00000   -0.06108

BFGS:    7 13:26:43   -12541.107850        0.3636
System changes: positions 

Initializing position-dependent things.

Density initialized from wave functions
                                                             
                                                             
                                                             
                                                             
                                                             
                                     H                       
                                                             
                                  Tl O     Tl       Tl       
                                                             
                            Tl       Tl       Tl             
                                                             
                      Tl       Tl      Tl                    
                         Tl      Tl       Tl                 
                                                             
                  Tl       Tl       Tl                       
                             Tl       Tl       Tl            
            Tl       Tl       Tl                             
                       Tl       Tl       Tl                  
                                                             
                 Tl       Tl      Tl                         
                    Tl      Tl       Tl                      
                                                             
             Tl       Tl       Tl                            
       Tl       Tl       Tl                                  
                                                             
                                                             
                                                             
                                                             

Positions:
   0 Tl     0.000000    0.000000   10.000000    ( 0.0000,  0.0000,  0.0000)
   1 Tl     3.527816    2.036786   12.880450    ( 0.0000,  0.0000,  0.0000)
   2 Tl     1.759964    1.016115   15.751881    ( 0.0000,  0.0000,  0.0000)
   3 Tl     5.291724    3.055179   18.699751    ( 0.0000,  0.0000,  0.0000)
   4 Tl     1.763908    3.055179   10.000000    ( 0.0000,  0.0000,  0.0000)
   5 Tl     5.291724    5.091964   12.880450    ( 0.0000,  0.0000,  0.0000)
   6 Tl     3.534987    4.069431   15.763294    ( 0.0000,  0.0000,  0.0000)
   7 Tl     7.049601    6.113266   18.707459    ( 0.0000,  0.0000,  0.0000)
   8 Tl     3.527816    6.110357   10.000000    ( 0.0000,  0.0000,  0.0000)
   9 Tl     7.055633    8.147143   12.880450    ( 0.0000,  0.0000,  0.0000)
  10 Tl     5.291724    7.133305   15.751881    ( 0.0000,  0.0000,  0.0000)
  11 Tl     8.814006    9.169305   18.707459    ( 0.0000,  0.0000,  0.0000)
  12 Tl     3.527816    0.000000   10.000000    ( 0.0000,  0.0000,  0.0000)
  13 Tl     7.055633    2.036786   12.880450    ( 0.0000,  0.0000,  0.0000)
  14 Tl     5.291724    1.026673   15.763294    ( 0.0000,  0.0000,  0.0000)
  15 Tl     8.819044    3.048500   18.707459    ( 0.0000,  0.0000,  0.0000)
  16 Tl     5.291724    3.055179   10.000000    ( 0.0000,  0.0000,  0.0000)
  17 Tl     8.819541    5.091964   12.880450    ( 0.0000,  0.0000,  0.0000)
  18 Tl     7.048462    4.069431   15.763294    ( 0.0000,  0.0000,  0.0000)
  19 Tl    10.583449    6.110357   18.545241    ( 0.0000,  0.0000,  0.0000)
  20 Tl     7.055633    6.110357   10.000000    ( 0.0000,  0.0000,  0.0000)
  21 Tl    10.583449    8.147143   12.880450    ( 0.0000,  0.0000,  0.0000)
  22 Tl     8.780986    7.151009   15.712321    ( 0.0000,  0.0000,  0.0000)
  23 Tl    12.352892    9.169305   18.707459    ( 0.0000,  0.0000,  0.0000)
  24 Tl     7.055633    0.000000   10.000000    ( 0.0000,  0.0000,  0.0000)
  25 Tl    10.583449    2.036786   12.880450    ( 0.0000,  0.0000,  0.0000)
  26 Tl     8.823485    1.016115   15.751881    ( 0.0000,  0.0000,  0.0000)
  27 Tl    12.347854    3.048500   18.707459    ( 0.0000,  0.0000,  0.0000)
  28 Tl     8.819541    3.055179   10.000000    ( 0.0000,  0.0000,  0.0000)
  29 Tl    12.347357    5.091964   12.880450    ( 0.0000,  0.0000,  0.0000)
  30 Tl    10.583449    4.029052   15.712321    ( 0.0000,  0.0000,  0.0000)
  31 Tl    14.117297    6.113266   18.707459    ( 0.0000,  0.0000,  0.0000)
  32 Tl    10.583449    6.110357   10.000000    ( 0.0000,  0.0000,  0.0000)
  33 Tl    14.111265    8.147143   12.880450    ( 0.0000,  0.0000,  0.0000)
  34 Tl    12.385912    7.151009   15.712321    ( 0.0000,  0.0000,  0.0000)
  35 Tl    15.875173    9.165536   18.651548    ( 0.0000,  0.0000,  0.0000)
  36 O     10.583449    6.110357   20.797623    ( 0.0000,  0.0000,  0.0000)
  37 H     10.583449    6.110357   21.759287    ( 0.0000,  0.0000,  0.0000)

Unit cell:
           periodic     x           y           z      points  spacing
  1. axis:    yes   10.583449    0.000000    0.000000    52     0.1763
  2. axis:    yes    5.291724    9.165536    0.000000    52     0.1763
  3. axis:    no     0.000000    0.000000   28.641350   160     0.1790

  Lengths:  10.583449  10.583449  28.641350
  Angles:   90.000000  90.000000  60.000000

Effective grid spacing dv^(1/3) = 0.1859

     iter     time        total  log10-change:
                         energy  eigst   dens
iter:   1 13:27:27 -12541.117020  -3.13
iter:   2 13:27:53 -12541.116181  -4.13  -3.06
iter:   3 13:28:18 -12541.113472c -4.86  -3.14
iter:   4 13:28:43 -12541.112870c -4.78  -3.62
iter:   5 13:29:08 -12541.113001c -5.46  -3.87
iter:   6 13:29:34 -12541.112992c -5.90  -4.01c
iter:   7 13:29:59 -12541.112848c -5.89  -4.06c
iter:   8 13:30:24 -12541.112864c -5.89  -4.32c
iter:   9 13:30:49 -12541.112866c -6.83  -4.28c
iter:  10 13:31:15 -12541.112884c -7.11  -4.37c
iter:  11 13:31:40 -12541.112881c -6.97  -4.60c
iter:  12 13:32:05 -12541.112862c -7.41c -4.67c

Converged after 12 iterations.

Dipole moment: (-27.666322, -15.973158, -0.395926) |e|*Ang

Energy contributions relative to reference atoms: (reference = -19803672.632242)

Kinetic:       +1284.069314
Potential:     -1211.754086
External:        +0.000000
XC:            -12613.298365
Entropy (-ST):   -0.875814
Local:           +0.308182
--------------------------
Free energy:   -12541.550770
Extrapolated:  -12541.112862

Showing only first 2 kpts
 Kpt  Band  Eigenvalues  Occupancy
  0   235     -4.05817    1.38060
  0   236     -4.04737    1.33349
  0   237     -4.00087    1.11379
  0   238     -3.97230    0.97145

  1   235     -4.09963    1.54277
  1   236     -4.00207    1.11968
  1   237     -3.97219    0.97088
  1   238     -3.92248    0.72925


Fermi level: -3.97802

No gap

Forces in eV/Ang:
  0 Tl   -0.00000    0.00000   -0.01549
  1 Tl   -0.02358   -0.01361    0.04050
  2 Tl    0.01031    0.00595    0.01612
  3 Tl    0.00000    0.00000    0.03856
  4 Tl   -0.01161    0.03886   -0.09918
  5 Tl   -0.00000    0.02723    0.04050
  6 Tl   -0.00686    0.00396    0.02800
  7 Tl    0.00301    0.01412    0.04464
  8 Tl   -0.03945   -0.00938   -0.09918
  9 Tl   -0.00820    0.00473   -0.02346
 10 Tl    0.00000   -0.01191    0.01612
 11 Tl   -0.01073   -0.00967    0.04464
 12 Tl    0.02785   -0.02948   -0.09918
 13 Tl    0.02358   -0.01361    0.04050
 14 Tl    0.00000   -0.00792    0.02800
 15 Tl    0.01374   -0.00445    0.04464
 16 Tl   -0.00000   -0.00000   -0.08960
 17 Tl    0.02886    0.01666    0.01029
 18 Tl    0.00686    0.00396    0.02800
 19 Tl    0.00000    0.00000    0.26042
 20 Tl    0.03945   -0.00938   -0.09918
 21 Tl    0.00000   -0.03332    0.01029
 22 Tl    0.00337   -0.00194   -0.00232
 23 Tl    0.01073   -0.00967    0.04464
 24 Tl   -0.02785   -0.02948   -0.09918
 25 Tl    0.00000   -0.00947   -0.02346
 26 Tl   -0.01031    0.00595    0.01612
 27 Tl   -0.01374   -0.00445    0.04464
 28 Tl    0.01161    0.03886   -0.09918
 29 Tl   -0.02886    0.01666    0.01029
 30 Tl   -0.00000    0.00389   -0.00232
 31 Tl   -0.00301    0.01412    0.04464
 32 Tl    0.00000   -0.00000   -0.11510
 33 Tl    0.00820    0.00473   -0.02346
 34 Tl   -0.00337   -0.00194   -0.00232
 35 Tl   -0.00000   -0.00000   -0.00634
 36 O    -0.00000    0.00000   -0.15538
 37 H    -0.00000    0.00000   -0.02707

BFGS:    8 13:32:13   -12541.112862        0.2604
System changes: positions 

Initializing position-dependent things.

Density initialized from wave functions
                                                             
                                                             
                                                             
                                                             
                                                             
                                     H                       
                                                             
                                  Tl O     Tl       Tl       
                                                             
                            Tl       Tl       Tl             
                                                             
                      Tl       Tl      Tl                    
                         Tl      Tl       Tl                 
                                                             
                  Tl       Tl       Tl                       
                             Tl       Tl       Tl            
            Tl       Tl       Tl                             
                       Tl       Tl       Tl                  
                                                             
                 Tl       Tl      Tl                         
                    Tl      Tl       Tl                      
                                                             
             Tl       Tl       Tl                            
       Tl       Tl       Tl                                  
                                                             
                                                             
                                                             
                                                             

Positions:
   0 Tl     0.000000    0.000000   10.000000    ( 0.0000,  0.0000,  0.0000)
   1 Tl     3.527816    2.036786   12.880450    ( 0.0000,  0.0000,  0.0000)
   2 Tl     1.759831    1.016039   15.752349    ( 0.0000,  0.0000,  0.0000)
   3 Tl     5.291724    3.055179   18.704085    ( 0.0000,  0.0000,  0.0000)
   4 Tl     1.763908    3.055179   10.000000    ( 0.0000,  0.0000,  0.0000)
   5 Tl     5.291724    5.091964   12.880450    ( 0.0000,  0.0000,  0.0000)
   6 Tl     3.534417    4.069761   15.765541    ( 0.0000,  0.0000,  0.0000)
   7 Tl     7.049540    6.114494   18.714394    ( 0.0000,  0.0000,  0.0000)
   8 Tl     3.527816    6.110357   10.000000    ( 0.0000,  0.0000,  0.0000)
   9 Tl     7.055633    8.147143   12.880450    ( 0.0000,  0.0000,  0.0000)
  10 Tl     5.291724    7.133458   15.752349    ( 0.0000,  0.0000,  0.0000)
  11 Tl     8.812912    9.168743   18.714394    ( 0.0000,  0.0000,  0.0000)
  12 Tl     3.527816    0.000000   10.000000    ( 0.0000,  0.0000,  0.0000)
  13 Tl     7.055633    2.036786   12.880450    ( 0.0000,  0.0000,  0.0000)
  14 Tl     5.291724    1.026014   15.765541    ( 0.0000,  0.0000,  0.0000)
  15 Tl     8.820077    3.047834   18.714394    ( 0.0000,  0.0000,  0.0000)
  16 Tl     5.291724    3.055179   10.000000    ( 0.0000,  0.0000,  0.0000)
  17 Tl     8.819541    5.091964   12.880450    ( 0.0000,  0.0000,  0.0000)
  18 Tl     7.049032    4.069761   15.765541    ( 0.0000,  0.0000,  0.0000)
  19 Tl    10.583449    6.110357   18.573541    ( 0.0000,  0.0000,  0.0000)
  20 Tl     7.055633    6.110357   10.000000    ( 0.0000,  0.0000,  0.0000)
  21 Tl    10.583449    8.147143   12.880450    ( 0.0000,  0.0000,  0.0000)
  22 Tl     8.775785    7.154012   15.705287    ( 0.0000,  0.0000,  0.0000)
  23 Tl    12.353986    9.168743   18.714394    ( 0.0000,  0.0000,  0.0000)
  24 Tl     7.055633    0.000000   10.000000    ( 0.0000,  0.0000,  0.0000)
  25 Tl    10.583449    2.036786   12.880450    ( 0.0000,  0.0000,  0.0000)
  26 Tl     8.823618    1.016039   15.752349    ( 0.0000,  0.0000,  0.0000)
  27 Tl    12.346821    3.047834   18.714394    ( 0.0000,  0.0000,  0.0000)
  28 Tl     8.819541    3.055179   10.000000    ( 0.0000,  0.0000,  0.0000)
  29 Tl    12.347357    5.091964   12.880450    ( 0.0000,  0.0000,  0.0000)
  30 Tl    10.583449    4.023047   15.705287    ( 0.0000,  0.0000,  0.0000)
  31 Tl    14.117358    6.114494   18.714394    ( 0.0000,  0.0000,  0.0000)
  32 Tl    10.583449    6.110357   10.000000    ( 0.0000,  0.0000,  0.0000)
  33 Tl    14.111265    8.147143   12.880450    ( 0.0000,  0.0000,  0.0000)
  34 Tl    12.391112    7.154012   15.705287    ( 0.0000,  0.0000,  0.0000)
  35 Tl    15.875173    9.165536   18.651261    ( 0.0000,  0.0000,  0.0000)
  36 O     10.583449    6.110357   20.792733    ( 0.0000,  0.0000,  0.0000)
  37 H     10.583449    6.110357   21.753102    ( 0.0000,  0.0000,  0.0000)

Unit cell:
           periodic     x           y           z      points  spacing
  1. axis:    yes   10.583449    0.000000    0.000000    52     0.1763
  2. axis:    yes    5.291724    9.165536    0.000000    52     0.1763
  3. axis:    no     0.000000    0.000000   28.641350   160     0.1790

  Lengths:  10.583449  10.583449  28.641350
  Angles:   90.000000  90.000000  60.000000

Effective grid spacing dv^(1/3) = 0.1859

     iter     time        total  log10-change:
                         energy  eigst   dens
iter:   1 13:32:57 -12541.130680  -2.53
iter:   2 13:33:22 -12541.127406  -3.54  -2.85
iter:   3 13:33:47 -12541.120947c -4.23  -2.94
iter:   4 13:34:13 -12541.118934c -4.22  -3.37
iter:   5 13:34:38 -12541.119112c -4.74  -3.53
iter:   6 13:35:03 -12541.119106c -5.43  -3.70
iter:   7 13:35:29 -12541.118918c -5.65  -3.71
iter:   8 13:35:54 -12541.118729c -4.98  -3.80
iter:   9 13:36:19 -12541.118716c -5.99  -4.05c
iter:  10 13:36:44 -12541.118765c -6.14  -4.05c
iter:  11 13:37:10 -12541.118733c -5.79  -4.08c
iter:  12 13:37:35 -12541.118755c -6.64  -4.26c
iter:  13 13:38:00 -12541.118772c -6.95  -4.45c
iter:  14 13:38:26 -12541.118789c -6.94  -4.57c
iter:  15 13:38:51 -12541.118767c -7.02  -4.74c
iter:  16 13:39:16 -12541.118764c -7.66c -4.88c

Converged after 16 iterations.

Dipole moment: (-27.507103, -15.881233, -0.366856) |e|*Ang

Energy contributions relative to reference atoms: (reference = -19803672.632242)

Kinetic:       +1284.520793
Potential:     -1212.152278
External:        +0.000000
XC:            -12613.352081
Entropy (-ST):   -0.876889
Local:           +0.303246
--------------------------
Free energy:   -12541.557208
Extrapolated:  -12541.118764

Showing only first 2 kpts
 Kpt  Band  Eigenvalues  Occupancy
  0   235     -4.04234    1.37579
  0   236     -4.03249    1.33273
  0   237     -3.98445    1.10529
  0   238     -3.95616    0.96426

  1   235     -4.08686    1.54956
  1   236     -3.98828    1.12421
  1   237     -3.95824    0.97466
  1   238     -3.90666    0.72406


Fermi level: -3.96331

No gap

Forces in eV/Ang:
  0 Tl   -0.00000    0.00000   -0.01454
  1 Tl   -0.02335   -0.01348    0.03910
  2 Tl    0.01362    0.00787    0.02512
  3 Tl   -0.00000    0.00000    0.03727
  4 Tl   -0.01159    0.03749   -0.10035
  5 Tl   -0.00000    0.02697    0.03910
  6 Tl   -0.00856    0.00494    0.03230
  7 Tl    0.00397    0.00817    0.03115
  8 Tl   -0.03826   -0.00871   -0.10035
  9 Tl   -0.01050    0.00606   -0.03069
 10 Tl    0.00000   -0.01573    0.02512
 11 Tl   -0.00509   -0.00752    0.03115
 12 Tl    0.02668   -0.02878   -0.10035
 13 Tl    0.02335   -0.01348    0.03910
 14 Tl    0.00000   -0.00989    0.03230
 15 Tl    0.00906   -0.00064    0.03115
 16 Tl   -0.00000   -0.00000   -0.08871
 17 Tl    0.02772    0.01601    0.00927
 18 Tl    0.00856    0.00494    0.03230
 19 Tl    0.00000    0.00000    0.01997
 20 Tl    0.03826   -0.00871   -0.10035
 21 Tl    0.00000   -0.03201    0.00927
 22 Tl    0.01648   -0.00951    0.02841
 23 Tl    0.00509   -0.00752    0.03115
 24 Tl   -0.02668   -0.02878   -0.10035
 25 Tl    0.00000   -0.01213   -0.03069
 26 Tl   -0.01362    0.00787    0.02512
 27 Tl   -0.00906   -0.00064    0.03115
 28 Tl    0.01159    0.03749   -0.10035
 29 Tl   -0.02772    0.01601    0.00927
 30 Tl   -0.00000    0.01902    0.02841
 31 Tl   -0.00397    0.00817    0.03115
 32 Tl   -0.00000    0.00000   -0.11745
 33 Tl    0.01050    0.00606   -0.03069
 34 Tl   -0.01648   -0.00951    0.02841
 35 Tl   -0.00000    0.00000   -0.01172
 36 O     0.00000    0.00000    0.04008
 37 H     0.00000    0.00000    0.04027

BFGS:    9 13:39:24   -12541.118764        0.0403
Timing:                                      incl.     excl.
-------------------------------------------------------------------
Density initialized from wave functions:     1.659     0.509   0.0% |
 Symmetrize density:                         1.150     1.150   0.0% |
Forces:                                     79.365    79.365   1.8% ||
Hamiltonian:                                41.465     0.001   0.0% |
 Atomic:                                     0.002     0.002   0.0% |
  XC Correction:                             0.000     0.000   0.0% |
 Calculate atomic Hamiltonians:              0.003     0.003   0.0% |
 Communicate:                                1.420     1.420   0.0% |
 Hartree integrate/restrict:                 0.044     0.044   0.0% |
 Initialize Hamiltonian:                     0.001     0.001   0.0% |
 Poisson:                                    0.853     0.030   0.0% |
  Communicate from 1D:                       0.157     0.157   0.0% |
  Communicate from 2D:                       0.127     0.127   0.0% |
  Communicate to 1D:                         0.118     0.118   0.0% |
  Communicate to 2D:                         0.166     0.166   0.0% |
  FFT 1D:                                    0.092     0.092   0.0% |
  FFT 2D:                                    0.163     0.163   0.0% |
 XC 3D grid:                                39.110     3.365   0.1% |
  VdW-DF integral:                          35.745     0.419   0.0% |
   Convolution:                              4.503     4.503   0.1% |
   FFT:                                      2.594     2.594   0.1% |
   gather:                                   8.806     8.806   0.2% |
   hmm1:                                     0.711     0.711   0.0% |
   hmm2:                                     1.476     1.476   0.0% |
   iFFT:                                     2.705     2.705   0.1% |
   potential:                               10.689     0.200   0.0% |
    collect:                                 1.017     1.017   0.0% |
    p1:                                      6.403     6.403   0.1% |
    p2:                                      2.226     2.226   0.0% |
    sum:                                     0.843     0.843   0.0% |
   splines:                                  3.841     3.841   0.1% |
 vbar:                                       0.030     0.030   0.0% |
LCAO initialization:                        15.125     0.941   0.0% |
 LCAO eigensolver:                           3.602     0.005   0.0% |
  Calculate projections:                     0.000     0.000   0.0% |
  DenseAtomicCorrection:                     0.000     0.000   0.0% |
  Distribute overlap matrix:                 2.371     2.371   0.1% |
  Orbital Layouts:                           1.098     1.098   0.0% |
  Potential matrix:                          0.009     0.009   0.0% |
  Sum over cells:                            0.118     0.118   0.0% |
 LCAO to grid:                               9.974     9.974   0.2% |
 Set positions (LCAO WFS):                   0.608     0.494   0.0% |
  Basic WFS set positions:                   0.005     0.005   0.0% |
  Basis functions set positions:             0.000     0.000   0.0% |
  P tci:                                     0.001     0.001   0.0% |
  ST tci:                                    0.071     0.071   0.0% |
  mktci:                                     0.037     0.037   0.0% |
Redistribute:                                0.006     0.006   0.0% |
SCF-cycle:                                4183.791    14.881   0.3% |
 Davidson:                                3528.931   778.955  17.4% |------|
  Apply hamiltonian:                       130.967   130.967   2.9% ||
  Subspace diag:                           506.828     0.060   0.0% |
   calc_h_matrix:                          256.670   131.187   2.9% ||
    Apply hamiltonian:                     125.484   125.484   2.8% ||
   diagonalize:                             15.959    15.959   0.4% |
   rotate_psi:                             234.138   234.138   5.2% |-|
  calc. matrices:                         1502.224   890.199  19.9% |-------|
   Apply hamiltonian:                      612.025   612.025  13.7% |----|
  diagonalize:                             121.085   121.085   2.7% ||
  rotate_psi:                              488.873   488.873  10.9% |---|
 Density:                                   28.897     0.004   0.0% |
  Atomic density matrices:                   0.757     0.757   0.0% |
  Mix:                                       1.007     1.007   0.0% |
  Multipole moments:                         0.024     0.024   0.0% |
  Pseudo density:                           27.104     7.203   0.2% |
   Symmetrize density:                      19.901    19.901   0.4% |
 Hamiltonian:                              588.048     0.017   0.0% |
  Atomic:                                    0.034     0.033   0.0% |
   XC Correction:                            0.000     0.000   0.0% |
  Calculate atomic Hamiltonians:             0.044     0.044   0.0% |
  Communicate:                              22.255    22.255   0.5% |
  Hartree integrate/restrict:                0.697     0.697   0.0% |
  Poisson:                                  13.236     0.429   0.0% |
   Communicate from 1D:                      2.381     2.381   0.1% |
   Communicate from 2D:                      1.992     1.992   0.0% |
   Communicate to 1D:                        1.843     1.843   0.0% |
   Communicate to 2D:                        2.600     2.600   0.1% |
   FFT 1D:                                   1.431     1.431   0.0% |
   FFT 2D:                                   2.559     2.559   0.1% |
  XC 3D grid:                              551.601    52.027   1.2% |
   VdW-DF integral:                        499.574     6.738   0.2% |
    Convolution:                            70.224    70.224   1.6% ||
    FFT:                                    42.026    42.026   0.9% |
    gather:                                137.922   137.922   3.1% ||
    hmm1:                                   10.887    10.887   0.2% |
    hmm2:                                   23.034    23.034   0.5% |
    iFFT:                                   42.205    42.205   0.9% |
    potential:                             166.536     3.199   0.1% |
     collect:                               15.719    15.719   0.4% |
     p1:                                    99.860    99.860   2.2% ||
     p2:                                    34.696    34.696   0.8% |
     sum:                                   13.061    13.061   0.3% |
    splines:                                 0.001     0.001   0.0% |
  vbar:                                      0.165     0.165   0.0% |
 Orthonormalize:                            23.035     0.005   0.0% |
  calc_s_matrix:                             3.525     3.525   0.1% |
  inverse-cholesky:                         12.128    12.128   0.3% |
  projections:                               0.001     0.001   0.0% |
  rotate_psi_s:                              7.376     7.376   0.2% |
Set symmetry:                                0.003     0.003   0.0% |
Other:                                     147.595   147.595   3.3% ||
-------------------------------------------------------------------
Total:                                              4469.009 100.0%

Memory usage: 1.67 GiB
Date: Tue Sep 26 13:39:24 2023
