
  ___ ___ ___ _ _ _  
 |   |   |_  | | | | 
 | | | | | . | | | | 
 |__ |  _|___|_____|  22.8.0
 |___|_|             

User:   s204775@a059.nifl.fysik.dtu.dk
Date:   Tue Sep 26 12:48:47 2023
Arch:   x86_64
Pid:    77495
CWD:    /home/cat/s204775/projects/Bachelor_project/OH_missing_features
Python: 3.10.4
gpaw:   /home/modules/software/GPAW/22.8.0-intel-2022a/lib/python3.10/site-packages/gpaw
_gpaw:  /home/modules/software/GPAW/22.8.0-intel-2022a/lib/python3.10/site-packages/
        _gpaw.cpython-310-x86_64-linux-gnu.so
ase:    /home/modules/software/ASE/3.22.1-intel-2022a/lib/python3.10/site-packages/ase (version 3.22.1)
numpy:  /home/modules/software/SciPy-bundle/2022.05-intel-2022a/lib/python3.10/site-packages/numpy (version 1.22.3)
scipy:  /home/modules/software/SciPy-bundle/2022.05-intel-2022a/lib/python3.10/site-packages/scipy (version 1.8.1)
libxc:  5.2.3
units:  Angstrom and eV
cores: 40
OpenMP: False
OMP_NUM_THREADS: 1

Input parameters:
  basis: dzp
  h: 0.18
  kpts: {size: (4, 4, 1)}
  xc: BEEF-vdW

System changes: positions, numbers, cell, pbc, initial_charges, initial_magmoms 

Initialize ...

species:
  Zn:
    name: Zinc
    id: 9da902d12d12265ad8e0029a903fe3c0
    Z: 30.0
    valence: 12
    core: 18
    charge: 0.0
    file: /home/modules/software/GPAW-setups/0.9.20000/Zn.PBE.gz
    compensation charges: {type: gauss,
                           rc: 0.37,
                           lmax: 2}
    cutoffs: {filter: 2.14,
              core: 2.28}
    valence states:
      #              energy  rcut
      - 4s(2.00)    -5.977   1.286
      - 4p(0.00)    -1.117   1.270
      - 3d(10.00)   -10.142   1.180
      -  s          21.234   1.286
      -  p          26.095   1.270
      -  d          17.070   1.180
  
    # LCAO basis set for Zn:
    #   Name: dzp
    #   File: /home/modules/software/GPAW-setups/0.9.20000/Zn.dzp.basis.gz
    #   Number of radial functions: 7
    #   Number of spherical harmonics: 21
    #     l=0, rc=8.1562 Bohr: 4s-sz confined orbital
    #     l=1, rc=12.4062 Bohr: 4p-sz confined orbital
    #     l=2, rc=4.3594 Bohr: 3d-sz confined orbital
    #     l=0, rc=4.7188 Bohr: 4s-dz split-valence wave
    #     l=1, rc=7.4844 Bohr: 4p-dz split-valence wave
    #     l=2, rc=2.8125 Bohr: 3d-dz split-valence wave
    #     l=1, rc=8.1562 Bohr: p-type Gaussian polarization
    #   Number of RI-basis functions 0

  O:
    name: Oxygen
    id: 32ecd46bf208036f09c70b0ec9a88b78
    Z: 8.0
    valence: 6
    core: 2
    charge: 0.0
    file: /home/modules/software/GPAW-setups/0.9.20000/O.PBE.gz
    compensation charges: {type: gauss,
                           rc: 0.21,
                           lmax: 2}
    cutoffs: {filter: 1.17,
              core: 0.83}
    valence states:
      #              energy  rcut
      - 2s(2.00)   -23.961   0.688
      - 2p(4.00)    -9.029   0.598
      -  s           3.251   0.688
      -  p          18.182   0.598
      -  d           0.000   0.619
  
    # LCAO basis set for O:
    #   Name: dzp
    #   File: /home/modules/software/GPAW-setups/0.9.20000/O.dzp.basis.gz
    #   Number of radial functions: 5
    #   Number of spherical harmonics: 13
    #     l=0, rc=4.3438 Bohr: 2s-sz confined orbital
    #     l=1, rc=5.3906 Bohr: 2p-sz confined orbital
    #     l=0, rc=2.2969 Bohr: 2s-dz split-valence wave
    #     l=1, rc=2.8906 Bohr: 2p-dz split-valence wave
    #     l=2, rc=5.3906 Bohr: d-type Gaussian polarization
    #   Number of RI-basis functions 0

  H:
    name: Hydrogen
    id: d65de229564ff8ea4db303e23b6d1ecf
    Z: 1.0
    valence: 1
    core: 0
    charge: 0.0
    file: /home/modules/software/GPAW-setups/0.9.20000/H.PBE.gz
    compensation charges: {type: gauss,
                           rc: 0.15,
                           lmax: 2}
    cutoffs: {filter: 0.85,
              core: 0.53}
    valence states:
      #              energy  rcut
      - 1s(1.00)    -6.494   0.476
      -  s          20.717   0.476
      -  p           0.000   0.476
  
    # LCAO basis set for H:
    #   Name: dzp
    #   File: /home/modules/software/GPAW-setups/0.9.20000/H.dzp.basis.gz
    #   Number of radial functions: 3
    #   Number of spherical harmonics: 5
    #     l=0, rc=6.4219 Bohr: 1s-sz confined orbital
    #     l=0, rc=3.6094 Bohr: 1s-dz split-valence wave
    #     l=1, rc=6.4219 Bohr: p-type Gaussian polarization
    #   Number of RI-basis functions 0

Reference energy: -1761061.101969  # eV

Spin-paired calculation

Convergence criteria:
 Maximum [total energy] change in last 3 cyles: 0.0005 eV / electron
 Maximum integral of absolute [dens]ity change: 0.0001 electrons / valence electron
 Maximum integral of absolute [eigenst]ate change: 4e-08 eV^2 / valence electron
 Maximum number of scf [iter]ations: 333
 (Square brackets indicate name in SCF output, whereas a 'c' in
 the SCF output indicates the quantity has converged.)

Symmetries present (total): 1

  ( 1  0  0)
  ( 0  1  0)
  ( 0  0  1)

16 k-points: 4 x 4 x 1 Monkhorst-Pack grid
8 k-points in the irreducible part of the Brillouin zone
       k-points in crystal coordinates                weights
   0:     0.12500000   -0.37500000    0.00000000          2/16
   1:     0.12500000   -0.12500000    0.00000000          2/16
   2:     0.12500000    0.12500000    0.00000000          2/16
   3:     0.12500000    0.37500000    0.00000000          2/16
   4:     0.37500000   -0.37500000    0.00000000          2/16
   5:     0.37500000   -0.12500000    0.00000000          2/16
   6:     0.37500000    0.12500000    0.00000000          2/16
   7:     0.37500000    0.37500000    0.00000000          2/16

Wave functions: Uniform real-space grid
  Kinetic energy operator: 8*3+1=25 point O(h^6) finite-difference Laplacian
  ScaLapack parameters: grid=1x1, blocksize=None
  Wavefunction extrapolation:
    Improved wavefunction reuse through dual PAW basis 

Occupation numbers: Fermi-Dirac:
  width: 0.1000  # eV
 

Eigensolver
   Davidson(niter=2) 

Densities:
  Coarse grid: 40*40*148 grid
  Fine grid: 80*80*296 grid
  Total Charge: 0.000000 

Density mixing:
  Method: separate
  Backend: pulay
  Linear mixing parameter: 0.05
  old densities: 5
  Damping of long wavelength oscillations: 50 

Hamiltonian:
  XC and Coulomb potentials evaluated on a 80*80*296 grid
  Using the BEEF-vdW Exchange-Correlation functional
  Interpolation: tri-quintic (5. degree polynomial)
  Poisson solver: FastPoissonSolver using
    Stencil: 8*3+1=25 point O(h^6) finite-difference Laplacian
    FFT axes: [0, 1]
    FST axes: [2]
 

XC parameters: BEEF-vdW with 2 nearest neighbor stencil

Memory estimate:
  Process memory now: 196.43 MiB
  Calculator: 462.21 MiB
    Density: 53.24 MiB
      Arrays: 9.35 MiB
      Localized functions: 40.35 MiB
      Mixer: 3.54 MiB
    Hamiltonian: 8.68 MiB
      Arrays: 6.12 MiB
      XC: 0.00 MiB
      Poisson: 0.00 MiB
      vbar: 2.56 MiB
    Wavefunctions: 400.29 MiB
      Arrays psit_nG: 189.75 MiB
      Eigensolver: 204.25 MiB
      Projections: 0.54 MiB
      Projectors: 5.75 MiB

Total number of cores used: 40
Parallelization over k-points: 8
Domain decomposition: 1 x 1 x 5

Number of atoms: 38
Number of atomic orbitals: 774
Number of bands in calculation: 268
Number of valence electrons: 439
Bands to converge: occupied

... initialized

Initializing position-dependent things.

Density initialized from atomic densities
Creating initial wave functions:
  268 bands from LCAO basis set

                                             
                                             
                                             
                                             
                                             
                        H                    
                        O                    
               Zn     Zn     Zn              
                                             
                 Zn     Zn     Zn            
                   Zn     Zn     Zn          
           Zn     Zn     Zn                  
             Zn     Zn     Zn                
                                             
              ZZn    ZZn    ZZn              
                                             
                Zn     Zn     Zn             
          Zn     ZZn    ZZn     Zn           
                                             
            Zn     Zn     Zn                 
              Zn     Zn     Zn               
                                             
                                             
                                             
                                             

Positions:
   0 Zn     0.000000    0.000000   10.000000    ( 0.0000,  0.0000,  0.0000)
   1 Zn     1.414214    0.816497   12.309401    ( 0.0000,  0.0000,  0.0000)
   2 Zn     0.000000    1.628527   14.652990    ( 0.0000,  0.0000,  0.0000)
   3 Zn     1.412823    2.446904   17.071372    ( 0.0000,  0.0000,  0.0000)
   4 Zn    -1.414214    2.449490   10.000000    ( 0.0000,  0.0000,  0.0000)
   5 Zn     0.000000    3.265986   12.309401    ( 0.0000,  0.0000,  0.0000)
   6 Zn    -1.415902    4.081508   14.653527    ( 0.0000,  0.0000,  0.0000)
   7 Zn     0.000000    4.898979   17.084620    ( 0.0000,  0.0000,  0.0000)
   8 Zn    -2.828427    4.898979   10.000000    ( 0.0000,  0.0000,  0.0000)
   9 Zn    -1.414214    5.715476   12.309401    ( 0.0000,  0.0000,  0.0000)
  10 Zn    -2.832295    6.534206   14.652990    ( 0.0000,  0.0000,  0.0000)
  11 Zn    -1.417148    7.348558   17.071372    ( 0.0000,  0.0000,  0.0000)
  12 Zn     2.828427    0.000000   10.000000    ( 0.0000,  0.0000,  0.0000)
  13 Zn     4.242641    0.816497   12.309401    ( 0.0000,  0.0000,  0.0000)
  14 Zn     2.825133    1.631091   14.647504    ( 0.0000,  0.0000,  0.0000)
  15 Zn     4.242641    2.449490   17.082020    ( 0.0000,  0.0000,  0.0000)
  16 Zn     1.414214    2.449490   10.000000    ( 0.0000,  0.0000,  0.0000)
  17 Zn     2.828427    3.265986   12.309401    ( 0.0000,  0.0000,  0.0000)
  18 Zn     1.415902    4.081508   14.653527    ( 0.0000,  0.0000,  0.0000)
  19 Zn     2.829972    4.901477   17.071372    ( 0.0000,  0.0000,  0.0000)
  20 Zn     0.000000    4.898979   10.000000    ( 0.0000,  0.0000,  0.0000)
  21 Zn     1.414214    5.715476   12.309401    ( 0.0000,  0.0000,  0.0000)
  22 Zn     0.000000    6.533922   14.653527    ( 0.0000,  0.0000,  0.0000)
  23 Zn     1.417148    7.348558   17.071372    ( 0.0000,  0.0000,  0.0000)
  24 Zn     5.656854    0.000000   10.000000    ( 0.0000,  0.0000,  0.0000)
  25 Zn     7.071068    0.816497   12.309401    ( 0.0000,  0.0000,  0.0000)
  26 Zn     5.660149    1.631091   14.647504    ( 0.0000,  0.0000,  0.0000)
  27 Zn     7.072458    2.446904   17.071372    ( 0.0000,  0.0000,  0.0000)
  28 Zn     4.242641    2.449490   10.000000    ( 0.0000,  0.0000,  0.0000)
  29 Zn     5.656854    3.265986   12.309401    ( 0.0000,  0.0000,  0.0000)
  30 Zn     4.242641    4.086287   14.647504    ( 0.0000,  0.0000,  0.0000)
  31 Zn     5.655310    4.901477   17.071372    ( 0.0000,  0.0000,  0.0000)
  32 Zn     2.828427    4.898979   10.000000    ( 0.0000,  0.0000,  0.0000)
  33 Zn     4.242641    5.715476   12.309401    ( 0.0000,  0.0000,  0.0000)
  34 Zn     2.832295    6.534206   14.652990    ( 0.0000,  0.0000,  0.0000)
  35 Zn     4.242641    7.348469   17.091774    ( 0.0000,  0.0000,  0.0000)
  36 O      2.829972    4.901477   19.071372    ( 0.0000,  0.0000,  0.0000)
  37 H      2.829972    4.901477   20.031372    ( 0.0000,  0.0000,  0.0000)

Unit cell:
           periodic     x           y           z      points  spacing
  1. axis:    yes    8.485281    0.000000    0.000000    40     0.1837
  2. axis:    yes   -4.242641    7.348469    0.000000    40     0.1837
  3. axis:    no     0.000000    0.000000   26.928203   148     0.1819

  Lengths:   8.485281   8.485281  26.928203
  Angles:   90.000000  90.000000 120.000000

Effective grid spacing dv^(1/3) = 0.1921

     iter     time        total  log10-change:
                         energy  eigst   dens
iter:   1 12:49:39 -2797.872443
iter:   2 12:50:02 -2798.373122  +0.19  -1.39
iter:   3 12:50:25 -2798.889627  -0.13  -1.42
iter:   4 12:50:48 -2800.431504  -0.45  -1.44
iter:   5 12:51:11 -2807.971741  -0.86  -1.64
iter:   6 12:51:34 -2800.025993  -0.88  -1.64
iter:   7 12:51:57 -2800.578566  -1.22  -1.79
iter:   8 12:52:20 -2800.480184  -1.64  -2.35
iter:   9 12:52:43 -2800.479743c -1.98  -2.38
iter:  10 12:53:06 -2800.439279c -2.20  -2.38
iter:  11 12:53:29 -2800.304379c -2.56  -2.45
iter:  12 12:53:52 -2800.236417c -2.45  -2.55
iter:  13 12:54:15 -2800.235274c -3.13  -2.90
iter:  14 12:54:38 -2800.232803c -3.45  -2.94
iter:  15 12:55:01 -2800.236564c -3.44  -3.03
iter:  16 12:55:24 -2800.237496c -3.91  -3.18
iter:  17 12:55:47 -2800.234445c -4.69  -3.18
iter:  18 12:56:10 -2800.231259c -4.17  -3.22
iter:  19 12:56:33 -2800.233857c -4.33  -3.35
iter:  20 12:56:56 -2800.232324c -4.40  -3.52
iter:  21 12:57:19 -2800.232315c -4.91  -3.86
iter:  22 12:57:42 -2800.232275c -5.33  -3.93
iter:  23 12:58:05 -2800.232278c -5.58  -3.97
iter:  24 12:58:28 -2800.232291c -5.78  -4.03c
iter:  25 12:58:51 -2800.232315c -5.99  -4.11c
iter:  26 12:59:14 -2800.232310c -6.37  -4.16c
iter:  27 12:59:36 -2800.232276c -6.12  -4.23c
iter:  28 12:59:59 -2800.232274c -6.38  -4.54c
iter:  29 13:00:22 -2800.232278c -6.83  -4.66c
iter:  30 13:00:45 -2800.232283c -7.05  -4.84c
iter:  31 13:01:08 -2800.232283c -7.28  -4.95c
iter:  32 13:01:31 -2800.232282c -7.45c -5.03c

Converged after 32 iterations.

Dipole moment: (-3.221203, -5.295304, -0.172131) |e|*Ang

Energy contributions relative to reference atoms: (reference = -1761061.101969)

Kinetic:       +638.779270
Potential:     -535.514755
External:        +0.000000
XC:            -2902.123803
Entropy (-ST):   -0.454099
Local:           -1.145944
--------------------------
Free energy:   -2800.459332
Extrapolated:  -2800.232282

Showing only first 2 kpts
 Kpt  Band  Eigenvalues  Occupancy
  0   217     -5.04503    1.97365
  0   218     -4.61907    1.02823
  0   219     -4.58891    0.87804
  0   220     -4.42007    0.25271

  1   217     -4.76373    1.63606
  1   218     -4.74819    1.58750
  1   219     -3.80213    0.00060
  1   220     -3.79881    0.00058


Fermi level: -4.61343

No gap

Forces in eV/Ang:
  0 Zn   -0.00480   -0.00239   -0.16192
  1 Zn    0.00046   -0.01837    0.14011
  2 Zn   -0.01943    0.00131   -0.02881
  3 Zn   -0.06334   -0.06103   -0.02454
  4 Zn   -0.00768   -0.00197   -0.16916
  5 Zn   -0.01749    0.00061    0.16321
  6 Zn    0.01992   -0.00373   -0.02313
  7 Zn   -0.09207   -0.02417   -0.03186
  8 Zn   -0.00582   -0.00414   -0.16197
  9 Zn   -0.00218    0.00991    0.14263
 10 Zn    0.01744    0.00773   -0.01516
 11 Zn    0.00593   -0.00269    0.04142
 12 Zn   -0.00261   -0.00482   -0.14495
 13 Zn   -0.01061   -0.00171    0.13744
 14 Zn    0.03317   -0.01103   -0.00592
 15 Zn    0.07053   -0.06909   -0.03418
 16 Zn   -0.00661   -0.00502   -0.15575
 17 Zn    0.00660   -0.00378    0.16843
 18 Zn   -0.02815    0.01245    0.07481
 19 Zn   -0.00220    0.00105    0.85627
 20 Zn   -0.00530    0.00718   -0.16872
 21 Zn   -0.01086    0.00574    0.16762
 22 Zn   -0.01526   -0.01194   -0.01256
 23 Zn   -0.02344    0.09324    0.00197
 24 Zn    0.00268    0.00078   -0.16091
 25 Zn    0.00757    0.00579    0.15532
 26 Zn   -0.00962    0.01841   -0.01395
 27 Zn   -0.00453    0.00052    0.02130
 28 Zn    0.01233    0.00669   -0.16976
 29 Zn    0.00683   -0.00477    0.15074
 30 Zn    0.01795   -0.03635    0.07912
 31 Zn    0.09455   -0.02668    0.00326
 32 Zn    0.00891    0.00898   -0.16019
 33 Zn    0.00539    0.01486    0.16569
 34 Zn    0.00232    0.01222    0.07383
 35 Zn    0.01943    0.08618   -0.05237
 36 O    -0.00360   -0.00396   -0.80779
 37 H    -0.00057   -0.00317   -0.02339

      Step     Time          Energy         fmax
BFGS:    0 13:01:43    -2800.232282        0.8563
System changes: positions 

Initializing position-dependent things.

Density initialized from wave functions
                                             
                                             
                                             
                                             
                                             
                        H                    
                        O                    
               Zn     Zn     Zn              
                                             
                 Zn     Zn     Zn            
                   Zn     Zn     Zn          
           Zn     Zn     Zn                  
             Zn     Zn     Zn                
                                             
              ZZn    ZZn    ZZn              
                                             
                Zn     Zn     Zn             
          Zn     ZZn    ZZn     Zn           
                                             
            Zn     Zn     Zn                 
              Zn     Zn     Zn               
                                             
                                             
                                             
                                             

Positions:
   0 Zn     0.000000    0.000000   10.000000    ( 0.0000,  0.0000,  0.0000)
   1 Zn     1.414214    0.816497   12.309401    ( 0.0000,  0.0000,  0.0000)
   2 Zn    -0.000278    1.628546   14.652578    ( 0.0000,  0.0000,  0.0000)
   3 Zn     1.411918    2.446032   17.071022    ( 0.0000,  0.0000,  0.0000)
   4 Zn    -1.414214    2.449490   10.000000    ( 0.0000,  0.0000,  0.0000)
   5 Zn     0.000000    3.265986   12.309401    ( 0.0000,  0.0000,  0.0000)
   6 Zn    -1.415617    4.081455   14.653197    ( 0.0000,  0.0000,  0.0000)
   7 Zn    -0.001315    4.898634   17.084164    ( 0.0000,  0.0000,  0.0000)
   8 Zn    -2.828427    4.898979   10.000000    ( 0.0000,  0.0000,  0.0000)
   9 Zn    -1.414214    5.715476   12.309401    ( 0.0000,  0.0000,  0.0000)
  10 Zn    -2.832045    6.534316   14.652773    ( 0.0000,  0.0000,  0.0000)
  11 Zn    -1.417064    7.348520   17.071964    ( 0.0000,  0.0000,  0.0000)
  12 Zn     2.828427    0.000000   10.000000    ( 0.0000,  0.0000,  0.0000)
  13 Zn     4.242641    0.816497   12.309401    ( 0.0000,  0.0000,  0.0000)
  14 Zn     2.825606    1.630934   14.647419    ( 0.0000,  0.0000,  0.0000)
  15 Zn     4.243648    2.448503   17.081532    ( 0.0000,  0.0000,  0.0000)
  16 Zn     1.414214    2.449490   10.000000    ( 0.0000,  0.0000,  0.0000)
  17 Zn     2.828427    3.265986   12.309401    ( 0.0000,  0.0000,  0.0000)
  18 Zn     1.415500    4.081686   14.654596    ( 0.0000,  0.0000,  0.0000)
  19 Zn     2.829940    4.901492   17.083605    ( 0.0000,  0.0000,  0.0000)
  20 Zn     0.000000    4.898979   10.000000    ( 0.0000,  0.0000,  0.0000)
  21 Zn     1.414214    5.715476   12.309401    ( 0.0000,  0.0000,  0.0000)
  22 Zn    -0.000218    6.533752   14.653348    ( 0.0000,  0.0000,  0.0000)
  23 Zn     1.416813    7.349890   17.071400    ( 0.0000,  0.0000,  0.0000)
  24 Zn     5.656854    0.000000   10.000000    ( 0.0000,  0.0000,  0.0000)
  25 Zn     7.071068    0.816497   12.309401    ( 0.0000,  0.0000,  0.0000)
  26 Zn     5.660011    1.631354   14.647304    ( 0.0000,  0.0000,  0.0000)
  27 Zn     7.072393    2.446911   17.071677    ( 0.0000,  0.0000,  0.0000)
  28 Zn     4.242641    2.449490   10.000000    ( 0.0000,  0.0000,  0.0000)
  29 Zn     5.656854    3.265986   12.309401    ( 0.0000,  0.0000,  0.0000)
  30 Zn     4.242897    4.085768   14.648634    ( 0.0000,  0.0000,  0.0000)
  31 Zn     5.656660    4.901095   17.071419    ( 0.0000,  0.0000,  0.0000)
  32 Zn     2.828427    4.898979   10.000000    ( 0.0000,  0.0000,  0.0000)
  33 Zn     4.242641    5.715476   12.309401    ( 0.0000,  0.0000,  0.0000)
  34 Zn     2.832328    6.534380   14.654045    ( 0.0000,  0.0000,  0.0000)
  35 Zn     4.242918    7.349700   17.091026    ( 0.0000,  0.0000,  0.0000)
  36 O      2.829920    4.901420   19.059832    ( 0.0000,  0.0000,  0.0000)
  37 H      2.829963    4.901431   20.031038    ( 0.0000,  0.0000,  0.0000)

Unit cell:
           periodic     x           y           z      points  spacing
  1. axis:    yes    8.485281    0.000000    0.000000    40     0.1837
  2. axis:    yes   -4.242641    7.348469    0.000000    40     0.1837
  3. axis:    no     0.000000    0.000000   26.928203   148     0.1819

  Lengths:   8.485281   8.485281  26.928203
  Angles:   90.000000  90.000000 120.000000

Effective grid spacing dv^(1/3) = 0.1921

     iter     time        total  log10-change:
                         energy  eigst   dens
iter:   1 13:02:36 -2800.249956  -2.87
iter:   2 13:02:59 -2800.249905  -3.54  -3.57
iter:   3 13:03:23 -2800.249038c -4.09  -3.63
iter:   4 13:03:46 -2800.248584c -4.20  -3.81
iter:   5 13:04:09 -2800.248444c -4.69  -3.93
iter:   6 13:04:32 -2800.248358c -4.70  -4.17c
iter:   7 13:04:56 -2800.248399c -4.83  -4.27c
iter:   8 13:05:19 -2800.248354c -5.40  -4.30c
iter:   9 13:05:42 -2800.248337c -5.76  -4.53c
iter:  10 13:06:05 -2800.248341c -5.94  -4.60c
iter:  11 13:06:29 -2800.248345c -6.37  -4.72c
iter:  12 13:06:52 -2800.248343c -6.64  -4.88c
iter:  13 13:07:15 -2800.248348c -6.85  -4.99c
iter:  14 13:07:38 -2800.248350c -7.35  -5.01c
iter:  15 13:08:01 -2800.248353c -7.53c -5.20c

Converged after 15 iterations.

Dipole moment: (-3.231449, -5.355572, -0.153679) |e|*Ang

Energy contributions relative to reference atoms: (reference = -1761061.101969)

Kinetic:       +638.541103
Potential:     -535.365972
External:        +0.000000
XC:            -2902.043892
Entropy (-ST):   -0.454013
Local:           -1.152586
--------------------------
Free energy:   -2800.475359
Extrapolated:  -2800.248353

Showing only first 2 kpts
 Kpt  Band  Eigenvalues  Occupancy
  0   217     -5.02929    1.97389
  0   218     -4.60161    1.02434
  0   219     -4.57168    0.87533
  0   220     -4.40481    0.25586

  1   217     -4.74637    1.63403
  1   218     -4.72945    1.58070
  1   219     -3.78477    0.00060
  1   220     -3.78128    0.00057


Fermi level: -4.59675

No gap

Forces in eV/Ang:
  0 Zn   -0.00518   -0.00262   -0.16312
  1 Zn    0.00064   -0.01830    0.14132
  2 Zn   -0.01829    0.00118   -0.03020
  3 Zn   -0.06202   -0.06149   -0.02943
  4 Zn   -0.00795   -0.00186   -0.17042
  5 Zn   -0.01647    0.00125    0.16405
  6 Zn    0.01897   -0.00356   -0.02456
  7 Zn   -0.09255   -0.02321   -0.03680
  8 Zn   -0.00599   -0.00441   -0.16305
  9 Zn   -0.00227    0.00969    0.14295
 10 Zn    0.01630    0.00732   -0.01457
 11 Zn    0.00507   -0.00235    0.04172
 12 Zn   -0.00239   -0.00495   -0.14630
 13 Zn   -0.01024   -0.00183    0.13788
 14 Zn    0.03117   -0.01028   -0.00563
 15 Zn    0.06942   -0.07005   -0.03892
 16 Zn   -0.00654   -0.00455   -0.15702
 17 Zn    0.00659   -0.00171    0.17096
 18 Zn   -0.02242    0.01375    0.07722
 19 Zn   -0.00229    0.00065    0.70635
 20 Zn   -0.00519    0.00702   -0.16992
 21 Zn   -0.00908    0.00495    0.16991
 22 Zn   -0.01404   -0.01143   -0.01232
 23 Zn   -0.02406    0.09263   -0.00345
 24 Zn    0.00286    0.00080   -0.16207
 25 Zn    0.00717    0.00452    0.15630
 26 Zn   -0.00874    0.01726   -0.01565
 27 Zn   -0.00364    0.00018    0.02149
 28 Zn    0.01246    0.00700   -0.17088
 29 Zn    0.00591   -0.00408    0.15106
 30 Zn    0.01315   -0.03211    0.08149
 31 Zn    0.09407   -0.02417   -0.00212
 32 Zn    0.00887    0.00894   -0.16046
 33 Zn    0.00373    0.01361    0.16838
 34 Zn    0.00249    0.00692    0.07631
 35 Zn    0.02185    0.08862   -0.05775
 36 O     0.00593    0.01329   -0.08129
 37 H    -0.00051   -0.00307   -0.59220

BFGS:    1 13:08:13    -2800.248353        0.7064
System changes: positions 

Initializing position-dependent things.

Density initialized from wave functions
                                             
                                             
                                             
                                             
                                             
                        H                    
                        O                    
               Zn     Zn     Zn              
                                             
                 Zn     Zn     Zn            
                   Zn     Zn     Zn          
           Zn     Zn     Zn                  
             Zn     Zn     Zn                
                                             
              ZZn    ZZn    ZZn              
                                             
                Zn     Zn     Zn             
          Zn     ZZn    ZZn     Zn           
                                             
            Zn     Zn     Zn                 
              Zn     Zn     Zn               
                                             
                                             
                                             
                                             

Positions:
   0 Zn     0.000000    0.000000   10.000000    ( 0.0000,  0.0000,  0.0000)
   1 Zn     1.414214    0.816497   12.309401    ( 0.0000,  0.0000,  0.0000)
   2 Zn    -0.001276    1.628611   14.651006    ( 0.0000,  0.0000,  0.0000)
   3 Zn     1.408593    2.442776   17.069572    ( 0.0000,  0.0000,  0.0000)
   4 Zn    -1.414214    2.449490   10.000000    ( 0.0000,  0.0000,  0.0000)
   5 Zn     0.000000    3.265986   12.309401    ( 0.0000,  0.0000,  0.0000)
   6 Zn    -1.414588    4.081262   14.651925    ( 0.0000,  0.0000,  0.0000)
   7 Zn    -0.006220    4.897379   17.082324    ( 0.0000,  0.0000,  0.0000)
   8 Zn    -2.828427    4.898979   10.000000    ( 0.0000,  0.0000,  0.0000)
   9 Zn    -1.414214    5.715476   12.309401    ( 0.0000,  0.0000,  0.0000)
  10 Zn    -2.831153    6.534714   14.651986    ( 0.0000,  0.0000,  0.0000)
  11 Zn    -1.416774    7.348387   17.074173    ( 0.0000,  0.0000,  0.0000)
  12 Zn     2.828427    0.000000   10.000000    ( 0.0000,  0.0000,  0.0000)
  13 Zn     4.242641    0.816497   12.309401    ( 0.0000,  0.0000,  0.0000)
  14 Zn     2.827308    1.630370   14.647113    ( 0.0000,  0.0000,  0.0000)
  15 Zn     4.247362    2.444804   17.079574    ( 0.0000,  0.0000,  0.0000)
  16 Zn     1.414214    2.449490   10.000000    ( 0.0000,  0.0000,  0.0000)
  17 Zn     2.828427    3.265986   12.309401    ( 0.0000,  0.0000,  0.0000)
  18 Zn     1.414177    4.082386   14.658642    ( 0.0000,  0.0000,  0.0000)
  19 Zn     2.829820    4.901536   17.124592    ( 0.0000,  0.0000,  0.0000)
  20 Zn     0.000000    4.898979   10.000000    ( 0.0000,  0.0000,  0.0000)
  21 Zn     1.414214    5.715476   12.309401    ( 0.0000,  0.0000,  0.0000)
  22 Zn    -0.000992    6.533133   14.652688    ( 0.0000,  0.0000,  0.0000)
  23 Zn     1.415550    7.354825   17.071342    ( 0.0000,  0.0000,  0.0000)
  24 Zn     5.656854    0.000000   10.000000    ( 0.0000,  0.0000,  0.0000)
  25 Zn     7.071068    0.816497   12.309401    ( 0.0000,  0.0000,  0.0000)
  26 Zn     5.659527    1.632298   14.646512    ( 0.0000,  0.0000,  0.0000)
  27 Zn     7.072179    2.446929   17.072814    ( 0.0000,  0.0000,  0.0000)
  28 Zn     4.242641    2.449490   10.000000    ( 0.0000,  0.0000,  0.0000)
  29 Zn     5.656854    3.265986   12.309401    ( 0.0000,  0.0000,  0.0000)
  30 Zn     4.243707    4.083964   14.652908    ( 0.0000,  0.0000,  0.0000)
  31 Zn     5.661668    4.899753   17.071431    ( 0.0000,  0.0000,  0.0000)
  32 Zn     2.828427    4.898979   10.000000    ( 0.0000,  0.0000,  0.0000)
  33 Zn     4.242641    5.715476   12.309401    ( 0.0000,  0.0000,  0.0000)
  34 Zn     2.832456    6.534871   14.658041    ( 0.0000,  0.0000,  0.0000)
  35 Zn     4.244023    7.354351   17.088082    ( 0.0000,  0.0000,  0.0000)
  36 O      2.830015    4.901727   19.038716    ( 0.0000,  0.0000,  0.0000)
  37 H      2.829935    4.901266   20.012733    ( 0.0000,  0.0000,  0.0000)

Unit cell:
           periodic     x           y           z      points  spacing
  1. axis:    yes    8.485281    0.000000    0.000000    40     0.1837
  2. axis:    yes   -4.242641    7.348469    0.000000    40     0.1837
  3. axis:    no     0.000000    0.000000   26.928203   148     0.1819

  Lengths:   8.485281   8.485281  26.928203
  Angles:   90.000000  90.000000 120.000000

Effective grid spacing dv^(1/3) = 0.1921

     iter     time        total  log10-change:
                         energy  eigst   dens
iter:   1 13:09:05 -2800.329707  -1.95
iter:   2 13:09:28 -2800.292811  -2.63  -2.69
iter:   3 13:09:52 -2800.285771c -3.07  -3.00
iter:   4 13:10:15 -2800.281698c -3.30  -3.26
iter:   5 13:10:38 -2800.280252c -3.48  -3.33
iter:   6 13:11:02 -2800.280314c -3.76  -3.59
iter:   7 13:11:25 -2800.279971c -4.09  -3.61
iter:   8 13:11:48 -2800.279792c -4.17  -3.89
iter:   9 13:12:12 -2800.279863c -4.38  -4.06c
iter:  10 13:12:35 -2800.279803c -4.79  -3.99
iter:  11 13:12:58 -2800.279774c -5.26  -4.12c
iter:  12 13:13:22 -2800.279782c -5.53  -4.30c
iter:  13 13:13:45 -2800.279788c -5.96  -4.46c
iter:  14 13:14:08 -2800.279800c -6.32  -4.54c
iter:  15 13:14:31 -2800.279811c -6.47  -4.69c
iter:  16 13:14:55 -2800.279808c -6.85  -4.77c
iter:  17 13:15:18 -2800.279803c -7.18  -4.84c
iter:  18 13:15:41 -2800.279806c -7.24  -4.97c
iter:  19 13:16:04 -2800.279807c -7.52c -5.11c

Converged after 19 iterations.

Dipole moment: (-3.278343, -5.592174, -0.114982) |e|*Ang

Energy contributions relative to reference atoms: (reference = -1761061.101969)

Kinetic:       +639.564019
Potential:     -536.245840
External:        +0.000000
XC:            -2902.220299
Entropy (-ST):   -0.453959
Local:           -1.150707
--------------------------
Free energy:   -2800.506786
Extrapolated:  -2800.279807

Showing only first 2 kpts
 Kpt  Band  Eigenvalues  Occupancy
  0   217     -4.99709    1.97472
  0   218     -4.56420    1.01466
  0   219     -4.53398    0.86441
  0   220     -4.37288    0.26388

  1   217     -4.70849    1.62681
  1   218     -4.68737    1.55841
  1   219     -3.74709    0.00058
  1   220     -3.74319    0.00056


Fermi level: -4.56127

No gap

Forces in eV/Ang:
  0 Zn   -0.00548   -0.00239   -0.16371
  1 Zn    0.00181   -0.01828    0.14239
  2 Zn   -0.01454    0.00108   -0.03231
  3 Zn   -0.05381   -0.05586   -0.04006
  4 Zn   -0.00844   -0.00169   -0.16933
  5 Zn   -0.01623    0.00156    0.16400
  6 Zn    0.01581   -0.00304   -0.02678
  7 Zn   -0.08735   -0.01987   -0.04674
  8 Zn   -0.00506   -0.00482   -0.16279
  9 Zn   -0.00251    0.00984    0.14136
 10 Zn    0.01169    0.00507   -0.01155
 11 Zn    0.00277   -0.00123    0.04021
 12 Zn   -0.00185   -0.00540   -0.14568
 13 Zn   -0.00987   -0.00260    0.13687
 14 Zn    0.02453   -0.00648   -0.00369
 15 Zn    0.06252   -0.06725   -0.04834
 16 Zn   -0.00681   -0.00434   -0.15760
 17 Zn    0.00630    0.00090    0.17538
 18 Zn   -0.00498    0.01694    0.08807
 19 Zn   -0.00238    0.00004    0.22498
 20 Zn   -0.00615    0.00689   -0.16986
 21 Zn   -0.00689    0.00436    0.17334
 22 Zn   -0.00845   -0.01036   -0.01047
 23 Zn   -0.02255    0.08467   -0.01570
 24 Zn    0.00257    0.00178   -0.16193
 25 Zn    0.00581    0.00411    0.15686
 26 Zn   -0.00582    0.01339   -0.01864
 27 Zn   -0.00159   -0.00041    0.02118
 28 Zn    0.01335    0.00652   -0.17083
 29 Zn    0.00615   -0.00362    0.14979
 30 Zn   -0.00086   -0.01859    0.09219
 31 Zn    0.08522   -0.01615   -0.01441
 32 Zn    0.00866    0.00893   -0.15966
 33 Zn    0.00184    0.01161    0.17303
 34 Zn    0.00225   -0.00849    0.08715
 35 Zn    0.02619    0.09146   -0.06982
 36 O    -0.01038   -0.01526    0.65583
 37 H    -0.00063   -0.00331   -0.76806

BFGS:    2 13:16:16    -2800.279807        0.7681
System changes: positions 

Initializing position-dependent things.

Density initialized from wave functions
                                             
                                             
                                             
                                             
                                             
                        H                    
                        O                    
               Zn     Zn     Zn              
                                             
                 Zn     Zn     Zn            
                   Zn     Zn     Zn          
           Zn     Zn     Zn                  
             Zn     Zn     Zn                
                                             
              ZZn    ZZn    ZZn              
                                             
                Zn     Zn     Zn             
          Zn     ZZn    ZZn     Zn           
                                             
            Zn     Zn     Zn                 
              Zn     Zn     Zn               
                                             
                                             
                                             
                                             

Positions:
   0 Zn     0.000000    0.000000   10.000000    ( 0.0000,  0.0000,  0.0000)
   1 Zn     1.414214    0.816497   12.309401    ( 0.0000,  0.0000,  0.0000)
   2 Zn    -0.002070    1.628667   14.649602    ( 0.0000,  0.0000,  0.0000)
   3 Zn     1.405868    2.440064   17.068112    ( 0.0000,  0.0000,  0.0000)
   4 Zn    -1.414214    2.449490   10.000000    ( 0.0000,  0.0000,  0.0000)
   5 Zn     0.000000    3.265986   12.309401    ( 0.0000,  0.0000,  0.0000)
   6 Zn    -1.413754    4.081104   14.650780    ( 0.0000,  0.0000,  0.0000)
   7 Zn    -0.010374    4.896354   17.080540    ( 0.0000,  0.0000,  0.0000)
   8 Zn    -2.828427    4.898979   10.000000    ( 0.0000,  0.0000,  0.0000)
   9 Zn    -1.414214    5.715476   12.309401    ( 0.0000,  0.0000,  0.0000)
  10 Zn    -2.830468    6.535016   14.651361    ( 0.0000,  0.0000,  0.0000)
  11 Zn    -1.416567    7.348293   17.076060    ( 0.0000,  0.0000,  0.0000)
  12 Zn     2.828427    0.000000   10.000000    ( 0.0000,  0.0000,  0.0000)
  13 Zn     4.242641    0.816497   12.309401    ( 0.0000,  0.0000,  0.0000)
  14 Zn     2.828658    1.629956   14.646886    ( 0.0000,  0.0000,  0.0000)
  15 Zn     4.250451    2.441651   17.077698    ( 0.0000,  0.0000,  0.0000)
  16 Zn     1.414214    2.449490   10.000000    ( 0.0000,  0.0000,  0.0000)
  17 Zn     2.828427    3.265986   12.309401    ( 0.0000,  0.0000,  0.0000)
  18 Zn     1.413363    4.083055   14.662371    ( 0.0000,  0.0000,  0.0000)
  19 Zn     2.829715    4.901563   17.150900    ( 0.0000,  0.0000,  0.0000)
  20 Zn     0.000000    4.898979   10.000000    ( 0.0000,  0.0000,  0.0000)
  21 Zn     1.414214    5.715476   12.309401    ( 0.0000,  0.0000,  0.0000)
  22 Zn    -0.001554    6.532615   14.652151    ( 0.0000,  0.0000,  0.0000)
  23 Zn     1.414485    7.358951   17.071061    ( 0.0000,  0.0000,  0.0000)
  24 Zn     5.656854    0.000000   10.000000    ( 0.0000,  0.0000,  0.0000)
  25 Zn     7.071068    0.816497   12.309401    ( 0.0000,  0.0000,  0.0000)
  26 Zn     5.659162    1.633042   14.645769    ( 0.0000,  0.0000,  0.0000)
  27 Zn     7.072032    2.446933   17.073794    ( 0.0000,  0.0000,  0.0000)
  28 Zn     4.242641    2.449490   10.000000    ( 0.0000,  0.0000,  0.0000)
  29 Zn     5.656854    3.265986   12.309401    ( 0.0000,  0.0000,  0.0000)
  30 Zn     4.244141    4.082658   14.656832    ( 0.0000,  0.0000,  0.0000)
  31 Zn     5.665840    4.898742   17.071209    ( 0.0000,  0.0000,  0.0000)
  32 Zn     2.828427    4.898979   10.000000    ( 0.0000,  0.0000,  0.0000)
  33 Zn     4.242641    5.715476   12.309401    ( 0.0000,  0.0000,  0.0000)
  34 Zn     2.832562    6.535000   14.661726    ( 0.0000,  0.0000,  0.0000)
  35 Zn     4.245063    7.358441   17.085298    ( 0.0000,  0.0000,  0.0000)
  36 O      2.829726    4.901343   19.032737    ( 0.0000,  0.0000,  0.0000)
  37 H      2.829908    4.901117   19.995375    ( 0.0000,  0.0000,  0.0000)

Unit cell:
           periodic     x           y           z      points  spacing
  1. axis:    yes    8.485281    0.000000    0.000000    40     0.1837
  2. axis:    yes   -4.242641    7.348469    0.000000    40     0.1837
  3. axis:    no     0.000000    0.000000   26.928203   148     0.1819

  Lengths:   8.485281   8.485281  26.928203
  Angles:   90.000000  90.000000 120.000000

Effective grid spacing dv^(1/3) = 0.1921

     iter     time        total  log10-change:
                         energy  eigst   dens
iter:   1 13:17:08 -2800.350882  -2.27
iter:   2 13:17:32 -2800.303040  -2.89  -2.66
iter:   3 13:17:55 -2800.295380c -3.33  -3.02
iter:   4 13:18:18 -2800.291852c -3.48  -3.35
iter:   5 13:18:42 -2800.291246c -3.80  -3.44
iter:   6 13:19:05 -2800.291263c -4.20  -3.78
iter:   7 13:19:28 -2800.291209c -4.46  -3.88
iter:   8 13:19:52 -2800.291178c -4.67  -4.11c
iter:   9 13:20:15 -2800.291170c -4.94  -4.16c
iter:  10 13:20:38 -2800.291149c -5.31  -4.19c
iter:  11 13:21:02 -2800.291143c -5.58  -4.44c
iter:  12 13:21:25 -2800.291162c -5.88  -4.52c
iter:  13 13:21:48 -2800.291167c -6.12  -4.54c
iter:  14 13:22:12 -2800.291175c -6.41  -4.74c
iter:  15 13:22:35 -2800.291175c -6.70  -4.91c
iter:  16 13:22:58 -2800.291174c -7.07  -4.94c
iter:  17 13:23:22 -2800.291170c -7.27  -5.01c
iter:  18 13:23:45 -2800.291169c -7.44c -5.22c

Converged after 18 iterations.

Dipole moment: (-3.325256, -5.804737, -0.099242) |e|*Ang

Energy contributions relative to reference atoms: (reference = -1761061.101969)

Kinetic:       +640.843644
Potential:     -537.263131
External:        +0.000000
XC:            -2902.495256
Entropy (-ST):   -0.453906
Local:           -1.149473
--------------------------
Free energy:   -2800.518122
Extrapolated:  -2800.291169

Showing only first 2 kpts
 Kpt  Band  Eigenvalues  Occupancy
  0   217     -4.98479    1.97527
  0   218     -4.54905    1.01142
  0   219     -4.51784    0.85640
  0   220     -4.36023    0.26816

  1   217     -4.69243    1.62205
  1   218     -4.66900    1.54496
  1   219     -3.73159    0.00058
  1   220     -3.72743    0.00055


Fermi level: -4.54676

No gap

Forces in eV/Ang:
  0 Zn   -0.00588   -0.00253   -0.16422
  1 Zn    0.00282   -0.01826    0.14335
  2 Zn   -0.01176    0.00118   -0.03364
  3 Zn   -0.04591   -0.04963   -0.04708
  4 Zn   -0.00882   -0.00158   -0.16873
  5 Zn   -0.01592    0.00175    0.16403
  6 Zn    0.01307   -0.00287   -0.02818
  7 Zn   -0.08040   -0.01618   -0.05248
  8 Zn   -0.00466   -0.00509   -0.16258
  9 Zn   -0.00284    0.01010    0.14016
 10 Zn    0.00863    0.00349   -0.00932
 11 Zn    0.00120   -0.00041    0.03811
 12 Zn   -0.00142   -0.00577   -0.14510
 13 Zn   -0.00970   -0.00329    0.13618
 14 Zn    0.01916   -0.00413   -0.00227
 15 Zn    0.05515   -0.06259   -0.05318
 16 Zn   -0.00685   -0.00392   -0.15801
 17 Zn    0.00608    0.00257    0.17811
 18 Zn    0.00585    0.01693    0.09253
 19 Zn   -0.00145    0.00125   -0.09852
 20 Zn   -0.00652    0.00675   -0.16982
 21 Zn   -0.00532    0.00403    0.17541
 22 Zn   -0.00479   -0.00901   -0.00890
 23 Zn   -0.02096    0.07605   -0.02426
 24 Zn    0.00257    0.00223   -0.16180
 25 Zn    0.00471    0.00374    0.15734
 26 Zn   -0.00321    0.01042   -0.02074
 27 Zn   -0.00025   -0.00059    0.02021
 28 Zn    0.01381    0.00641   -0.17086
 29 Zn    0.00631   -0.00321    0.14889
 30 Zn   -0.00839   -0.00906    0.09605
 31 Zn    0.07673   -0.01014   -0.02315
 32 Zn    0.00847    0.00897   -0.15918
 33 Zn    0.00065    0.01016    0.17601
 34 Zn    0.00178   -0.01690    0.09126
 35 Zn    0.02895    0.09115   -0.07726
 36 O    -0.01142   -0.01701    0.46434
 37 H     0.00272    0.00196   -0.24249

BFGS:    3 13:23:56    -2800.291169        0.4648
System changes: positions 

Initializing position-dependent things.

Density initialized from wave functions
                                             
                                             
                                             
                                             
                                             
                        H                    
                        O                    
               Zn     Zn     Zn              
                                             
                 Zn     Zn     Zn            
                   Zn     Zn     Zn          
           Zn     Zn     Zn                  
             Zn     Zn     Zn                
                                             
              ZZn    ZZn    ZZn              
                                             
                Zn     Zn     Zn             
          Zn     ZZn    ZZn     Zn           
                                             
            Zn     Zn     Zn                 
              Zn     Zn     Zn               
                                             
                                             
                                             
                                             

Positions:
   0 Zn     0.000000    0.000000   10.000000    ( 0.0000,  0.0000,  0.0000)
   1 Zn     1.414214    0.816497   12.309401    ( 0.0000,  0.0000,  0.0000)
   2 Zn    -0.002333    1.628692   14.648940    ( 0.0000,  0.0000,  0.0000)
   3 Zn     1.404885    2.439029   17.067238    ( 0.0000,  0.0000,  0.0000)
   4 Zn    -1.414214    2.449490   10.000000    ( 0.0000,  0.0000,  0.0000)
   5 Zn     0.000000    3.265986   12.309401    ( 0.0000,  0.0000,  0.0000)
   6 Zn    -1.413468    4.081044   14.650229    ( 0.0000,  0.0000,  0.0000)
   7 Zn    -0.012033    4.896000   17.079550    ( 0.0000,  0.0000,  0.0000)
   8 Zn    -2.828427    4.898979   10.000000    ( 0.0000,  0.0000,  0.0000)
   9 Zn    -1.414214    5.715476   12.309401    ( 0.0000,  0.0000,  0.0000)
  10 Zn    -2.830266    6.535099   14.651155    ( 0.0000,  0.0000,  0.0000)
  11 Zn    -1.416527    7.348278   17.076840    ( 0.0000,  0.0000,  0.0000)
  12 Zn     2.828427    0.000000   10.000000    ( 0.0000,  0.0000,  0.0000)
  13 Zn     4.242641    0.816497   12.309401    ( 0.0000,  0.0000,  0.0000)
  14 Zn     2.829092    1.629851   14.646829    ( 0.0000,  0.0000,  0.0000)
  15 Zn     4.251614    2.440368   17.076689    ( 0.0000,  0.0000,  0.0000)
  16 Zn     1.414214    2.449490   10.000000    ( 0.0000,  0.0000,  0.0000)
  17 Zn     2.828427    3.265986   12.309401    ( 0.0000,  0.0000,  0.0000)
  18 Zn     1.413370    4.083383   14.664188    ( 0.0000,  0.0000,  0.0000)
  19 Zn     2.829683    4.901587   17.152010    ( 0.0000,  0.0000,  0.0000)
  20 Zn     0.000000    4.898979   10.000000    ( 0.0000,  0.0000,  0.0000)
  21 Zn     1.414214    5.715476   12.309401    ( 0.0000,  0.0000,  0.0000)
  22 Zn    -0.001684    6.532422   14.651960    ( 0.0000,  0.0000,  0.0000)
  23 Zn     1.414056    7.360541   17.070660    ( 0.0000,  0.0000,  0.0000)
  24 Zn     5.656854    0.000000   10.000000    ( 0.0000,  0.0000,  0.0000)
  25 Zn     7.071068    0.816497   12.309401    ( 0.0000,  0.0000,  0.0000)
  26 Zn     5.659076    1.633279   14.645374    ( 0.0000,  0.0000,  0.0000)
  27 Zn     7.072013    2.446925   17.074206    ( 0.0000,  0.0000,  0.0000)
  28 Zn     4.242641    2.449490   10.000000    ( 0.0000,  0.0000,  0.0000)
  29 Zn     5.656854    3.265986   12.309401    ( 0.0000,  0.0000,  0.0000)
  30 Zn     4.244057    4.082386   14.658723    ( 0.0000,  0.0000,  0.0000)
  31 Zn     5.667444    4.898483   17.070831    ( 0.0000,  0.0000,  0.0000)
  32 Zn     2.828427    4.898979   10.000000    ( 0.0000,  0.0000,  0.0000)
  33 Zn     4.242641    5.715476   12.309401    ( 0.0000,  0.0000,  0.0000)
  34 Zn     2.832599    6.534754   14.663518    ( 0.0000,  0.0000,  0.0000)
  35 Zn     4.245614    7.360265   17.083821    ( 0.0000,  0.0000,  0.0000)
  36 O      2.829476    4.900962   19.036840    ( 0.0000,  0.0000,  0.0000)
  37 H      2.829950    4.901138   19.992399    ( 0.0000,  0.0000,  0.0000)

Unit cell:
           periodic     x           y           z      points  spacing
  1. axis:    yes    8.485281    0.000000    0.000000    40     0.1837
  2. axis:    yes   -4.242641    7.348469    0.000000    40     0.1837
  3. axis:    no     0.000000    0.000000   26.928203   148     0.1819

  Lengths:   8.485281   8.485281  26.928203
  Angles:   90.000000  90.000000 120.000000

Effective grid spacing dv^(1/3) = 0.1921

     iter     time        total  log10-change:
                         energy  eigst   dens
iter:   1 13:24:49 -2800.299002  -3.39
iter:   2 13:25:12 -2800.295090  -3.94  -3.18
iter:   3 13:25:36 -2800.294557c -4.32  -3.58
iter:   4 13:25:59 -2800.294236c -4.55  -3.90
iter:   5 13:26:22 -2800.294168c -4.92  -3.98
iter:   6 13:26:46 -2800.294165c -5.17  -4.27c
iter:   7 13:27:09 -2800.294123c -5.30  -4.28c
iter:   8 13:27:32 -2800.294132c -5.39  -4.70c
iter:   9 13:27:56 -2800.294130c -5.77  -4.74c
iter:  10 13:28:19 -2800.294123c -6.29  -4.83c
iter:  11 13:28:42 -2800.294123c -6.63  -5.02c
iter:  12 13:29:06 -2800.294123c -6.90  -5.12c
iter:  13 13:29:29 -2800.294125c -7.25  -5.14c
iter:  14 13:29:52 -2800.294128c -7.46c -5.25c

Converged after 14 iterations.

Dipole moment: (-3.352161, -5.902588, -0.104281) |e|*Ang

Energy contributions relative to reference atoms: (reference = -1761061.101969)

Kinetic:       +641.050088
Potential:     -537.395061
External:        +0.000000
XC:            -2902.574213
Entropy (-ST):   -0.453748
Local:           -1.148068
--------------------------
Free energy:   -2800.521002
Extrapolated:  -2800.294128

Showing only first 2 kpts
 Kpt  Band  Eigenvalues  Occupancy
  0   217     -4.98976    1.97534
  0   218     -4.55415    1.01368
  0   219     -4.52235    0.85566
  0   220     -4.36462    0.26756

  1   217     -4.69692    1.62154
  1   218     -4.67404    1.54632
  1   219     -3.73674    0.00058
  1   220     -3.73246    0.00055


Fermi level: -4.55142

No gap

Forces in eV/Ang:
  0 Zn   -0.00621   -0.00289   -0.16464
  1 Zn    0.00305   -0.01825    0.14366
  2 Zn   -0.01119    0.00146   -0.03509
  3 Zn   -0.04205   -0.04561   -0.04500
  4 Zn   -0.00861   -0.00181   -0.16946
  5 Zn   -0.01442    0.00229    0.16443
  6 Zn    0.01191   -0.00300   -0.02929
  7 Zn   -0.07569   -0.01433   -0.05010
  8 Zn   -0.00532   -0.00501   -0.16289
  9 Zn   -0.00312    0.01034    0.14022
 10 Zn    0.00781    0.00268   -0.00994
 11 Zn    0.00130   -0.00040    0.03919
 12 Zn   -0.00161   -0.00567   -0.14517
 13 Zn   -0.00982   -0.00351    0.13644
 14 Zn    0.01775   -0.00346   -0.00314
 15 Zn    0.05159   -0.05897   -0.05034
 16 Zn   -0.00668   -0.00347   -0.15849
 17 Zn    0.00587    0.00394    0.17975
 18 Zn    0.00779    0.01581    0.08948
 19 Zn   -0.00093    0.00195   -0.05308
 20 Zn   -0.00585    0.00652   -0.17023
 21 Zn   -0.00391    0.00341    0.17697
 22 Zn   -0.00366   -0.00853   -0.00916
 23 Zn   -0.01990    0.07120   -0.02293
 24 Zn    0.00316    0.00182   -0.16221
 25 Zn    0.00466    0.00213    0.15786
 26 Zn   -0.00221    0.00965   -0.02211
 27 Zn   -0.00038   -0.00029    0.02177
 28 Zn    0.01351    0.00689   -0.17125
 29 Zn    0.00505   -0.00228    0.14936
 30 Zn   -0.00878   -0.00670    0.09304
 31 Zn    0.07213   -0.00839   -0.02201
 32 Zn    0.00845    0.00903   -0.15941
 33 Zn   -0.00045    0.00940    0.17773
 34 Zn    0.00117   -0.01760    0.08810
 35 Zn    0.02870    0.08862   -0.07508
 36 O    -0.01187   -0.01745    0.04363
 37 H     0.00379    0.00349    0.12254

BFGS:    4 13:30:03    -2800.294128        0.1226
System changes: positions 

Initializing position-dependent things.

Density initialized from wave functions
                                             
                                             
                                             
                                             
                                             
                        H                    
                        O                    
               Zn     Zn     Zn              
                                             
                 Zn     Zn     Zn            
                   Zn     Zn     Zn          
           Zn     Zn     Zn                  
             Zn     Zn     Zn                
                                             
              ZZn    ZZn    ZZn              
                                             
                Zn     Zn     Zn             
          Zn     ZZn    ZZn     Zn           
                                             
            Zn     Zn     Zn                 
              Zn     Zn     Zn               
                                             
                                             
                                             
                                             

Positions:
   0 Zn     0.000000    0.000000   10.000000    ( 0.0000,  0.0000,  0.0000)
   1 Zn     1.414214    0.816497   12.309401    ( 0.0000,  0.0000,  0.0000)
   2 Zn    -0.002762    1.628739   14.647754    ( 0.0000,  0.0000,  0.0000)
   3 Zn     1.403295    2.437336   17.065731    ( 0.0000,  0.0000,  0.0000)
   4 Zn    -1.414214    2.449490   10.000000    ( 0.0000,  0.0000,  0.0000)
   5 Zn     0.000000    3.265986   12.309401    ( 0.0000,  0.0000,  0.0000)
   6 Zn    -1.413008    4.080938   14.649242    ( 0.0000,  0.0000,  0.0000)
   7 Zn    -0.014786    4.895442   17.077852    ( 0.0000,  0.0000,  0.0000)
   8 Zn    -2.828427    4.898979   10.000000    ( 0.0000,  0.0000,  0.0000)
   9 Zn    -1.414214    5.715476   12.309401    ( 0.0000,  0.0000,  0.0000)
  10 Zn    -2.829948    6.535221   14.650793    ( 0.0000,  0.0000,  0.0000)
  11 Zn    -1.416464    7.348254   17.078207    ( 0.0000,  0.0000,  0.0000)
  12 Zn     2.828427    0.000000   10.000000    ( 0.0000,  0.0000,  0.0000)
  13 Zn     4.242641    0.816497   12.309401    ( 0.0000,  0.0000,  0.0000)
  14 Zn     2.829786    1.629695   14.646716    ( 0.0000,  0.0000,  0.0000)
  15 Zn     4.253525    2.438234   17.074969    ( 0.0000,  0.0000,  0.0000)
  16 Zn     1.414214    2.449490   10.000000    ( 0.0000,  0.0000,  0.0000)
  17 Zn     2.828427    3.265986   12.309401    ( 0.0000,  0.0000,  0.0000)
  18 Zn     1.413482    4.083934   14.667283    ( 0.0000,  0.0000,  0.0000)
  19 Zn     2.829639    4.901643   17.153348    ( 0.0000,  0.0000,  0.0000)
  20 Zn     0.000000    4.898979   10.000000    ( 0.0000,  0.0000,  0.0000)
  21 Zn     1.414214    5.715476   12.309401    ( 0.0000,  0.0000,  0.0000)
  22 Zn    -0.001868    6.532106   14.651629    ( 0.0000,  0.0000,  0.0000)
  23 Zn     1.413337    7.363161   17.069948    ( 0.0000,  0.0000,  0.0000)
  24 Zn     5.656854    0.000000   10.000000    ( 0.0000,  0.0000,  0.0000)
  25 Zn     7.071068    0.816497   12.309401    ( 0.0000,  0.0000,  0.0000)
  26 Zn     5.658960    1.633658   14.644649    ( 0.0000,  0.0000,  0.0000)
  27 Zn     7.071984    2.446915   17.074950    ( 0.0000,  0.0000,  0.0000)
  28 Zn     4.242641    2.449490   10.000000    ( 0.0000,  0.0000,  0.0000)
  29 Zn     5.656854    3.265986   12.309401    ( 0.0000,  0.0000,  0.0000)
  30 Zn     4.243858    4.082012   14.661946    ( 0.0000,  0.0000,  0.0000)
  31 Zn     5.670095    4.898100   17.070155    ( 0.0000,  0.0000,  0.0000)
  32 Zn     2.828427    4.898979   10.000000    ( 0.0000,  0.0000,  0.0000)
  33 Zn     4.242641    5.715476   12.309401    ( 0.0000,  0.0000,  0.0000)
  34 Zn     2.832650    6.534263   14.666569    ( 0.0000,  0.0000,  0.0000)
  35 Zn     4.246581    7.363372   17.081272    ( 0.0000,  0.0000,  0.0000)
  36 O      2.829083    4.900382   19.039701    ( 0.0000,  0.0000,  0.0000)
  37 H      2.830051    4.901212   19.991950    ( 0.0000,  0.0000,  0.0000)

Unit cell:
           periodic     x           y           z      points  spacing
  1. axis:    yes    8.485281    0.000000    0.000000    40     0.1837
  2. axis:    yes   -4.242641    7.348469    0.000000    40     0.1837
  3. axis:    no     0.000000    0.000000   26.928203   148     0.1819

  Lengths:   8.485281   8.485281  26.928203
  Angles:   90.000000  90.000000 120.000000

Effective grid spacing dv^(1/3) = 0.1921

     iter     time        total  log10-change:
                         energy  eigst   dens
iter:   1 13:30:56 -2800.300864  -3.16
iter:   2 13:31:19 -2800.297164  -3.70  -3.16
iter:   3 13:31:43 -2800.296821c -4.09  -3.59
iter:   4 13:32:06 -2800.296670c -4.44  -3.84
iter:   5 13:32:30 -2800.296691c -4.73  -4.09c
iter:   6 13:32:53 -2800.296712c -4.97  -4.41c
iter:   7 13:33:16 -2800.296692c -5.29  -4.45c
iter:   8 13:33:39 -2800.296703c -5.50  -4.71c
iter:   9 13:34:03 -2800.296705c -5.76  -4.83c
iter:  10 13:34:26 -2800.296698c -6.10  -4.94c
iter:  11 13:34:49 -2800.296699c -6.33  -5.05c
iter:  12 13:35:13 -2800.296699c -6.66  -5.11c
iter:  13 13:35:36 -2800.296698c -6.92  -5.20c
iter:  14 13:35:59 -2800.296698c -7.24  -5.37c
iter:  15 13:36:23 -2800.296697c -7.48c -5.42c

Converged after 15 iterations.

Dipole moment: (-3.397963, -6.065090, -0.107514) |e|*Ang

Energy contributions relative to reference atoms: (reference = -1761061.101969)

Kinetic:       +641.194098
Potential:     -537.493630
External:        +0.000000
XC:            -2902.620686
Entropy (-ST):   -0.453420
Local:           -1.149770
--------------------------
Free energy:   -2800.523407
Extrapolated:  -2800.296697

Showing only first 2 kpts
 Kpt  Band  Eigenvalues  Occupancy
  0   217     -4.99290    1.97544
  0   218     -4.55764    1.01734
  0   219     -4.52485    0.85443
  0   220     -4.36733    0.26745

  1   217     -4.69937    1.62061
  1   218     -4.67736    1.54832
  1   219     -3.74039    0.00058
  1   220     -3.73585    0.00056


Fermi level: -4.55417

No gap

Forces in eV/Ang:
  0 Zn   -0.00642   -0.00295   -0.16419
  1 Zn    0.00340   -0.01820    0.14363
  2 Zn   -0.01035    0.00192   -0.03606
  3 Zn   -0.03508   -0.03799   -0.04354
  4 Zn   -0.00877   -0.00176   -0.16899
  5 Zn   -0.01313    0.00299    0.16481
  6 Zn    0.01032   -0.00344   -0.03028
  7 Zn   -0.06624   -0.01140   -0.04787
  8 Zn   -0.00503   -0.00518   -0.16237
  9 Zn   -0.00326    0.01039    0.13919
 10 Zn    0.00733    0.00217   -0.00943
 11 Zn    0.00108   -0.00008    0.03616
 12 Zn   -0.00136   -0.00587   -0.14412
 13 Zn   -0.00969   -0.00376    0.13574
 14 Zn    0.01535   -0.00339   -0.00306
 15 Zn    0.04460   -0.05174   -0.04730
 16 Zn   -0.00671   -0.00324   -0.15809
 17 Zn    0.00576    0.00484    0.18205
 18 Zn    0.00946    0.01278    0.08514
 19 Zn    0.00004    0.00299   -0.02812
 20 Zn   -0.00597    0.00651   -0.16973
 21 Zn   -0.00299    0.00310    0.17884
 22 Zn   -0.00287   -0.00723   -0.00862
 23 Zn   -0.01755    0.06207   -0.02274
 24 Zn    0.00311    0.00195   -0.16167
 25 Zn    0.00420    0.00065    0.15841
 26 Zn   -0.00052    0.00858   -0.02358
 27 Zn   -0.00017    0.00020    0.01955
 28 Zn    0.01381    0.00676   -0.17084
 29 Zn    0.00397   -0.00148    0.14961
 30 Zn   -0.00797   -0.00390    0.08892
 31 Zn    0.06342   -0.00575   -0.02216
 32 Zn    0.00826    0.00911   -0.15901
 33 Zn   -0.00113    0.00873    0.18012
 34 Zn    0.00041   -0.01697    0.08382
 35 Zn    0.02749    0.08187   -0.07270
 36 O    -0.01182   -0.01723   -0.16080
 37 H     0.00480    0.00486    0.29778

BFGS:    5 13:36:34    -2800.296697        0.2979
System changes: positions 

Initializing position-dependent things.

Density initialized from wave functions
                                             
                                             
                                             
                                             
                                             
                        H                    
                        O                    
               Zn     Zn     Zn              
                                             
                 Zn     Zn     Zn            
                   Zn     Zn     Zn          
           Zn     Zn     Zn                  
             Zn     Zn     Zn                
                                             
              ZZn    ZZn    ZZn              
                                             
                Zn     Zn     Zn             
          Zn     ZZn    ZZn     Zn           
                                             
            Zn     Zn     Zn                 
              Zn     Zn     Zn               
                                             
                                             
                                             
                                             

Positions:
   0 Zn     0.000000    0.000000   10.000000    ( 0.0000,  0.0000,  0.0000)
   1 Zn     1.414214    0.816497   12.309401    ( 0.0000,  0.0000,  0.0000)
   2 Zn    -0.004522    1.628961   14.642672    ( 0.0000,  0.0000,  0.0000)
   3 Zn     1.396916    2.430537   17.059347    ( 0.0000,  0.0000,  0.0000)
   4 Zn    -1.414214    2.449490   10.000000    ( 0.0000,  0.0000,  0.0000)
   5 Zn     0.000000    3.265986   12.309401    ( 0.0000,  0.0000,  0.0000)
   6 Zn    -1.411153    4.080470   14.645000    ( 0.0000,  0.0000,  0.0000)
   7 Zn    -0.025995    4.893231   17.070701    ( 0.0000,  0.0000,  0.0000)
   8 Zn    -2.828427    4.898979   10.000000    ( 0.0000,  0.0000,  0.0000)
   9 Zn    -1.414214    5.715476   12.309401    ( 0.0000,  0.0000,  0.0000)
  10 Zn    -2.828640    6.535702   14.649297    ( 0.0000,  0.0000,  0.0000)
  11 Zn    -1.416220    7.348176   17.083850    ( 0.0000,  0.0000,  0.0000)
  12 Zn     2.828427    0.000000   10.000000    ( 0.0000,  0.0000,  0.0000)
  13 Zn     4.242641    0.816497   12.309401    ( 0.0000,  0.0000,  0.0000)
  14 Zn     2.832586    1.629048   14.646252    ( 0.0000,  0.0000,  0.0000)
  15 Zn     4.261267    2.429534   17.067767    ( 0.0000,  0.0000,  0.0000)
  16 Zn     1.414214    2.449490   10.000000    ( 0.0000,  0.0000,  0.0000)
  17 Zn     2.828427    3.265986   12.309401    ( 0.0000,  0.0000,  0.0000)
  18 Zn     1.414115    4.086142   14.680240    ( 0.0000,  0.0000,  0.0000)
  19 Zn     2.829501    4.901927   17.157836    ( 0.0000,  0.0000,  0.0000)
  20 Zn     0.000000    4.898979   10.000000    ( 0.0000,  0.0000,  0.0000)
  21 Zn     1.414214    5.715476   12.309401    ( 0.0000,  0.0000,  0.0000)
  22 Zn    -0.002589    6.530833   14.650260    ( 0.0000,  0.0000,  0.0000)
  23 Zn     1.410403    7.373808   17.066866    ( 0.0000,  0.0000,  0.0000)
  24 Zn     5.656854    0.000000   10.000000    ( 0.0000,  0.0000,  0.0000)
  25 Zn     7.071068    0.816497   12.309401    ( 0.0000,  0.0000,  0.0000)
  26 Zn     5.658559    1.635197   14.641487    ( 0.0000,  0.0000,  0.0000)
  27 Zn     7.071885    2.446892   17.077993    ( 0.0000,  0.0000,  0.0000)
  28 Zn     4.242641    2.449490   10.000000    ( 0.0000,  0.0000,  0.0000)
  29 Zn     5.656854    3.265986   12.309401    ( 0.0000,  0.0000,  0.0000)
  30 Zn     4.242990    4.080620   14.675451    ( 0.0000,  0.0000,  0.0000)
  31 Zn     5.680890    4.896642   17.067207    ( 0.0000,  0.0000,  0.0000)
  32 Zn     2.828427    4.898979   10.000000    ( 0.0000,  0.0000,  0.0000)
  33 Zn     4.242641    5.715476   12.309401    ( 0.0000,  0.0000,  0.0000)
  34 Zn     2.832833    6.532139   14.679337    ( 0.0000,  0.0000,  0.0000)
  35 Zn     4.250647    7.376245   17.070510    ( 0.0000,  0.0000,  0.0000)
  36 O      2.827454    4.898002   19.048100    ( 0.0000,  0.0000,  0.0000)
  37 H      2.830529    4.901598   19.994961    ( 0.0000,  0.0000,  0.0000)

Unit cell:
           periodic     x           y           z      points  spacing
  1. axis:    yes    8.485281    0.000000    0.000000    40     0.1837
  2. axis:    yes   -4.242641    7.348469    0.000000    40     0.1837
  3. axis:    no     0.000000    0.000000   26.928203   148     0.1819

  Lengths:   8.485281   8.485281  26.928203
  Angles:   90.000000  90.000000 120.000000

Effective grid spacing dv^(1/3) = 0.1921

     iter     time        total  log10-change:
                         energy  eigst   dens
iter:   1 13:37:27 -2800.355810  -1.96
iter:   2 13:37:50 -2800.310489  -2.51  -2.61
iter:   3 13:38:13 -2800.306711c -2.90  -3.04
iter:   4 13:38:37 -2800.304234c -3.26  -3.27
iter:   5 13:39:00 -2800.304258c -3.57  -3.58
iter:   6 13:39:23 -2800.304416c -3.81  -3.76
iter:   7 13:39:47 -2800.304448c -4.11  -3.92
iter:   8 13:40:10 -2800.304500c -4.35  -4.18c
iter:   9 13:40:33 -2800.304490c -4.72  -4.24c
iter:  10 13:40:57 -2800.304506c -4.97  -4.33c
iter:  11 13:41:20 -2800.304535c -5.23  -4.48c
iter:  12 13:41:43 -2800.304535c -5.46  -4.49c
iter:  13 13:42:07 -2800.304521c -5.78  -4.56c
iter:  14 13:42:30 -2800.304523c -6.03  -4.71c
iter:  15 13:42:53 -2800.304523c -6.24  -4.77c
iter:  16 13:43:17 -2800.304517c -6.45  -5.02c
iter:  17 13:43:40 -2800.304520c -6.76  -5.10c
iter:  18 13:44:03 -2800.304521c -7.01  -5.16c
iter:  19 13:44:27 -2800.304524c -7.23  -5.30c
iter:  20 13:44:50 -2800.304524c -7.45c -5.51c

Converged after 20 iterations.

Dipole moment: (-3.588459, -6.725572, -0.116580) |e|*Ang

Energy contributions relative to reference atoms: (reference = -1761061.101969)

Kinetic:       +641.346329
Potential:     -537.571712
External:        +0.000000
XC:            -2902.703069
Entropy (-ST):   -0.451911
Local:           -1.150117
--------------------------
Free energy:   -2800.530480
Extrapolated:  -2800.304524

Showing only first 2 kpts
 Kpt  Band  Eigenvalues  Occupancy
  0   217     -5.00207    1.97568
  0   218     -4.56912    1.03395
  0   219     -4.53204    0.84975
  0   220     -4.37543    0.26733

  1   217     -4.70647    1.61735
  1   218     -4.68789    1.55656
  1   219     -3.75266    0.00061
  1   220     -3.74691    0.00057


Fermi level: -4.56232

No gap

Forces in eV/Ang:
  0 Zn   -0.00714   -0.00303   -0.16485
  1 Zn    0.00473   -0.01768    0.14417
  2 Zn   -0.00692    0.00439   -0.04226
  3 Zn   -0.00777   -0.00918   -0.03456
  4 Zn   -0.00925   -0.00163   -0.16987
  5 Zn   -0.00722    0.00592    0.16747
  6 Zn    0.00336   -0.00520   -0.03552
  7 Zn   -0.02797    0.00157   -0.03132
  8 Zn   -0.00387   -0.00577   -0.16260
  9 Zn   -0.00398    0.01052    0.13572
 10 Zn    0.00500   -0.00044   -0.00873
 11 Zn    0.00037    0.00103    0.03040
 12 Zn   -0.00034   -0.00669   -0.14247
 13 Zn   -0.00903   -0.00464    0.13379
 14 Zn    0.00566   -0.00235   -0.00417
 15 Zn    0.01833   -0.02426   -0.02902
 16 Zn   -0.00705   -0.00255   -0.15863
 17 Zn    0.00525    0.00965    0.19349
 18 Zn    0.01709    0.00116    0.06273
 19 Zn    0.00394    0.00756    0.04698
 20 Zn   -0.00661    0.00653   -0.17035
 21 Zn    0.00193    0.00122    0.18849
 22 Zn    0.00112   -0.00231   -0.00735
 23 Zn   -0.01032    0.02421   -0.01877
 24 Zn    0.00285    0.00252   -0.16200
 25 Zn    0.00236   -0.00600    0.16192
 26 Zn    0.00651    0.00402   -0.03087
 27 Zn    0.00045    0.00248    0.01614
 28 Zn    0.01506    0.00614   -0.17145
 29 Zn   -0.00101    0.00219    0.15215
 30 Zn   -0.00534    0.01047    0.06995
 31 Zn    0.03053    0.00208   -0.01968
 32 Zn    0.00748    0.00953   -0.15941
 33 Zn   -0.00498    0.00543    0.19185
 34 Zn   -0.00314   -0.01559    0.06411
 35 Zn    0.01928    0.04097   -0.05086
 36 O    -0.01094   -0.01695   -0.57727
 37 H     0.00880    0.01017    0.58948

BFGS:    6 13:45:01    -2800.304524        0.5896
System changes: positions 

Initializing position-dependent things.

Density initialized from wave functions
                                             
                                             
                                             
                                             
                                             
                        H                    
                        O                    
               Zn     Zn     Zn              
                                             
                 Zn     Zn     Zn            
                   Zn     Zn     Zn          
           Zn     Zn     Zn                  
             Zn     Zn     Zn                
                                             
              ZZn    ZZn    ZZn              
                                             
                Zn     Zn     Zn             
          Zn     ZZn    ZZn     Zn           
                                             
            Zn     Zn     Zn                 
              Zn     Zn     Zn               
                                             
                                             
                                             
                                             

Positions:
   0 Zn     0.000000    0.000000   10.000000    ( 0.0000,  0.0000,  0.0000)
   1 Zn     1.414214    0.816497   12.309401    ( 0.0000,  0.0000,  0.0000)
   2 Zn    -0.006333    1.629251   14.637092    ( 0.0000,  0.0000,  0.0000)
   3 Zn     1.390649    2.423842   17.052686    ( 0.0000,  0.0000,  0.0000)
   4 Zn    -1.414214    2.449490   10.000000    ( 0.0000,  0.0000,  0.0000)
   5 Zn     0.000000    3.265986   12.309401    ( 0.0000,  0.0000,  0.0000)
   6 Zn    -1.409314    4.079932   14.640340    ( 0.0000,  0.0000,  0.0000)
   7 Zn    -0.037211    4.891137   17.063383    ( 0.0000,  0.0000,  0.0000)
   8 Zn    -2.828427    4.898979   10.000000    ( 0.0000,  0.0000,  0.0000)
   9 Zn    -1.414214    5.715476   12.309401    ( 0.0000,  0.0000,  0.0000)
  10 Zn    -2.827291    6.536162   14.647709    ( 0.0000,  0.0000,  0.0000)
  11 Zn    -1.415976    7.348117   17.089788    ( 0.0000,  0.0000,  0.0000)
  12 Zn     2.828427    0.000000   10.000000    ( 0.0000,  0.0000,  0.0000)
  13 Zn     4.242641    0.816497   12.309401    ( 0.0000,  0.0000,  0.0000)
  14 Zn     2.835378    1.628378   14.645730    ( 0.0000,  0.0000,  0.0000)
  15 Zn     4.269018    2.420777   17.060430    ( 0.0000,  0.0000,  0.0000)
  16 Zn     1.414214    2.449490   10.000000    ( 0.0000,  0.0000,  0.0000)
  17 Zn     2.828427    3.265986   12.309401    ( 0.0000,  0.0000,  0.0000)
  18 Zn     1.414968    4.088270   14.693647    ( 0.0000,  0.0000,  0.0000)
  19 Zn     2.829433    4.902326   17.163704    ( 0.0000,  0.0000,  0.0000)
  20 Zn     0.000000    4.898979   10.000000    ( 0.0000,  0.0000,  0.0000)
  21 Zn     1.414214    5.715476   12.309401    ( 0.0000,  0.0000,  0.0000)
  22 Zn    -0.003276    6.529573   14.648818    ( 0.0000,  0.0000,  0.0000)
  23 Zn     1.407403    7.384425   17.063636    ( 0.0000,  0.0000,  0.0000)
  24 Zn     5.656854    0.000000   10.000000    ( 0.0000,  0.0000,  0.0000)
  25 Zn     7.071068    0.816497   12.309401    ( 0.0000,  0.0000,  0.0000)
  26 Zn     5.658278    1.636747   14.637941    ( 0.0000,  0.0000,  0.0000)
  27 Zn     7.071794    2.446915   17.081192    ( 0.0000,  0.0000,  0.0000)
  28 Zn     4.242641    2.449490   10.000000    ( 0.0000,  0.0000,  0.0000)
  29 Zn     5.656854    3.265986   12.309401    ( 0.0000,  0.0000,  0.0000)
  30 Zn     4.242100    4.079446   14.689524    ( 0.0000,  0.0000,  0.0000)
  31 Zn     5.691778    4.895241   17.064091    ( 0.0000,  0.0000,  0.0000)
  32 Zn     2.828427    4.898979   10.000000    ( 0.0000,  0.0000,  0.0000)
  33 Zn     4.242641    5.715476   12.309401    ( 0.0000,  0.0000,  0.0000)
  34 Zn     2.832955    6.529877   14.692605    ( 0.0000,  0.0000,  0.0000)
  35 Zn     4.254832    7.389160   17.059447    ( 0.0000,  0.0000,  0.0000)
  36 O      2.825778    4.895543   19.052580    ( 0.0000,  0.0000,  0.0000)
  37 H      2.831124    4.902120   20.000544    ( 0.0000,  0.0000,  0.0000)

Unit cell:
           periodic     x           y           z      points  spacing
  1. axis:    yes    8.485281    0.000000    0.000000    40     0.1837
  2. axis:    yes   -4.242641    7.348469    0.000000    40     0.1837
  3. axis:    no     0.000000    0.000000   26.928203   148     0.1819

  Lengths:   8.485281   8.485281  26.928203
  Angles:   90.000000  90.000000 120.000000

Effective grid spacing dv^(1/3) = 0.1921

     iter     time        total  log10-change:
                         energy  eigst   dens
iter:   1 13:45:54 -2800.352902  -1.94
iter:   2 13:46:17 -2800.315867  -2.49  -2.65
iter:   3 13:46:41 -2800.312881c -2.88  -3.06
iter:   4 13:47:04 -2800.310562c -3.25  -3.27
iter:   5 13:47:30 -2800.310708c -3.58  -3.65
iter:   6 13:47:54 -2800.310840c -3.83  -3.74
iter:   7 13:48:17 -2800.310960c -4.09  -3.94
iter:   8 13:48:40 -2800.310994c -4.34  -4.14c
iter:   9 13:49:04 -2800.310984c -4.69  -4.19c
iter:  10 13:49:27 -2800.310989c -4.98  -4.28c
iter:  11 13:49:51 -2800.311008c -5.27  -4.47c
iter:  12 13:50:14 -2800.311005c -5.49  -4.57c
iter:  13 13:50:37 -2800.310994c -5.84  -4.62c
iter:  14 13:51:01 -2800.311002c -6.00  -4.72c
iter:  15 13:51:24 -2800.311001c -6.24  -4.88c
iter:  16 13:51:47 -2800.311000c -6.54  -4.95c
iter:  17 13:52:11 -2800.311003c -6.75  -5.12c
iter:  18 13:52:34 -2800.311003c -6.93  -5.31c
iter:  19 13:52:57 -2800.311004c -7.10  -5.34c
iter:  20 13:53:21 -2800.311005c -7.26  -5.46c
iter:  21 13:53:44 -2800.311005c -7.52c -5.69c

Converged after 21 iterations.

Dipole moment: (-3.784030, -7.373200, -0.119807) |e|*Ang

Energy contributions relative to reference atoms: (reference = -1761061.101969)

Kinetic:       +641.370767
Potential:     -537.580381
External:        +0.000000
XC:            -2902.728154
Entropy (-ST):   -0.450299
Local:           -1.148087
--------------------------
Free energy:   -2800.536154
Extrapolated:  -2800.311005

Showing only first 2 kpts
 Kpt  Band  Eigenvalues  Occupancy
  0   217     -5.00523    1.97577
  0   218     -4.57525    1.05070
  0   219     -4.53384    0.84494
  0   220     -4.37864    0.26834

  1   217     -4.70819    1.61409
  1   218     -4.69234    1.56230
  1   219     -3.75966    0.00064
  1   220     -3.75264    0.00059


Fermi level: -4.56510

No gap

Forces in eV/Ang:
  0 Zn   -0.00806   -0.00315   -0.16483
  1 Zn    0.00621   -0.01744    0.14358
  2 Zn   -0.00291    0.00637   -0.04621
  3 Zn    0.01745    0.01413   -0.03005
  4 Zn   -0.00968   -0.00156   -0.17022
  5 Zn   -0.00095    0.00910    0.16840
  6 Zn   -0.00399   -0.00577   -0.03872
  7 Zn    0.01145    0.01631   -0.01173
  8 Zn   -0.00307   -0.00651   -0.16226
  9 Zn   -0.00482    0.01090    0.13163
 10 Zn    0.00203   -0.00330   -0.00725
 11 Zn   -0.00064    0.00224    0.02403
 12 Zn    0.00049   -0.00732   -0.13994
 13 Zn   -0.00865   -0.00547    0.13115
 14 Zn   -0.00396   -0.00080   -0.00455
 15 Zn   -0.00464    0.00506   -0.00931
 16 Zn   -0.00737   -0.00171   -0.15863
 17 Zn    0.00498    0.01478    0.20416
 18 Zn    0.02628   -0.00823    0.03870
 19 Zn    0.00787    0.01243    0.05706
 20 Zn   -0.00704    0.00621   -0.17038
 21 Zn    0.00734   -0.00095    0.19787
 22 Zn    0.00570    0.00211   -0.00541
 23 Zn   -0.00541   -0.01375   -0.01811
 24 Zn    0.00294    0.00312   -0.16178
 25 Zn    0.00065   -0.01321    0.16379
 26 Zn    0.01280   -0.00106   -0.03624
 27 Zn    0.00143    0.00450    0.01253
 28 Zn    0.01622    0.00583   -0.17153
 29 Zn   -0.00653    0.00610    0.15320
 30 Zn   -0.00395    0.02813    0.04939
 31 Zn   -0.00089    0.00609   -0.02046
 32 Zn    0.00685    0.00986   -0.15915
 33 Zn   -0.00911    0.00210    0.20289
 34 Zn   -0.00746   -0.01672    0.04112
 35 Zn    0.00585   -0.00879   -0.02816
 36 O    -0.01127   -0.02012   -0.54995
 37 H     0.01246    0.01505    0.51793

BFGS:    7 13:53:55    -2800.311005        0.5504
System changes: positions 

Initializing position-dependent things.

Density initialized from wave functions
                                             
                                             
                                             
                                             
                                             
                        H                    
                        O                    
               Zn     Zn     Zn              
                                             
                 Zn     Zn     Zn            
                   Zn     Zn     Zn          
           Zn     Zn     Zn                  
             Zn     Zn     Zn                
                                             
              ZZn    ZZn    ZZn              
                                             
                Zn     Zn     Zn             
          Zn     ZZn    ZZn     Zn           
                                             
            Zn     Zn     Zn                 
              Zn     Zn     Zn               
                                             
                                             
                                             
                                             

Positions:
   0 Zn     0.000000    0.000000   10.000000    ( 0.0000,  0.0000,  0.0000)
   1 Zn     1.414214    0.816497   12.309401    ( 0.0000,  0.0000,  0.0000)
   2 Zn    -0.007678    1.629579   14.632216    ( 0.0000,  0.0000,  0.0000)
   3 Zn     1.386479    2.419270   17.047298    ( 0.0000,  0.0000,  0.0000)
   4 Zn    -1.414214    2.449490   10.000000    ( 0.0000,  0.0000,  0.0000)
   5 Zn     0.000000    3.265986   12.309401    ( 0.0000,  0.0000,  0.0000)
   6 Zn    -1.408079    4.079445   14.636268    ( 0.0000,  0.0000,  0.0000)
   7 Zn    -0.045024    4.889965   17.057938    ( 0.0000,  0.0000,  0.0000)
   8 Zn    -2.828427    4.898979   10.000000    ( 0.0000,  0.0000,  0.0000)
   9 Zn    -1.414214    5.715476   12.309401    ( 0.0000,  0.0000,  0.0000)
  10 Zn    -2.826294    6.536426   14.646438    ( 0.0000,  0.0000,  0.0000)
  11 Zn    -1.415819    7.348118   17.094512    ( 0.0000,  0.0000,  0.0000)
  12 Zn     2.828427    0.000000   10.000000    ( 0.0000,  0.0000,  0.0000)
  13 Zn     4.242641    0.816497   12.309401    ( 0.0000,  0.0000,  0.0000)
  14 Zn     2.837297    1.627891   14.645274    ( 0.0000,  0.0000,  0.0000)
  15 Zn     4.274507    2.414599   17.055000    ( 0.0000,  0.0000,  0.0000)
  16 Zn     1.414214    2.449490   10.000000    ( 0.0000,  0.0000,  0.0000)
  17 Zn     2.828427    3.265986   12.309401    ( 0.0000,  0.0000,  0.0000)
  18 Zn     1.416114    4.089659   14.703980    ( 0.0000,  0.0000,  0.0000)
  19 Zn     2.829533    4.902849   17.167705    ( 0.0000,  0.0000,  0.0000)
  20 Zn     0.000000    4.898979   10.000000    ( 0.0000,  0.0000,  0.0000)
  21 Zn     1.414214    5.715476   12.309401    ( 0.0000,  0.0000,  0.0000)
  22 Zn    -0.003649    6.528708   14.647686    ( 0.0000,  0.0000,  0.0000)
  23 Zn     1.405125    7.391765   17.060940    ( 0.0000,  0.0000,  0.0000)
  24 Zn     5.656854    0.000000   10.000000    ( 0.0000,  0.0000,  0.0000)
  25 Zn     7.071068    0.816497   12.309401    ( 0.0000,  0.0000,  0.0000)
  26 Zn     5.658320    1.637829   14.634712    ( 0.0000,  0.0000,  0.0000)
  27 Zn     7.071762    2.447014   17.083733    ( 0.0000,  0.0000,  0.0000)
  28 Zn     4.242641    2.449490   10.000000    ( 0.0000,  0.0000,  0.0000)
  29 Zn     5.656854    3.265986   12.309401    ( 0.0000,  0.0000,  0.0000)
  30 Zn     4.241359    4.079187   14.700546    ( 0.0000,  0.0000,  0.0000)
  31 Zn     5.699579    4.894328   17.061431    ( 0.0000,  0.0000,  0.0000)
  32 Zn     2.828427    4.898979   10.000000    ( 0.0000,  0.0000,  0.0000)
  33 Zn     4.242641    5.715476   12.309401    ( 0.0000,  0.0000,  0.0000)
  34 Zn     2.832895    6.527898   14.702883    ( 0.0000,  0.0000,  0.0000)
  35 Zn     4.257906    7.398149   17.051006    ( 0.0000,  0.0000,  0.0000)
  36 O      2.824389    4.893431   19.053504    ( 0.0000,  0.0000,  0.0000)
  37 H      2.831784    4.902775   20.007566    ( 0.0000,  0.0000,  0.0000)

Unit cell:
           periodic     x           y           z      points  spacing
  1. axis:    yes    8.485281    0.000000    0.000000    40     0.1837
  2. axis:    yes   -4.242641    7.348469    0.000000    40     0.1837
  3. axis:    no     0.000000    0.000000   26.928203   148     0.1819

  Lengths:   8.485281   8.485281  26.928203
  Angles:   90.000000  90.000000 120.000000

Effective grid spacing dv^(1/3) = 0.1921

     iter     time        total  log10-change:
                         energy  eigst   dens
iter:   1 13:54:48 -2800.331767  -2.18
iter:   2 13:55:11 -2800.317477  -2.74  -2.83
iter:   3 13:55:35 -2800.316225c -3.12  -3.23
iter:   4 13:55:58 -2800.314927c -3.50  -3.40
iter:   5 13:56:21 -2800.314987c -3.85  -3.83
iter:   6 13:56:45 -2800.315064c -4.10  -3.86
iter:   7 13:57:08 -2800.315157c -4.37  -4.11c
iter:   8 13:57:31 -2800.315150c -4.63  -4.19c
iter:   9 13:57:55 -2800.315079c -4.96  -4.22c
iter:  10 13:58:18 -2800.315092c -5.17  -4.49c
iter:  11 13:58:41 -2800.315100c -5.46  -4.62c
iter:  12 13:59:05 -2800.315095c -5.83  -4.66c
iter:  13 13:59:28 -2800.315085c -6.16  -4.70c
iter:  14 13:59:51 -2800.315091c -6.45  -4.87c
iter:  15 14:00:15 -2800.315095c -6.75  -4.94c
iter:  16 14:00:38 -2800.315099c -7.13  -4.96c
iter:  17 14:01:01 -2800.315101c -7.38  -5.10c
iter:  18 14:01:24 -2800.315100c -7.59c -5.32c

Converged after 18 iterations.

Dipole moment: (-3.930367, -7.817895, -0.118958) |e|*Ang

Energy contributions relative to reference atoms: (reference = -1761061.101969)

Kinetic:       +641.225481
Potential:     -537.477279
External:        +0.000000
XC:            -2902.691309
Entropy (-ST):   -0.449034
Local:           -1.147476
--------------------------
Free energy:   -2800.539616
Extrapolated:  -2800.315100

Showing only first 2 kpts
 Kpt  Band  Eigenvalues  Occupancy
  0   217     -5.00387    1.97566
  0   218     -4.57679    1.06279
  0   219     -4.53251    0.84280
  0   220     -4.37814    0.26922

  1   217     -4.70668    1.61212
  1   218     -4.69258    1.56613
  1   219     -3.76208    0.00066
  1   220     -3.75407    0.00061


Fermi level: -4.56422

No gap

Forces in eV/Ang:
  0 Zn   -0.00863   -0.00310   -0.16477
  1 Zn    0.00759   -0.01743    0.14260
  2 Zn   -0.00064    0.00822   -0.04677
  3 Zn    0.03321    0.02587   -0.02780
  4 Zn   -0.00989   -0.00152   -0.17000
  5 Zn    0.00400    0.01185    0.16837
  6 Zn   -0.00899   -0.00659   -0.03958
  7 Zn    0.03729    0.02575    0.00201
  8 Zn   -0.00233   -0.00704   -0.16205
  9 Zn   -0.00524    0.01139    0.12816
 10 Zn    0.00079   -0.00476   -0.00641
 11 Zn   -0.00150    0.00336    0.01851
 12 Zn    0.00110   -0.00772   -0.13789
 13 Zn   -0.00863   -0.00608    0.12878
 14 Zn   -0.01025   -0.00039   -0.00502
 15 Zn   -0.02194    0.02655    0.00494
 16 Zn   -0.00769   -0.00126   -0.15858
 17 Zn    0.00501    0.01818    0.21236
 18 Zn    0.03150   -0.01499    0.02258
 19 Zn    0.01105    0.01636    0.03864
 20 Zn   -0.00746    0.00599   -0.17032
 21 Zn    0.01087   -0.00254    0.20509
 22 Zn    0.00818    0.00541   -0.00411
 23 Zn   -0.00352   -0.03810   -0.01788
 24 Zn    0.00289    0.00363   -0.16162
 25 Zn   -0.00068   -0.01889    0.16442
 26 Zn    0.01737   -0.00445   -0.03873
 27 Zn    0.00261    0.00561    0.00883
 28 Zn    0.01706    0.00547   -0.17152
 29 Zn   -0.01106    0.00906    0.15353
 30 Zn   -0.00213    0.03826    0.03309
 31 Zn   -0.02325    0.00893   -0.02032
 32 Zn    0.00638    0.01012   -0.15948
 33 Zn   -0.01193   -0.00012    0.21113
 34 Zn   -0.01052   -0.01755    0.02225
 35 Zn   -0.00404   -0.04317   -0.01340
 36 O    -0.01170   -0.02322   -0.20071
 37 H     0.01206    0.01455    0.17599

BFGS:    8 14:01:36    -2800.315100        0.2024
System changes: positions 

Initializing position-dependent things.

Density initialized from wave functions
                                             
                                             
                                             
                                             
                                             
                        H                    
                        O                    
               Zn     Zn     Zn              
                                             
                 Zn     Zn     Zn            
                   Zn     Zn     Zn          
           Zn     Zn     Zn                  
             Zn     Zn     Zn                
                                             
              ZZn    ZZn    ZZn              
                                             
                Zn     Zn     Zn             
          Zn     ZZn    ZZn     Zn           
                                             
            Zn     Zn     Zn                 
              Zn     Zn     Zn               
                                             
                                             
                                             
                                             

Positions:
   0 Zn     0.000000    0.000000   10.000000    ( 0.0000,  0.0000,  0.0000)
   1 Zn     1.414214    0.816497   12.309401    ( 0.0000,  0.0000,  0.0000)
   2 Zn    -0.007890    1.629778   14.630628    ( 0.0000,  0.0000,  0.0000)
   3 Zn     1.386454    2.419042   17.045969    ( 0.0000,  0.0000,  0.0000)
   4 Zn    -1.414214    2.449490   10.000000    ( 0.0000,  0.0000,  0.0000)
   5 Zn     0.000000    3.265986   12.309401    ( 0.0000,  0.0000,  0.0000)
   6 Zn    -1.408058    4.079252   14.634933    ( 0.0000,  0.0000,  0.0000)
   7 Zn    -0.045526    4.890260   17.057152    ( 0.0000,  0.0000,  0.0000)
   8 Zn    -2.828427    4.898979   10.000000    ( 0.0000,  0.0000,  0.0000)
   9 Zn    -1.414214    5.715476   12.309401    ( 0.0000,  0.0000,  0.0000)
  10 Zn    -2.826132    6.536378   14.646131    ( 0.0000,  0.0000,  0.0000)
  11 Zn    -1.415825    7.348181   17.095566    ( 0.0000,  0.0000,  0.0000)
  12 Zn     2.828427    0.000000   10.000000    ( 0.0000,  0.0000,  0.0000)
  13 Zn     4.242641    0.816497   12.309401    ( 0.0000,  0.0000,  0.0000)
  14 Zn     2.837396    1.627812   14.645114    ( 0.0000,  0.0000,  0.0000)
  15 Zn     4.274937    2.414148   17.054268    ( 0.0000,  0.0000,  0.0000)
  16 Zn     1.414214    2.449490   10.000000    ( 0.0000,  0.0000,  0.0000)
  17 Zn     2.828427    3.265986   12.309401    ( 0.0000,  0.0000,  0.0000)
  18 Zn     1.416873    4.089600   14.705950    ( 0.0000,  0.0000,  0.0000)
  19 Zn     2.829750    4.903225   17.168542    ( 0.0000,  0.0000,  0.0000)
  20 Zn     0.000000    4.898979   10.000000    ( 0.0000,  0.0000,  0.0000)
  21 Zn     1.414214    5.715476   12.309401    ( 0.0000,  0.0000,  0.0000)
  22 Zn    -0.003554    6.528677   14.647441    ( 0.0000,  0.0000,  0.0000)
  23 Zn     1.404711    7.392178   17.060197    ( 0.0000,  0.0000,  0.0000)
  24 Zn     5.656854    0.000000   10.000000    ( 0.0000,  0.0000,  0.0000)
  25 Zn     7.071068    0.816497   12.309401    ( 0.0000,  0.0000,  0.0000)
  26 Zn     5.658644    1.637908   14.633519    ( 0.0000,  0.0000,  0.0000)
  27 Zn     7.071807    2.447130   17.084281    ( 0.0000,  0.0000,  0.0000)
  28 Zn     4.242641    2.449490   10.000000    ( 0.0000,  0.0000,  0.0000)
  29 Zn     5.656854    3.265986   12.309401    ( 0.0000,  0.0000,  0.0000)
  30 Zn     4.241198    4.079856   14.702812    ( 0.0000,  0.0000,  0.0000)
  31 Zn     5.700334    4.894352   17.060650    ( 0.0000,  0.0000,  0.0000)
  32 Zn     2.828427    4.898979   10.000000    ( 0.0000,  0.0000,  0.0000)
  33 Zn     4.242641    5.715476   12.309401    ( 0.0000,  0.0000,  0.0000)
  34 Zn     2.832694    6.527267   14.704839    ( 0.0000,  0.0000,  0.0000)
  35 Zn     4.258294    7.398704   17.049490    ( 0.0000,  0.0000,  0.0000)
  36 O      2.823981    4.892712   19.052466    ( 0.0000,  0.0000,  0.0000)
  37 H      2.832100    4.903135   20.009831    ( 0.0000,  0.0000,  0.0000)

Unit cell:
           periodic     x           y           z      points  spacing
  1. axis:    yes    8.485281    0.000000    0.000000    40     0.1837
  2. axis:    yes   -4.242641    7.348469    0.000000    40     0.1837
  3. axis:    no     0.000000    0.000000   26.928203   148     0.1819

  Lengths:   8.485281   8.485281  26.928203
  Angles:   90.000000  90.000000 120.000000

Effective grid spacing dv^(1/3) = 0.1921

     iter     time        total  log10-change:
                         energy  eigst   dens
iter:   1 14:02:28 -2800.316125  -3.55
iter:   2 14:02:52 -2800.316059  -4.08  -3.81
iter:   3 14:03:15 -2800.315980c -4.52  -4.03c
iter:   4 14:03:39 -2800.315981c -4.92  -4.19c
iter:   5 14:04:02 -2800.315961c -5.35  -4.28c
iter:   6 14:04:25 -2800.315994c -5.36  -4.50c
iter:   7 14:04:49 -2800.315965c -5.75  -4.47c
iter:   8 14:05:12 -2800.315962c -6.03  -4.79c
iter:   9 14:05:35 -2800.315964c -6.46  -4.85c
iter:  10 14:05:59 -2800.315957c -6.74  -4.90c
iter:  11 14:06:22 -2800.315958c -7.07  -5.23c
iter:  12 14:06:46 -2800.315955c -7.31  -5.30c
iter:  13 14:07:09 -2800.315953c -7.45c -5.40c

Converged after 13 iterations.

Dipole moment: (-3.952986, -7.849428, -0.117122) |e|*Ang

Energy contributions relative to reference atoms: (reference = -1761061.101969)

Kinetic:       +641.152755
Potential:     -537.430875
External:        +0.000000
XC:            -2902.663260
Entropy (-ST):   -0.448844
Local:           -1.150151
--------------------------
Free energy:   -2800.540375
Extrapolated:  -2800.315953

Showing only first 2 kpts
 Kpt  Band  Eigenvalues  Occupancy
  0   217     -5.00187    1.97561
  0   218     -4.57514    1.06354
  0   219     -4.53097    0.84403
  0   220     -4.37626    0.26904

  1   217     -4.70484    1.61201
  1   218     -4.69106    1.56710
  1   219     -3.76080    0.00066
  1   220     -3.75260    0.00061


Fermi level: -4.56242

No gap

Forces in eV/Ang:
  0 Zn   -0.00885   -0.00332   -0.16417
  1 Zn    0.00800   -0.01757    0.14187
  2 Zn   -0.00041    0.00811   -0.04410
  3 Zn    0.03355    0.02561   -0.02665
  4 Zn   -0.00999   -0.00147   -0.16962
  5 Zn    0.00530    0.01259    0.16760
  6 Zn   -0.00913   -0.00639   -0.03736
  7 Zn    0.03893    0.02577    0.00291
  8 Zn   -0.00257   -0.00719   -0.16137
  9 Zn   -0.00533    0.01177    0.12721
 10 Zn    0.00104   -0.00434   -0.00635
 11 Zn   -0.00144    0.00368    0.01647
 12 Zn    0.00115   -0.00769   -0.13667
 13 Zn   -0.00887   -0.00614    0.12798
 14 Zn   -0.00998   -0.00059   -0.00494
 15 Zn   -0.02307    0.02810    0.00601
 16 Zn   -0.00760   -0.00101   -0.15789
 17 Zn    0.00513    0.01891    0.21296
 18 Zn    0.03069   -0.01560    0.01969
 19 Zn    0.01158    0.01721    0.01728
 20 Zn   -0.00729    0.00586   -0.16958
 21 Zn    0.01172   -0.00299    0.20562
 22 Zn    0.00782    0.00563   -0.00378
 23 Zn   -0.00352   -0.03888   -0.01764
 24 Zn    0.00303    0.00357   -0.16084
 25 Zn   -0.00084   -0.02043    0.16380
 26 Zn    0.01706   -0.00455   -0.03673
 27 Zn    0.00292    0.00548    0.00666
 28 Zn    0.01703    0.00570   -0.17088
 29 Zn   -0.01246    0.00981    0.15283
 30 Zn   -0.00126    0.03757    0.02963
 31 Zn   -0.02460    0.00884   -0.01986
 32 Zn    0.00641    0.01010   -0.15918
 33 Zn   -0.01256   -0.00057    0.21173
 34 Zn   -0.01052   -0.01693    0.01853
 35 Zn   -0.00480   -0.04499   -0.01212
 36 O    -0.01189   -0.02347   -0.00959
 37 H     0.01093    0.01319   -0.00087

BFGS:    9 14:07:20    -2800.315953        0.0499
Timing:                                      incl.     excl.
-------------------------------------------------------------------
Density initialized from wave functions:     0.458     0.458   0.0% |
 Symmetrize density:                         0.000     0.000   0.0% |
Forces:                                    111.311   111.311   2.4% ||
Hamiltonian:                                29.994     0.001   0.0% |
 Atomic:                                     0.002     0.002   0.0% |
  XC Correction:                             0.000     0.000   0.0% |
 Calculate atomic Hamiltonians:              0.003     0.003   0.0% |
 Communicate:                                1.346     1.346   0.0% |
 Hartree integrate/restrict:                 0.089     0.089   0.0% |
 Initialize Hamiltonian:                     0.001     0.001   0.0% |
 Poisson:                                    1.559     0.062   0.0% |
  Communicate from 1D:                       0.123     0.123   0.0% |
  Communicate from 2D:                       0.259     0.259   0.0% |
  Communicate to 1D:                         0.068     0.068   0.0% |
  Communicate to 2D:                         0.275     0.275   0.0% |
  FFT 1D:                                    0.404     0.404   0.0% |
  FFT 2D:                                    0.370     0.370   0.0% |
 XC 3D grid:                                26.963     6.174   0.1% |
  VdW-DF integral:                          20.789     1.242   0.0% |
   Convolution:                              2.058     2.058   0.0% |
   FFT:                                      1.380     1.380   0.0% |
   gather:                                   4.397     4.397   0.1% |
   hmm1:                                     0.356     0.356   0.0% |
   hmm2:                                     0.818     0.818   0.0% |
   iFFT:                                     1.301     1.301   0.0% |
   potential:                                5.535     0.144   0.0% |
    collect:                                 0.447     0.447   0.0% |
    p1:                                      3.372     3.372   0.1% |
    p2:                                      1.199     1.199   0.0% |
    sum:                                     0.373     0.373   0.0% |
   splines:                                  3.702     3.702   0.1% |
 vbar:                                       0.029     0.029   0.0% |
LCAO initialization:                        18.929     0.878   0.0% |
 LCAO eigensolver:                          11.121     0.003   0.0% |
  Calculate projections:                     0.000     0.000   0.0% |
  DenseAtomicCorrection:                     0.000     0.000   0.0% |
  Distribute overlap matrix:                10.708    10.708   0.2% |
  Orbital Layouts:                           0.318     0.318   0.0% |
  Potential matrix:                          0.015     0.015   0.0% |
  Sum over cells:                            0.076     0.076   0.0% |
 LCAO to grid:                               5.797     5.797   0.1% |
 Set positions (LCAO WFS):                   1.134     0.837   0.0% |
  Basic WFS set positions:                   0.001     0.001   0.0% |
  Basis functions set positions:             0.000     0.000   0.0% |
  P tci:                                     0.000     0.000   0.0% |
  ST tci:                                    0.223     0.223   0.0% |
  mktci:                                     0.072     0.072   0.0% |
Redistribute:                                0.004     0.004   0.0% |
SCF-cycle:                                4313.061    38.803   0.8% |
 Davidson:                                3775.731  1244.504  26.4% |----------|
  Apply hamiltonian:                        94.864    94.864   2.0% ||
  Subspace diag:                           374.738     0.020   0.0% |
   calc_h_matrix:                          188.708    99.239   2.1% ||
    Apply hamiltonian:                      89.469    89.469   1.9% ||
   diagonalize:                              6.713     6.713   0.1% |
   rotate_psi:                             179.297   179.297   3.8% |-|
  calc. matrices:                         1679.635   628.552  13.3% |----|
   Apply hamiltonian:                     1051.083  1051.083  22.3% |--------|
  diagonalize:                              41.786    41.786   0.9% |
  rotate_psi:                              340.204   340.204   7.2% |--|
 Density:                                    8.943     0.004   0.0% |
  Atomic density matrices:                   0.766     0.766   0.0% |
  Mix:                                       2.335     2.335   0.0% |
  Multipole moments:                         0.074     0.074   0.0% |
  Pseudo density:                            5.764     5.760   0.1% |
   Symmetrize density:                       0.004     0.004   0.0% |
 Hamiltonian:                              458.702     0.021   0.0% |
  Atomic:                                    0.038     0.037   0.0% |
   XC Correction:                            0.001     0.001   0.0% |
  Calculate atomic Hamiltonians:             0.051     0.051   0.0% |
  Communicate:                              23.559    23.559   0.5% |
  Hartree integrate/restrict:                1.479     1.479   0.0% |
  Poisson:                                  28.148     1.105   0.0% |
   Communicate from 1D:                      2.115     2.115   0.0% |
   Communicate from 2D:                      5.061     5.061   0.1% |
   Communicate to 1D:                        1.186     1.186   0.0% |
   Communicate to 2D:                        4.731     4.731   0.1% |
   FFT 1D:                                   7.482     7.482   0.2% |
   FFT 2D:                                   6.467     6.467   0.1% |
  XC 3D grid:                              405.089   107.695   2.3% ||
   VdW-DF integral:                        297.393    21.885   0.5% |
    Convolution:                            36.168    36.168   0.8% |
    FFT:                                    24.316    24.316   0.5% |
    gather:                                 74.008    74.008   1.6% ||
    hmm1:                                    6.246     6.246   0.1% |
    hmm2:                                   14.316    14.316   0.3% |
    iFFT:                                   22.845    22.845   0.5% |
    potential:                              97.609     2.503   0.1% |
     collect:                                7.961     7.961   0.2% |
     p1:                                    58.949    58.949   1.3% ||
     p2:                                    20.944    20.944   0.4% |
     sum:                                    7.252     7.252   0.2% |
    splines:                                 0.001     0.001   0.0% |
  vbar:                                      0.317     0.317   0.0% |
 Orthonormalize:                            30.882     0.002   0.0% |
  calc_s_matrix:                             2.112     2.112   0.0% |
  inverse-cholesky:                         24.127    24.127   0.5% |
  projections:                               0.000     0.000   0.0% |
  rotate_psi_s:                              4.640     4.640   0.1% |
Set symmetry:                                0.001     0.001   0.0% |
Other:                                     239.016   239.016   5.1% |-|
-------------------------------------------------------------------
Total:                                              4712.774 100.0%

Memory usage: 1.31 GiB
Date: Tue Sep 26 14:07:20 2023
