
  ___ ___ ___ _ _ _  
 |   |   |_  | | | | 
 | | | | | . | | | | 
 |__ |  _|___|_____|  22.8.0
 |___|_|             

User:   s204775@c052.nifl.fysik.dtu.dk
Date:   Wed Sep 27 20:11:32 2023
Arch:   x86_64
Pid:    118509
CWD:    /home/cat/s204775/projects/Bachelor_project/O_missing_features
Python: 3.10.4
gpaw:   /home/modules/software/GPAW/22.8.0-intel-2022a/lib/python3.10/site-packages/gpaw
_gpaw:  /home/modules/software/GPAW/22.8.0-intel-2022a/lib/python3.10/site-packages/
        _gpaw.cpython-310-x86_64-linux-gnu.so
ase:    /home/modules/software/ASE/3.22.1-intel-2022a/lib/python3.10/site-packages/ase (version 3.22.1)
numpy:  /home/modules/software/SciPy-bundle/2022.05-intel-2022a/lib/python3.10/site-packages/numpy (version 1.22.3)
scipy:  /home/modules/software/SciPy-bundle/2022.05-intel-2022a/lib/python3.10/site-packages/scipy (version 1.8.1)
libxc:  5.2.3
units:  Angstrom and eV
cores: 40
OpenMP: False
OMP_NUM_THREADS: 1

Input parameters:
  basis: dzp
  h: 0.18
  kpts: {size: (4, 4, 1)}
  xc: BEEF-vdW

System changes: positions, numbers, cell, pbc, initial_charges, initial_magmoms 

Initialize ...

species:
  Ag:
    name: Silver
    id: 33ddeab48f408598355e2011f1241e14
    Z: 47.0
    valence: 17
    core: 30
    charge: 0.0
    file: /home/modules/software/GPAW-setups/0.9.20000/Ag.PBE.gz
    compensation charges: {type: gauss,
                           rc: 0.40,
                           lmax: 2}
    cutoffs: {filter: 2.35,
              core: 2.19}
    valence states:
      #              energy  rcut
      - 5s(1.00)    -4.401   1.286
      - 4p(6.00)   -58.577   1.328
      - 5p(0.00)    -0.738   1.328
      - 4d(10.00)    -7.446   1.180
      -  s          22.811   1.286
      -  d          19.766   1.180
  
    # LCAO basis set for Ag:
    #   Name: dzp
    #   File: /home/modules/software/GPAW-setups/0.9.20000/Ag.dzp.basis.gz
    #   Number of radial functions: 9
    #   Number of spherical harmonics: 27
    #     l=0, rc=9.2812 Bohr: 5s-sz confined orbital
    #     l=1, rc=3.3750 Bohr: 4p-sz confined orbital
    #     l=1, rc=14.2344 Bohr: 5p-sz confined orbital
    #     l=2, rc=5.4531 Bohr: 4d-sz confined orbital
    #     l=0, rc=5.5156 Bohr: 5s-dz split-valence wave
    #     l=1, rc=2.3281 Bohr: 4p-dz split-valence wave
    #     l=1, rc=8.7656 Bohr: 5p-dz split-valence wave
    #     l=2, rc=3.2656 Bohr: 4d-dz split-valence wave
    #     l=1, rc=9.2812 Bohr: p-type Gaussian polarization
    #   Number of RI-basis functions 0

  O:
    name: Oxygen
    id: 32ecd46bf208036f09c70b0ec9a88b78
    Z: 8.0
    valence: 6
    core: 2
    charge: 0.0
    file: /home/modules/software/GPAW-setups/0.9.20000/O.PBE.gz
    compensation charges: {type: gauss,
                           rc: 0.21,
                           lmax: 2}
    cutoffs: {filter: 1.17,
              core: 0.83}
    valence states:
      #              energy  rcut
      - 2s(2.00)   -23.961   0.688
      - 2p(4.00)    -9.029   0.598
      -  s           3.251   0.688
      -  p          18.182   0.598
      -  d           0.000   0.619
  
    # LCAO basis set for O:
    #   Name: dzp
    #   File: /home/modules/software/GPAW-setups/0.9.20000/O.dzp.basis.gz
    #   Number of radial functions: 5
    #   Number of spherical harmonics: 13
    #     l=0, rc=4.3438 Bohr: 2s-sz confined orbital
    #     l=1, rc=5.3906 Bohr: 2p-sz confined orbital
    #     l=0, rc=2.2969 Bohr: 2s-dz split-valence wave
    #     l=1, rc=2.8906 Bohr: 2p-dz split-valence wave
    #     l=2, rc=5.3906 Bohr: d-type Gaussian polarization
    #   Number of RI-basis functions 0

Reference energy: -5207562.601035  # eV

Spin-paired calculation

Convergence criteria:
 Maximum [total energy] change in last 3 cyles: 0.0005 eV / electron
 Maximum integral of absolute [dens]ity change: 0.0001 electrons / valence electron
 Maximum integral of absolute [eigenst]ate change: 4e-08 eV^2 / valence electron
 Maximum number of scf [iter]ations: 333
 (Square brackets indicate name in SCF output, whereas a 'c' in
 the SCF output indicates the quantity has converged.)

Symmetries present (total): 2

  ( 1  0  0)  (-1  0  0)
  ( 0  1  0)  ( 1  1  0)
  ( 0  0  1)  ( 0  0  1)
Note: your k-points are not as symmetric as your crystal!

16 k-points: 4 x 4 x 1 Monkhorst-Pack grid
8 k-points in the irreducible part of the Brillouin zone
       k-points in crystal coordinates                weights
   0:     0.12500000   -0.37500000    0.00000000          2/16
   1:     0.12500000   -0.12500000    0.00000000          2/16
   2:     0.12500000    0.12500000    0.00000000          2/16
   3:     0.12500000    0.37500000    0.00000000          2/16
   4:     0.37500000   -0.37500000    0.00000000          2/16
   5:     0.37500000   -0.12500000    0.00000000          2/16
   6:     0.37500000    0.12500000    0.00000000          2/16
   7:     0.37500000    0.37500000    0.00000000          2/16

Wave functions: Uniform real-space grid
  Kinetic energy operator: 8*3+1=25 point O(h^6) finite-difference Laplacian
  ScaLapack parameters: grid=1x1, blocksize=None
  Wavefunction extrapolation:
    Improved wavefunction reuse through dual PAW basis 

Occupation numbers: Fermi-Dirac:
  width: 0.1000  # eV
 

Eigensolver
   Davidson(niter=2) 

Densities:
  Coarse grid: 44*44*152 grid
  Fine grid: 88*88*304 grid
  Total Charge: 0.000000 

Density mixing:
  Method: separate
  Backend: pulay
  Linear mixing parameter: 0.05
  old densities: 5
  Damping of long wavelength oscillations: 50 

Hamiltonian:
  XC and Coulomb potentials evaluated on a 88*88*304 grid
  Using the BEEF-vdW Exchange-Correlation functional
  Interpolation: tri-quintic (5. degree polynomial)
  Poisson solver: FastPoissonSolver using
    Stencil: 8*3+1=25 point O(h^6) finite-difference Laplacian
    FFT axes: [0, 1]
    FST axes: [2]
 

XC parameters: BEEF-vdW with 2 nearest neighbor stencil

Memory estimate:
  Process memory now: 223.20 MiB
  Calculator: 775.29 MiB
    Density: 64.43 MiB
      Arrays: 11.52 MiB
      Localized functions: 48.48 MiB
      Mixer: 4.43 MiB
    Hamiltonian: 11.23 MiB
      Arrays: 7.53 MiB
      XC: 0.00 MiB
      Poisson: 0.00 MiB
      vbar: 3.69 MiB
    Wavefunctions: 699.63 MiB
      Arrays psit_nG: 332.34 MiB
      Eigensolver: 358.24 MiB
      Projections: 0.76 MiB
      Projectors: 8.30 MiB

Total number of cores used: 40
Parallelization over k-points: 8
Domain decomposition: 1 x 1 x 5

Number of atoms: 37
Number of atomic orbitals: 985
Number of bands in calculation: 375
Number of valence electrons: 618
Bands to converge: occupied

... initialized

Initializing position-dependent things.

Density initialized from atomic densities
Creating initial wave functions:
  375 bands from LCAO basis set

                                                  
                                                  
                                                  
                                                  
                                                  
                            O                     
                  Ag     Ag     Ag                
                                                  
            Ag     AAg    AAg     Ag              
              Ag     AAg    AAg     Ag            
                                                  
               AAg    AAg    AAg                  
                                                  
                 Ag     Ag     Ag                 
                                                  
           Ag     AAg    AAg     Ag               
                                                  
            Ag      Ag     Ag                     
              Ag      Ag     Ag                   
                                                  
                                                  
                                                  
                                                  

Positions:
   0 Ag    -0.000000    0.000000    9.999999    ( 0.0000,  0.0000,  0.0000)
   1 Ag     1.496122    0.863786   12.443156    ( 0.0000,  0.0000,  0.0000)
   2 Ag    -0.000000    1.721500   14.879470    ( 0.0000,  0.0000,  0.0000)
   3 Ag     2.990772    0.000104   17.332927    ( 0.0000,  0.0000,  0.0000)
   4 Ag    -1.496122    2.591359    9.999999    ( 0.0000,  0.0000,  0.0000)
   5 Ag     0.000000    3.455145   12.443156    ( 0.0000,  0.0000,  0.0000)
   6 Ag    -1.490401    4.322235   14.880555    ( 0.0000,  0.0000,  0.0000)
   7 Ag     1.495476    2.590033   17.332927    ( 0.0000,  0.0000,  0.0000)
   8 Ag    -2.992244    5.182718    9.999999    ( 0.0000,  0.0000,  0.0000)
   9 Ag    -1.496122    6.046505   12.443156    ( 0.0000,  0.0000,  0.0000)
  10 Ag    -2.997503    6.913327   14.879470    ( 0.0000,  0.0000,  0.0000)
  11 Ag     0.000000    5.182718   17.332986    ( 0.0000,  0.0000,  0.0000)
  12 Ag     2.992244    0.000000    9.999999    ( 0.0000,  0.0000,  0.0000)
  13 Ag     4.488366    0.863786   12.443156    ( 0.0000,  0.0000,  0.0000)
  14 Ag     2.995517    1.729463   14.878053    ( 0.0000,  0.0000,  0.0000)
  15 Ag     5.985960    0.000104   17.332927    ( 0.0000,  0.0000,  0.0000)
  16 Ag     1.496122    2.591359    9.999999    ( 0.0000,  0.0000,  0.0000)
  17 Ag     2.992244    3.455145   12.443156    ( 0.0000,  0.0000,  0.0000)
  18 Ag     1.490401    4.322235   14.880555    ( 0.0000,  0.0000,  0.0000)
  19 Ag     4.488366    2.591359   17.331088    ( 0.0000,  0.0000,  0.0000)
  20 Ag     0.000000    5.182718    9.999999    ( 0.0000,  0.0000,  0.0000)
  21 Ag     1.496122    6.046505   12.443156    ( 0.0000,  0.0000,  0.0000)
  22 Ag     0.000000    6.903685   14.880555    ( 0.0000,  0.0000,  0.0000)
  23 Ag     2.993069    5.183941   17.332927    ( 0.0000,  0.0000,  0.0000)
  24 Ag     5.984488    0.000000    9.999999    ( 0.0000,  0.0000,  0.0000)
  25 Ag     7.480609    0.863786   12.443156    ( 0.0000,  0.0000,  0.0000)
  26 Ag     5.981214    1.729463   14.878053    ( 0.0000,  0.0000,  0.0000)
  27 Ag     8.976731   -0.000000   17.337351    ( 0.0000,  0.0000,  0.0000)
  28 Ag     4.488366    2.591359    9.999999    ( 0.0000,  0.0000,  0.0000)
  29 Ag     5.984488    3.455145   12.443156    ( 0.0000,  0.0000,  0.0000)
  30 Ag     4.488366    4.315152   14.878053    ( 0.0000,  0.0000,  0.0000)
  31 Ag     7.481256    2.590033   17.332927    ( 0.0000,  0.0000,  0.0000)
  32 Ag     2.992244    5.182718    9.999999    ( 0.0000,  0.0000,  0.0000)
  33 Ag     4.488366    6.046505   12.443156    ( 0.0000,  0.0000,  0.0000)
  34 Ag     2.997503    6.913327   14.879470    ( 0.0000,  0.0000,  0.0000)
  35 Ag     5.983662    5.183941   17.332927    ( 0.0000,  0.0000,  0.0000)
  36 O      4.488366    4.319305   18.195062    ( 0.0000,  0.0000,  0.0000)

Unit cell:
           periodic     x           y           z      points  spacing
  1. axis:    yes    8.976731    0.000000    0.000000    44     0.1767
  2. axis:    yes   -4.488366    7.774077    0.000000    44     0.1767
  3. axis:    no     0.000000    0.000000   27.329469   152     0.1798

  Lengths:   8.976731   8.976731  27.329469
  Angles:   90.000000  90.000000 120.000000

Effective grid spacing dv^(1/3) = 0.1864

     iter     time        total  log10-change:
                         energy  eigst   dens
iter:   1 20:13:36 -5358.683022
iter:   2 20:14:29 -5357.118589  -1.11  -1.51
iter:   3 20:15:22 -5356.383505  -2.00  -1.55
iter:   4 20:16:16 -5354.913838  -1.16  -1.58
iter:   5 20:17:09 -5354.584449  -2.48  -1.92
iter:   6 20:18:02 -5354.698524  -2.17  -1.95
iter:   7 20:18:55 -5354.749168c -2.71  -2.22
iter:   8 20:19:48 -5354.463460c -2.69  -2.36
iter:   9 20:20:41 -5354.409370  -2.76  -2.65
iter:  10 20:21:34 -5354.394515c -3.49  -2.97
iter:  11 20:22:27 -5354.392380c -4.00  -3.06
iter:  12 20:23:21 -5354.385202c -3.89  -3.12
iter:  13 20:24:14 -5354.387361c -4.17  -3.28
iter:  14 20:25:07 -5354.386313c -4.76  -3.39
iter:  15 20:26:00 -5354.386099c -4.78  -3.62
iter:  16 20:26:53 -5354.386126c -5.47  -3.85
iter:  17 20:27:46 -5354.386060c -6.11  -3.88
iter:  18 20:28:39 -5354.386031c -5.84  -3.90
iter:  19 20:29:32 -5354.386101c -6.17  -3.99
iter:  20 20:30:25 -5354.386090c -6.64  -4.09c
iter:  21 20:31:19 -5354.386078c -5.91  -4.17c
iter:  22 20:32:12 -5354.386076c -7.09  -4.47c
iter:  23 20:33:05 -5354.386094c -6.73  -4.52c
iter:  24 20:33:58 -5354.386104c -6.84  -4.76c
iter:  25 20:34:51 -5354.386101c -7.70c -4.92c

Converged after 25 iterations.

Dipole moment: (-4.551285, -7.625956, -0.144630) |e|*Ang

Energy contributions relative to reference atoms: (reference = -5207562.601035)

Kinetic:       +903.085511
Potential:     -878.549505
External:        +0.000000
XC:            -5382.867955
Entropy (-ST):   -0.357376
Local:           +4.124535
--------------------------
Free energy:   -5354.564790
Extrapolated:  -5354.386101

Showing only first 2 kpts
 Kpt  Band  Eigenvalues  Occupancy
  0   307     -5.08127    1.94262
  0   308     -4.87365    1.61873
  0   309     -4.70043    0.85785
  0   310     -4.40459    0.07504

  1   307     -5.37995    1.99702
  1   308     -5.33201    1.99520
  1   309     -5.08928    1.94692
  1   310     -4.79285    1.30857


Fermi level: -4.72906

No gap

Forces in eV/Ang:
  0 Ag    0.00000    0.01013   -0.02083
  1 Ag   -0.00569   -0.01939    0.01456
  2 Ag    0.00000    0.00732    0.01701
  3 Ag    0.03819   -0.01946   -0.08971
  4 Ag    0.02075   -0.01292   -0.03245
  5 Ag    0.00000    0.03897    0.03716
  6 Ag    0.00122    0.03999    0.01352
  7 Ag   -0.19320   -0.11055   -0.06385
  8 Ag   -0.00949    0.00684   -0.01840
  9 Ag    0.02161   -0.00676    0.02732
 10 Ag    0.03722   -0.02807    0.01931
 11 Ag    0.00000    0.04130   -0.07427
 12 Ag   -0.01891    0.00055   -0.03581
 13 Ag    0.00000    0.04229    0.01898
 14 Ag    0.03752   -0.01410    0.02312
 15 Ag   -0.03819   -0.01946   -0.08971
 16 Ag   -0.02075   -0.01292   -0.03245
 17 Ag    0.04644   -0.01960    0.02395
 18 Ag   -0.00122    0.03999    0.01352
 19 Ag    0.00000   -3.34619   -1.25440
 20 Ag    0.00000   -0.01160   -0.03407
 21 Ag   -0.02161   -0.00676    0.02732
 22 Ag    0.00000   -0.00870    0.00834
 23 Ag   -2.91172    1.68593   -1.25328
 24 Ag    0.01891    0.00055   -0.03581
 25 Ag    0.00569   -0.01939    0.01456
 26 Ag   -0.03752   -0.01410    0.02312
 27 Ag    0.00000    0.21870   -0.06178
 28 Ag    0.00000    0.00972   -0.00850
 29 Ag   -0.04644   -0.01960    0.02395
 30 Ag    0.00000   -0.00200   -0.30631
 31 Ag    0.19320   -0.11055   -0.06385
 32 Ag    0.00949    0.00684   -0.01840
 33 Ag    0.00000    0.01812    0.00454
 34 Ag   -0.03722   -0.02807    0.01931
 35 Ag    2.91172    1.68593   -1.25328
 36 O     0.00000    0.00459    4.42290

      Step     Time          Energy         fmax
BFGS:    0 20:35:17    -5354.386101        4.4229
System changes: positions 

Initializing position-dependent things.

Density initialized from wave functions
                                                  
                                                  
                                                  
                                                  
                                                  
                            O                     
                  Ag     Ag      Ag               
                                                  
            Ag     AAg    AAg     Ag              
                      Ag     Ag     Ag            
              Ag     Ag     Ag                    
               AAg    AAg    AAg                  
                                                  
                 Ag     Ag     Ag                 
                                                  
           Ag     AAg    AAg     Ag               
                                                  
            Ag      Ag     Ag                     
              Ag      Ag     Ag                   
                                                  
                                                  
                                                  
                                                  

Positions:
   0 Ag    -0.000000    0.000000    9.999999    ( 0.0000,  0.0000,  0.0000)
   1 Ag     1.496122    0.863786   12.443156    ( 0.0000,  0.0000,  0.0000)
   2 Ag    -0.000000    1.721605   14.879713    ( 0.0000,  0.0000,  0.0000)
   3 Ag     2.991317   -0.000174   17.331645    ( 0.0000,  0.0000,  0.0000)
   4 Ag    -1.496122    2.591359    9.999999    ( 0.0000,  0.0000,  0.0000)
   5 Ag     0.000000    3.455145   12.443156    ( 0.0000,  0.0000,  0.0000)
   6 Ag    -1.490383    4.322806   14.880749    ( 0.0000,  0.0000,  0.0000)
   7 Ag     1.492716    2.588453   17.332015    ( 0.0000,  0.0000,  0.0000)
   8 Ag    -2.992244    5.182718    9.999999    ( 0.0000,  0.0000,  0.0000)
   9 Ag    -1.496122    6.046505   12.443156    ( 0.0000,  0.0000,  0.0000)
  10 Ag    -2.996971    6.912926   14.879745    ( 0.0000,  0.0000,  0.0000)
  11 Ag     0.000000    5.183308   17.331925    ( 0.0000,  0.0000,  0.0000)
  12 Ag     2.992244    0.000000    9.999999    ( 0.0000,  0.0000,  0.0000)
  13 Ag     4.488366    0.863786   12.443156    ( 0.0000,  0.0000,  0.0000)
  14 Ag     2.996053    1.729261   14.878383    ( 0.0000,  0.0000,  0.0000)
  15 Ag     5.985414   -0.000174   17.331645    ( 0.0000,  0.0000,  0.0000)
  16 Ag     1.496122    2.591359    9.999999    ( 0.0000,  0.0000,  0.0000)
  17 Ag     2.992244    3.455145   12.443156    ( 0.0000,  0.0000,  0.0000)
  18 Ag     1.490383    4.322806   14.880749    ( 0.0000,  0.0000,  0.0000)
  19 Ag     4.488366    2.543556   17.313168    ( 0.0000,  0.0000,  0.0000)
  20 Ag     0.000000    5.182718    9.999999    ( 0.0000,  0.0000,  0.0000)
  21 Ag     1.496122    6.046505   12.443156    ( 0.0000,  0.0000,  0.0000)
  22 Ag     0.000000    6.903561   14.880675    ( 0.0000,  0.0000,  0.0000)
  23 Ag     2.951473    5.208026   17.315023    ( 0.0000,  0.0000,  0.0000)
  24 Ag     5.984488    0.000000    9.999999    ( 0.0000,  0.0000,  0.0000)
  25 Ag     7.480609    0.863786   12.443156    ( 0.0000,  0.0000,  0.0000)
  26 Ag     5.980678    1.729261   14.878383    ( 0.0000,  0.0000,  0.0000)
  27 Ag     8.976731    0.003124   17.336469    ( 0.0000,  0.0000,  0.0000)
  28 Ag     4.488366    2.591359    9.999999    ( 0.0000,  0.0000,  0.0000)
  29 Ag     5.984488    3.455145   12.443156    ( 0.0000,  0.0000,  0.0000)
  30 Ag     4.488366    4.315124   14.873677    ( 0.0000,  0.0000,  0.0000)
  31 Ag     7.484016    2.588453   17.332015    ( 0.0000,  0.0000,  0.0000)
  32 Ag     2.992244    5.182718    9.999999    ( 0.0000,  0.0000,  0.0000)
  33 Ag     4.488366    6.046505   12.443156    ( 0.0000,  0.0000,  0.0000)
  34 Ag     2.996971    6.912926   14.879745    ( 0.0000,  0.0000,  0.0000)
  35 Ag     6.025258    5.208026   17.315023    ( 0.0000,  0.0000,  0.0000)
  36 O      4.488366    4.319371   18.258246    ( 0.0000,  0.0000,  0.0000)

Unit cell:
           periodic     x           y           z      points  spacing
  1. axis:    yes    8.976731    0.000000    0.000000    44     0.1767
  2. axis:    yes   -4.488366    7.774077    0.000000    44     0.1767
  3. axis:    no     0.000000    0.000000   27.329469   152     0.1798

  Lengths:   8.976731   8.976731  27.329469
  Angles:   90.000000  90.000000 120.000000

Effective grid spacing dv^(1/3) = 0.1864

     iter     time        total  log10-change:
                         energy  eigst   dens
iter:   1 20:37:17 -5355.400238  -1.60
iter:   2 20:38:11 -5355.201804  -2.73  -2.65
iter:   3 20:39:05 -5355.041406  -2.75  -2.74
iter:   4 20:39:59 -5355.037786c -3.94  -3.11
iter:   5 20:40:53 -5355.024832c -3.61  -3.21
iter:   6 20:41:47 -5355.022277c -3.92  -3.31
iter:   7 20:42:41 -5355.020732c -4.49  -3.46
iter:   8 20:43:35 -5355.020090c -4.90  -3.57
iter:   9 20:44:29 -5355.019838c -5.02  -3.67
iter:  10 20:45:23 -5355.019836c -5.16  -3.92
iter:  11 20:46:17 -5355.019764c -5.98  -3.97
iter:  12 20:47:11 -5355.019634c -5.75  -4.05c
iter:  13 20:48:05 -5355.019583c -6.08  -4.21c
iter:  14 20:48:59 -5355.019549c -6.05  -4.39c
iter:  15 20:49:54 -5355.019554c -6.61  -4.60c
iter:  16 20:50:47 -5355.019553c -7.12  -4.69c
iter:  17 20:51:42 -5355.019559c -7.42c -4.83c

Converged after 17 iterations.

Dipole moment: (-6.973275, -7.760295, -0.201740) |e|*Ang

Energy contributions relative to reference atoms: (reference = -5207562.601035)

Kinetic:       +893.556685
Potential:     -870.629459
External:        +0.000000
XC:            -5381.940751
Entropy (-ST):   -0.354855
Local:           +4.171394
--------------------------
Free energy:   -5355.196987
Extrapolated:  -5355.019559

Showing only first 2 kpts
 Kpt  Band  Eigenvalues  Occupancy
  0   307     -5.12223    1.94146
  0   308     -4.91924    1.62659
  0   309     -4.74488    0.86483
  0   310     -4.44962    0.07650

  1   307     -5.42532    1.99709
  1   308     -5.38658    1.99572
  1   309     -5.13409    1.94784
  1   310     -4.83438    1.30179


Fermi level: -4.77208

No gap

Forces in eV/Ang:
  0 Ag    0.00000    0.00980   -0.01671
  1 Ag   -0.00559   -0.01941    0.01355
  2 Ag    0.00000    0.00668    0.00918
  3 Ag    0.02585   -0.01210   -0.08742
  4 Ag    0.02041   -0.01271   -0.02857
  5 Ag    0.00000    0.03903    0.03605
  6 Ag    0.00414    0.02155   -0.00745
  7 Ag   -0.15244   -0.08811   -0.06205
  8 Ag   -0.00926    0.00685   -0.01642
  9 Ag    0.02276   -0.00607    0.02444
 10 Ag    0.02267   -0.01519   -0.00100
 11 Ag    0.00000    0.03002   -0.07290
 12 Ag   -0.01890    0.00037   -0.03139
 13 Ag    0.00000    0.04113    0.01648
 14 Ag    0.01892   -0.01011    0.00091
 15 Ag   -0.02585   -0.01210   -0.08742
 16 Ag   -0.02041   -0.01271   -0.02857
 17 Ag    0.04215   -0.02235    0.01955
 18 Ag   -0.00414    0.02155   -0.00745
 19 Ag    0.00000   -1.79703   -0.62037
 20 Ag    0.00000   -0.01142   -0.02969
 21 Ag   -0.02276   -0.00607    0.02444
 22 Ag    0.00000   -0.00777    0.00502
 23 Ag   -1.55838    0.85061   -0.63435
 24 Ag    0.01890    0.00037   -0.03139
 25 Ag    0.00559   -0.01941    0.01355
 26 Ag   -0.01892   -0.01011    0.00091
 27 Ag    0.00000    0.18878   -0.05855
 28 Ag    0.00000    0.00971   -0.00660
 29 Ag   -0.04215   -0.02235    0.01955
 30 Ag    0.00000   -0.00404   -0.19850
 31 Ag    0.15244   -0.08811   -0.06205
 32 Ag    0.00926    0.00685   -0.01642
 33 Ag    0.00000    0.02333    0.00012
 34 Ag   -0.02267   -0.01519   -0.00100
 35 Ag    1.55838    0.85061   -0.63435
 36 O     0.00000    0.01093    2.52608

BFGS:    1 20:52:08    -5355.019559        2.5261
System changes: positions 

Initializing position-dependent things.

Density initialized from wave functions
                                                  
                                                  
                                                  
                                                  
                                                  
                            O                     
                  Ag     Ag      Ag               
                                                  
            Ag     AAg    AAg     Ag              
                      Ag     Ag     Ag            
              Ag     Ag     Ag                    
               AAg    AAg    AAg                  
                                                  
                 Ag     Ag     Ag                 
                                                  
           Ag     AAg    AAg     Ag               
                                                  
            Ag      Ag     Ag                     
              Ag      Ag     Ag                   
                                                  
                                                  
                                                  
                                                  

Positions:
   0 Ag    -0.000000    0.000000    9.999999    ( 0.0000,  0.0000,  0.0000)
   1 Ag     1.496122    0.863786   12.443156    ( 0.0000,  0.0000,  0.0000)
   2 Ag    -0.000000    1.721814   14.880001    ( 0.0000,  0.0000,  0.0000)
   3 Ag     2.992128   -0.000554   17.328907    ( 0.0000,  0.0000,  0.0000)
   4 Ag    -1.496122    2.591359    9.999999    ( 0.0000,  0.0000,  0.0000)
   5 Ag     0.000000    3.455145   12.443156    ( 0.0000,  0.0000,  0.0000)
   6 Ag    -1.490254    4.323482   14.880516    ( 0.0000,  0.0000,  0.0000)
   7 Ag     1.487937    2.585692   17.330071    ( 0.0000,  0.0000,  0.0000)
   8 Ag    -2.992244    5.182718    9.999999    ( 0.0000,  0.0000,  0.0000)
   9 Ag    -1.496122    6.046505   12.443156    ( 0.0000,  0.0000,  0.0000)
  10 Ag    -2.996260    6.912450   14.879715    ( 0.0000,  0.0000,  0.0000)
  11 Ag     0.000000    5.184249   17.329641    ( 0.0000,  0.0000,  0.0000)
  12 Ag     2.992244    0.000000    9.999999    ( 0.0000,  0.0000,  0.0000)
  13 Ag     4.488366    0.863786   12.443156    ( 0.0000,  0.0000,  0.0000)
  14 Ag     2.996647    1.728944   14.878413    ( 0.0000,  0.0000,  0.0000)
  15 Ag     5.984603   -0.000554   17.328907    ( 0.0000,  0.0000,  0.0000)
  16 Ag     1.496122    2.591359    9.999999    ( 0.0000,  0.0000,  0.0000)
  17 Ag     2.992244    3.455145   12.443156    ( 0.0000,  0.0000,  0.0000)
  18 Ag     1.490254    4.323482   14.880516    ( 0.0000,  0.0000,  0.0000)
  19 Ag     4.488366    2.487165   17.293695    ( 0.0000,  0.0000,  0.0000)
  20 Ag     0.000000    5.182718    9.999999    ( 0.0000,  0.0000,  0.0000)
  21 Ag     1.496122    6.046505   12.443156    ( 0.0000,  0.0000,  0.0000)
  22 Ag     0.000000    6.903317   14.880832    ( 0.0000,  0.0000,  0.0000)
  23 Ag     2.902570    5.234725   17.295112    ( 0.0000,  0.0000,  0.0000)
  24 Ag     5.984488    0.000000    9.999999    ( 0.0000,  0.0000,  0.0000)
  25 Ag     7.480609    0.863786   12.443156    ( 0.0000,  0.0000,  0.0000)
  26 Ag     5.980084    1.728944   14.878413    ( 0.0000,  0.0000,  0.0000)
  27 Ag     8.976731    0.009040   17.334634    ( 0.0000,  0.0000,  0.0000)
  28 Ag     4.488366    2.591359    9.999999    ( 0.0000,  0.0000,  0.0000)
  29 Ag     5.984488    3.455145   12.443156    ( 0.0000,  0.0000,  0.0000)
  30 Ag     4.488366    4.314997   14.867452    ( 0.0000,  0.0000,  0.0000)
  31 Ag     7.488794    2.585692   17.330071    ( 0.0000,  0.0000,  0.0000)
  32 Ag     2.992244    5.182718    9.999999    ( 0.0000,  0.0000,  0.0000)
  33 Ag     4.488366    6.046505   12.443156    ( 0.0000,  0.0000,  0.0000)
  34 Ag     2.996260    6.912450   14.879715    ( 0.0000,  0.0000,  0.0000)
  35 Ag     6.074161    5.234725   17.295112    ( 0.0000,  0.0000,  0.0000)
  36 O      4.488366    4.319713   18.337498    ( 0.0000,  0.0000,  0.0000)

Unit cell:
           periodic     x           y           z      points  spacing
  1. axis:    yes    8.976731    0.000000    0.000000    44     0.1767
  2. axis:    yes   -4.488366    7.774077    0.000000    44     0.1767
  3. axis:    no     0.000000    0.000000   27.329469   152     0.1798

  Lengths:   8.976731   8.976731  27.329469
  Angles:   90.000000  90.000000 120.000000

Effective grid spacing dv^(1/3) = 0.1864

     iter     time        total  log10-change:
                         energy  eigst   dens
iter:   1 20:54:06 -5355.857737  -1.49
iter:   2 20:55:00 -5355.596638  -2.61  -2.59
iter:   3 20:55:54 -5355.392324  -2.65  -2.67
iter:   4 20:56:48 -5355.389304c -3.83  -3.03
iter:   5 20:57:42 -5355.367783c -3.38  -3.11
iter:   6 20:58:36 -5355.369296c -3.70  -3.25
iter:   7 20:59:29 -5355.361903c -4.20  -3.29
iter:   8 21:00:24 -5355.360888c -4.66  -3.49
iter:   9 21:01:18 -5355.360767c -4.69  -3.57
iter:  10 21:02:11 -5355.360637c -5.08  -3.87
iter:  11 21:03:06 -5355.360564c -5.85  -3.92
iter:  12 21:04:00 -5355.360407c -5.68  -3.96
iter:  13 21:04:54 -5355.360331c -5.89  -4.09c
iter:  14 21:05:48 -5355.360284c -6.11  -4.21c
iter:  15 21:06:42 -5355.360263c -6.13  -4.31c
iter:  16 21:07:35 -5355.360250c -6.71  -4.51c
iter:  17 21:08:29 -5355.360257c -7.46c -4.77c

Converged after 17 iterations.

Dipole moment: (-9.555014, -8.006612, -0.270274) |e|*Ang

Energy contributions relative to reference atoms: (reference = -5207562.601035)

Kinetic:       +886.579615
Potential:     -864.829972
External:        +0.000000
XC:            -5381.128172
Entropy (-ST):   -0.352453
Local:           +4.194498
--------------------------
Free energy:   -5355.536483
Extrapolated:  -5355.360257

Showing only first 2 kpts
 Kpt  Band  Eigenvalues  Occupancy
  0   307     -5.17272    1.94042
  0   308     -4.97512    1.63735
  0   309     -4.79895    0.87351
  0   310     -4.50526    0.07900

  1   307     -5.47965    1.99715
  1   308     -5.44757    1.99608
  1   309     -5.18534    1.94730
  1   310     -4.88319    1.28584


Fermi level: -4.82438

No gap

Forces in eV/Ang:
  0 Ag    0.00000    0.00952   -0.01663
  1 Ag   -0.00524   -0.01957    0.01243
  2 Ag    0.00000    0.00512   -0.00260
  3 Ag    0.00933   -0.00548   -0.07446
  4 Ag    0.02004   -0.01239   -0.02874
  5 Ag    0.00000    0.03936    0.03447
  6 Ag    0.00909   -0.00074   -0.03572
  7 Ag   -0.09483   -0.05891   -0.05160
  8 Ag   -0.00842    0.00707   -0.01710
  9 Ag    0.02280   -0.00597    0.02096
 10 Ag    0.00523    0.00160   -0.02804
 11 Ag    0.00000    0.01716   -0.06267
 12 Ag   -0.01826   -0.00001   -0.03108
 13 Ag    0.00000    0.04134    0.01362
 14 Ag   -0.00366   -0.00651   -0.02892
 15 Ag   -0.00933   -0.00548   -0.07446
 16 Ag   -0.02004   -0.01239   -0.02874
 17 Ag    0.03873   -0.02469    0.01460
 18 Ag   -0.00909   -0.00074   -0.03572
 19 Ag    0.00000   -0.45891   -0.10041
 20 Ag    0.00000   -0.01074   -0.02951
 21 Ag   -0.02280   -0.00597    0.02096
 22 Ag    0.00000   -0.00599   -0.00002
 23 Ag   -0.42487    0.21926   -0.07145
 24 Ag    0.01826   -0.00001   -0.03108
 25 Ag    0.00524   -0.01957    0.01243
 26 Ag    0.00366   -0.00651   -0.02892
 27 Ag    0.00000    0.14718   -0.04615
 28 Ag    0.00000    0.00905   -0.00733
 29 Ag   -0.03873   -0.02469    0.01460
 30 Ag    0.00000   -0.00717   -0.08626
 31 Ag    0.09483   -0.05891   -0.05160
 32 Ag    0.00842    0.00707   -0.01710
 33 Ag    0.00000    0.02763   -0.00467
 34 Ag   -0.00523    0.00160   -0.02804
 35 Ag    0.42487    0.21926   -0.07145
 36 O     0.00000   -0.01064    0.90158

BFGS:    2 21:08:55    -5355.360257        0.9016
System changes: positions 

Initializing position-dependent things.

Density initialized from wave functions
                                                  
                                                  
                                                  
                                                  
                                                  
                            O                     
                  Ag     Ag      Ag               
                                                  
            Ag     AAg    AAg     Ag              
                      Ag     Ag     Ag            
              Ag     Ag     Ag                    
               AAg    AAg    AAg                  
                                                  
                 Ag     Ag     Ag                 
                                                  
           Ag     AAg    AAg     Ag               
                                                  
            Ag      Ag     Ag                     
              Ag      Ag     Ag                   
                                                  
                                                  
                                                  
                                                  

Positions:
   0 Ag    -0.000000    0.000000    9.999999    ( 0.0000,  0.0000,  0.0000)
   1 Ag     1.496122    0.863786   12.443156    ( 0.0000,  0.0000,  0.0000)
   2 Ag    -0.000000    1.721965   14.880014    ( 0.0000,  0.0000,  0.0000)
   3 Ag     2.992503   -0.000752   17.326773    ( 0.0000,  0.0000,  0.0000)
   4 Ag    -1.496122    2.591359    9.999999    ( 0.0000,  0.0000,  0.0000)
   5 Ag     0.000000    3.455145   12.443156    ( 0.0000,  0.0000,  0.0000)
   6 Ag    -1.490041    4.323624   14.879743    ( 0.0000,  0.0000,  0.0000)
   7 Ag     1.484922    2.583866   17.328582    ( 0.0000,  0.0000,  0.0000)
   8 Ag    -2.992244    5.182718    9.999999    ( 0.0000,  0.0000,  0.0000)
   9 Ag    -1.496122    6.046505   12.443156    ( 0.0000,  0.0000,  0.0000)
  10 Ag    -2.995990    6.912372   14.879143    ( 0.0000,  0.0000,  0.0000)
  11 Ag     0.000000    5.184813   17.327851    ( 0.0000,  0.0000,  0.0000)
  12 Ag     2.992244    0.000000    9.999999    ( 0.0000,  0.0000,  0.0000)
  13 Ag     4.488366    0.863786   12.443156    ( 0.0000,  0.0000,  0.0000)
  14 Ag     2.996711    1.728740   14.877837    ( 0.0000,  0.0000,  0.0000)
  15 Ag     5.984228   -0.000752   17.326773    ( 0.0000,  0.0000,  0.0000)
  16 Ag     1.496122    2.591359    9.999999    ( 0.0000,  0.0000,  0.0000)
  17 Ag     2.992244    3.455145   12.443156    ( 0.0000,  0.0000,  0.0000)
  18 Ag     1.490041    4.323624   14.879743    ( 0.0000,  0.0000,  0.0000)
  19 Ag     4.488366    2.464856   17.287158    ( 0.0000,  0.0000,  0.0000)
  20 Ag     0.000000    5.182718    9.999999    ( 0.0000,  0.0000,  0.0000)
  21 Ag     1.496122    6.046505   12.443156    ( 0.0000,  0.0000,  0.0000)
  22 Ag     0.000000    6.903140   14.880868    ( 0.0000,  0.0000,  0.0000)
  23 Ag     2.882679    5.245334   17.289062    ( 0.0000,  0.0000,  0.0000)
  24 Ag     5.984488    0.000000    9.999999    ( 0.0000,  0.0000,  0.0000)
  25 Ag     7.480609    0.863786   12.443156    ( 0.0000,  0.0000,  0.0000)
  26 Ag     5.980021    1.728740   14.877837    ( 0.0000,  0.0000,  0.0000)
  27 Ag     8.976731    0.013374   17.333281    ( 0.0000,  0.0000,  0.0000)
  28 Ag     4.488366    2.591359    9.999999    ( 0.0000,  0.0000,  0.0000)
  29 Ag     5.984488    3.455145   12.443156    ( 0.0000,  0.0000,  0.0000)
  30 Ag     4.488366    4.314823   14.864274    ( 0.0000,  0.0000,  0.0000)
  31 Ag     7.491809    2.583866   17.328582    ( 0.0000,  0.0000,  0.0000)
  32 Ag     2.992244    5.182718    9.999999    ( 0.0000,  0.0000,  0.0000)
  33 Ag     4.488366    6.046505   12.443156    ( 0.0000,  0.0000,  0.0000)
  34 Ag     2.995990    6.912372   14.879143    ( 0.0000,  0.0000,  0.0000)
  35 Ag     6.094052    5.245334   17.289062    ( 0.0000,  0.0000,  0.0000)
  36 O      4.488366    4.319576   18.374020    ( 0.0000,  0.0000,  0.0000)

Unit cell:
           periodic     x           y           z      points  spacing
  1. axis:    yes    8.976731    0.000000    0.000000    44     0.1767
  2. axis:    yes   -4.488366    7.774077    0.000000    44     0.1767
  3. axis:    no     0.000000    0.000000   27.329469   152     0.1798

  Lengths:   8.976731   8.976731  27.329469
  Angles:   90.000000  90.000000 120.000000

Effective grid spacing dv^(1/3) = 0.1864

     iter     time        total  log10-change:
                         energy  eigst   dens
iter:   1 21:10:55 -5355.502873  -2.24
iter:   2 21:11:50 -5355.442702  -3.33  -2.91
iter:   3 21:12:44 -5355.412291c -3.59  -3.02
iter:   4 21:13:38 -5355.408320c -4.21  -3.35
iter:   5 21:14:32 -5355.405989c -4.06  -3.48
iter:   6 21:15:27 -5355.406335c -4.21  -3.58
iter:   7 21:16:21 -5355.403992c -4.68  -3.56
iter:   8 21:17:15 -5355.403876c -5.34  -3.83
iter:   9 21:18:10 -5355.403846c -5.41  -3.94
iter:  10 21:19:04 -5355.403844c -5.94  -4.29c
iter:  11 21:19:58 -5355.403803c -5.96  -4.29c
iter:  12 21:20:53 -5355.403787c -6.64  -4.56c
iter:  13 21:21:47 -5355.403766c -7.10  -4.57c
iter:  14 21:22:42 -5355.403787c -6.68  -4.72c
iter:  15 21:23:36 -5355.403780c -7.46c -5.01c

Converged after 15 iterations.

Dipole moment: (-10.519372, -8.180757, -0.300248) |e|*Ang

Energy contributions relative to reference atoms: (reference = -5207562.601035)

Kinetic:       +884.581460
Potential:     -863.157179
External:        +0.000000
XC:            -5380.854240
Entropy (-ST):   -0.351656
Local:           +4.202007
--------------------------
Free energy:   -5355.579608
Extrapolated:  -5355.403780

Showing only first 2 kpts
 Kpt  Band  Eigenvalues  Occupancy
  0   307     -5.19461    1.93986
  0   308     -4.99956    1.64205
  0   309     -4.82243    0.87666
  0   310     -4.52996    0.08042

  1   307     -5.50400    1.99719
  1   308     -5.47164    1.99612
  1   309     -5.20678    1.94657
  1   310     -4.90448    1.27868


Fermi level: -4.84723

No gap

Forces in eV/Ang:
  0 Ag    0.00000    0.00902   -0.01624
  1 Ag   -0.00383   -0.01992    0.01179
  2 Ag    0.00000    0.00460   -0.01231
  3 Ag    0.00693   -0.00524   -0.06280
  4 Ag    0.01952   -0.01203   -0.02816
  5 Ag    0.00000    0.04081    0.03357
  6 Ag    0.01704   -0.00554   -0.04615
  7 Ag   -0.06132   -0.04217   -0.04132
  8 Ag   -0.00837    0.00695   -0.01688
  9 Ag    0.02736   -0.00361    0.02048
 10 Ag    0.00457    0.01135   -0.03899
 11 Ag    0.00000    0.01701   -0.05345
 12 Ag   -0.01768   -0.00027   -0.02972
 13 Ag    0.00000    0.03654    0.01347
 14 Ag   -0.01149   -0.01198   -0.04104
 15 Ag   -0.00693   -0.00524   -0.06280
 16 Ag   -0.01952   -0.01203   -0.02816
 17 Ag    0.03541   -0.02677    0.00657
 18 Ag   -0.01704   -0.00554   -0.04615
 19 Ag    0.00000   -0.07104    0.07888
 20 Ag    0.00000   -0.01019   -0.02802
 21 Ag   -0.02736   -0.00361    0.02048
 22 Ag    0.00000   -0.00501   -0.00648
 23 Ag   -0.03703    0.00976    0.10510
 24 Ag    0.01768   -0.00027   -0.02972
 25 Ag    0.00383   -0.01992    0.01179
 26 Ag    0.01149   -0.01198   -0.04104
 27 Ag    0.00000    0.12182   -0.03416
 28 Ag    0.00000    0.00909   -0.00705
 29 Ag   -0.03541   -0.02677    0.00657
 30 Ag    0.00000   -0.00807   -0.02741
 31 Ag    0.06132   -0.04217   -0.04132
 32 Ag    0.00837    0.00695   -0.01688
 33 Ag    0.00000    0.03112   -0.01260
 34 Ag   -0.00457    0.01135   -0.03899
 35 Ag    0.03703    0.00976    0.10510
 36 O     0.00000    0.01932    0.40722

BFGS:    3 21:24:02    -5355.403780        0.4077
System changes: positions 

Initializing position-dependent things.

Density initialized from wave functions
                                                  
                                                  
                                                  
                                                  
                                                  
                            O                     
                  Ag     Ag      Ag               
                                                  
            Ag     AAg    AAg     Ag              
                      Ag     Ag     Ag            
              Ag     Ag     Ag                    
               AAg    AAg    AAg                  
                                                  
                 Ag     Ag     Ag                 
                                                  
          Ag      AAg    AAg     Ag               
                                                  
            Ag      Ag     Ag                     
              Ag      Ag     Ag                   
                                                  
                                                  
                                                  
                                                  

Positions:
   0 Ag    -0.000000    0.000000    9.999999    ( 0.0000,  0.0000,  0.0000)
   1 Ag     1.496122    0.863786   12.443156    ( 0.0000,  0.0000,  0.0000)
   2 Ag    -0.000000    1.722087   14.879794    ( 0.0000,  0.0000,  0.0000)
   3 Ag     2.992735   -0.000903   17.325107    ( 0.0000,  0.0000,  0.0000)
   4 Ag    -1.496122    2.591359    9.999999    ( 0.0000,  0.0000,  0.0000)
   5 Ag     0.000000    3.455145   12.443156    ( 0.0000,  0.0000,  0.0000)
   6 Ag    -1.489673    4.323574   14.878728    ( 0.0000,  0.0000,  0.0000)
   7 Ag     1.483047    2.582640   17.327466    ( 0.0000,  0.0000,  0.0000)
   8 Ag    -2.992244    5.182718    9.999999    ( 0.0000,  0.0000,  0.0000)
   9 Ag    -1.496122    6.046505   12.443156    ( 0.0000,  0.0000,  0.0000)
  10 Ag    -2.995824    6.912554   14.878306    ( 0.0000,  0.0000,  0.0000)
  11 Ag     0.000000    5.185274   17.326438    ( 0.0000,  0.0000,  0.0000)
  12 Ag     2.992244    0.000000    9.999999    ( 0.0000,  0.0000,  0.0000)
  13 Ag     4.488366    0.863786   12.443156    ( 0.0000,  0.0000,  0.0000)
  14 Ag     2.996530    1.728461   14.876963    ( 0.0000,  0.0000,  0.0000)
  15 Ag     5.983996   -0.000903   17.325107    ( 0.0000,  0.0000,  0.0000)
  16 Ag     1.496122    2.591359    9.999999    ( 0.0000,  0.0000,  0.0000)
  17 Ag     2.992244    3.455145   12.443156    ( 0.0000,  0.0000,  0.0000)
  18 Ag     1.489673    4.323574   14.878728    ( 0.0000,  0.0000,  0.0000)
  19 Ag     4.488366    2.457165   17.286666    ( 0.0000,  0.0000,  0.0000)
  20 Ag     0.000000    5.182718    9.999999    ( 0.0000,  0.0000,  0.0000)
  21 Ag     1.496122    6.046505   12.443156    ( 0.0000,  0.0000,  0.0000)
  22 Ag     0.000000    6.903004   14.880756    ( 0.0000,  0.0000,  0.0000)
  23 Ag     2.876412    5.248524   17.289123    ( 0.0000,  0.0000,  0.0000)
  24 Ag     5.984488    0.000000    9.999999    ( 0.0000,  0.0000,  0.0000)
  25 Ag     7.480609    0.863786   12.443156    ( 0.0000,  0.0000,  0.0000)
  26 Ag     5.980201    1.728461   14.876963    ( 0.0000,  0.0000,  0.0000)
  27 Ag     8.976731    0.016669   17.332328    ( 0.0000,  0.0000,  0.0000)
  28 Ag     4.488366    2.591359    9.999999    ( 0.0000,  0.0000,  0.0000)
  29 Ag     5.984488    3.455145   12.443156    ( 0.0000,  0.0000,  0.0000)
  30 Ag     4.488366    4.314636   14.862950    ( 0.0000,  0.0000,  0.0000)
  31 Ag     7.493685    2.582640   17.327466    ( 0.0000,  0.0000,  0.0000)
  32 Ag     2.992244    5.182718    9.999999    ( 0.0000,  0.0000,  0.0000)
  33 Ag     4.488366    6.046505   12.443156    ( 0.0000,  0.0000,  0.0000)
  34 Ag     2.995824    6.912554   14.878306    ( 0.0000,  0.0000,  0.0000)
  35 Ag     6.100319    5.248524   17.289123    ( 0.0000,  0.0000,  0.0000)
  36 O      4.488366    4.319951   18.391495    ( 0.0000,  0.0000,  0.0000)

Unit cell:
           periodic     x           y           z      points  spacing
  1. axis:    yes    8.976731    0.000000    0.000000    44     0.1767
  2. axis:    yes   -4.488366    7.774077    0.000000    44     0.1767
  3. axis:    no     0.000000    0.000000   27.329469   152     0.1798

  Lengths:   8.976731   8.976731  27.329469
  Angles:   90.000000  90.000000 120.000000

Effective grid spacing dv^(1/3) = 0.1864

     iter     time        total  log10-change:
                         energy  eigst   dens
iter:   1 21:26:02 -5355.433508  -3.06
iter:   2 21:26:56 -5355.416014  -4.07  -3.17
iter:   3 21:27:51 -5355.411962c -4.52  -3.36
iter:   4 21:28:45 -5355.410459c -4.89  -3.67
iter:   5 21:29:39 -5355.410076c -4.79  -3.85
iter:   6 21:30:33 -5355.409780c -5.10  -4.01c
iter:   7 21:31:27 -5355.409692c -5.66  -4.05c
iter:   8 21:32:21 -5355.409728c -6.01  -4.24c
iter:   9 21:33:15 -5355.409712c -6.31  -4.40c
iter:  10 21:34:10 -5355.409713c -6.72  -4.69c
iter:  11 21:35:04 -5355.409707c -7.42c -4.69c

Converged after 11 iterations.

Dipole moment: (-10.833590, -8.302977, -0.312254) |e|*Ang

Energy contributions relative to reference atoms: (reference = -5207562.601035)

Kinetic:       +883.792998
Potential:     -862.481787
External:        +0.000000
XC:            -5380.742051
Entropy (-ST):   -0.351370
Local:           +4.196819
--------------------------
Free energy:   -5355.585392
Extrapolated:  -5355.409707

Showing only first 2 kpts
 Kpt  Band  Eigenvalues  Occupancy
  0   307     -5.20363    1.93954
  0   308     -5.00971    1.64371
  0   309     -4.83195    0.87634
  0   310     -4.54046    0.08113

  1   307     -5.51464    1.99722
  1   308     -5.48142    1.99613
  1   309     -5.21588    1.94632
  1   310     -4.91377    1.27733


Fermi level: -4.85681

No gap

Forces in eV/Ang:
  0 Ag    0.00000    0.00746   -0.01882
  1 Ag   -0.00494   -0.01951    0.01199
  2 Ag    0.00000    0.00346   -0.01606
  3 Ag    0.00575   -0.00686   -0.05719
  4 Ag    0.01815   -0.01155   -0.03079
  5 Ag    0.00000    0.03912    0.03331
  6 Ag    0.01753   -0.00732   -0.04545
  7 Ag   -0.04437   -0.03368   -0.03705
  8 Ag   -0.01127    0.00559   -0.01812
  9 Ag    0.02417   -0.00475    0.01983
 10 Ag    0.00279    0.01426   -0.04026
 11 Ag    0.00000    0.01799   -0.04961
 12 Ag   -0.01923    0.00059   -0.03373
 13 Ag    0.00000    0.03971    0.01316
 14 Ag   -0.01300   -0.01287   -0.04266
 15 Ag   -0.00575   -0.00686   -0.05719
 16 Ag   -0.01815   -0.01155   -0.03079
 17 Ag    0.03866   -0.02519    0.00301
 18 Ag   -0.01753   -0.00732   -0.04545
 19 Ag    0.00000    0.07087    0.13974
 20 Ag    0.00000   -0.01161   -0.03214
 21 Ag   -0.02417   -0.00475    0.01983
 22 Ag    0.00000   -0.00398   -0.00767
 23 Ag    0.08468   -0.05613    0.15577
 24 Ag    0.01923    0.00059   -0.03373
 25 Ag    0.00494   -0.01951    0.01199
 26 Ag    0.01300   -0.01287   -0.04266
 27 Ag    0.00000    0.10788   -0.02841
 28 Ag    0.00000    0.01215   -0.00835
 29 Ag   -0.03866   -0.02519    0.00301
 30 Ag    0.00000   -0.00762   -0.00255
 31 Ag    0.04437   -0.03368   -0.03705
 32 Ag    0.01127    0.00559   -0.01812
 33 Ag    0.00000    0.02781   -0.01592
 34 Ag   -0.00279    0.01426   -0.04026
 35 Ag   -0.08468   -0.05613    0.15577
 36 O     0.00000    0.02551    0.15014

BFGS:    4 21:35:30    -5355.409707        0.1860
System changes: positions 

Initializing position-dependent things.

Density initialized from wave functions
                                                  
                                                  
                                                  
                                                  
                                                  
                            O                     
                  Ag     Ag      Ag               
                                                  
            Ag     AAg    AAg     Ag              
                      Ag     Ag     Ag            
              Ag     Ag     Ag                    
               AAg    AAg    AAg                  
                                                  
                 Ag     Ag     Ag                 
                                                  
          Ag      AAg    AAg     Ag               
                                                  
            Ag      Ag     Ag                     
              Ag      Ag     Ag                   
                                                  
                                                  
                                                  
                                                  

Positions:
   0 Ag    -0.000000    0.000000    9.999999    ( 0.0000,  0.0000,  0.0000)
   1 Ag     1.496122    0.863786   12.443156    ( 0.0000,  0.0000,  0.0000)
   2 Ag    -0.000000    1.722183   14.879447    ( 0.0000,  0.0000,  0.0000)
   3 Ag     2.992903   -0.001068   17.323614    ( 0.0000,  0.0000,  0.0000)
   4 Ag    -1.496122    2.591359    9.999999    ( 0.0000,  0.0000,  0.0000)
   5 Ag     0.000000    3.455145   12.443156    ( 0.0000,  0.0000,  0.0000)
   6 Ag    -1.489259    4.323429   14.877631    ( 0.0000,  0.0000,  0.0000)
   7 Ag     1.481719    2.581690   17.326487    ( 0.0000,  0.0000,  0.0000)
   8 Ag    -2.992244    5.182718    9.999999    ( 0.0000,  0.0000,  0.0000)
   9 Ag    -1.496122    6.046505   12.443156    ( 0.0000,  0.0000,  0.0000)
  10 Ag    -2.995728    6.912859   14.877353    ( 0.0000,  0.0000,  0.0000)
  11 Ag     0.000000    5.185724   17.325153    ( 0.0000,  0.0000,  0.0000)
  12 Ag     2.992244    0.000000    9.999999    ( 0.0000,  0.0000,  0.0000)
  13 Ag     4.488366    0.863786   12.443156    ( 0.0000,  0.0000,  0.0000)
  14 Ag     2.996248    1.728155   14.875957    ( 0.0000,  0.0000,  0.0000)
  15 Ag     5.983828   -0.001068   17.323614    ( 0.0000,  0.0000,  0.0000)
  16 Ag     1.496122    2.591359    9.999999    ( 0.0000,  0.0000,  0.0000)
  17 Ag     2.992244    3.455145   12.443156    ( 0.0000,  0.0000,  0.0000)
  18 Ag     1.489259    4.323429   14.877631    ( 0.0000,  0.0000,  0.0000)
  19 Ag     4.488366    2.456220   17.288994    ( 0.0000,  0.0000,  0.0000)
  20 Ag     0.000000    5.182718    9.999999    ( 0.0000,  0.0000,  0.0000)
  21 Ag     1.496122    6.046505   12.443156    ( 0.0000,  0.0000,  0.0000)
  22 Ag     0.000000    6.902895   14.880589    ( 0.0000,  0.0000,  0.0000)
  23 Ag     2.876100    5.248455   17.291901    ( 0.0000,  0.0000,  0.0000)
  24 Ag     5.984488    0.000000    9.999999    ( 0.0000,  0.0000,  0.0000)
  25 Ag     7.480609    0.863786   12.443156    ( 0.0000,  0.0000,  0.0000)
  26 Ag     5.980483    1.728155   14.875957    ( 0.0000,  0.0000,  0.0000)
  27 Ag     8.976731    0.019528   17.331550    ( 0.0000,  0.0000,  0.0000)
  28 Ag     4.488366    2.591359    9.999999    ( 0.0000,  0.0000,  0.0000)
  29 Ag     5.984488    3.455145   12.443156    ( 0.0000,  0.0000,  0.0000)
  30 Ag     4.488366    4.314447   14.862520    ( 0.0000,  0.0000,  0.0000)
  31 Ag     7.495012    2.581690   17.326487    ( 0.0000,  0.0000,  0.0000)
  32 Ag     2.992244    5.182718    9.999999    ( 0.0000,  0.0000,  0.0000)
  33 Ag     4.488366    6.046505   12.443156    ( 0.0000,  0.0000,  0.0000)
  34 Ag     2.995728    6.912859   14.877353    ( 0.0000,  0.0000,  0.0000)
  35 Ag     6.100631    5.248455   17.291901    ( 0.0000,  0.0000,  0.0000)
  36 O      4.488366    4.320498   18.399167    ( 0.0000,  0.0000,  0.0000)

Unit cell:
           periodic     x           y           z      points  spacing
  1. axis:    yes    8.976731    0.000000    0.000000    44     0.1767
  2. axis:    yes   -4.488366    7.774077    0.000000    44     0.1767
  3. axis:    no     0.000000    0.000000   27.329469   152     0.1798

  Lengths:   8.976731   8.976731  27.329469
  Angles:   90.000000  90.000000 120.000000

Effective grid spacing dv^(1/3) = 0.1864

     iter     time        total  log10-change:
                         energy  eigst   dens
iter:   1 21:37:30 -5355.419940  -3.79
iter:   2 21:38:23 -5355.413624  -4.66  -3.35
iter:   3 21:39:18 -5355.413240c -5.52  -3.73
iter:   4 21:40:11 -5355.412921c -5.78  -4.03c
iter:   5 21:41:05 -5355.412857c -5.70  -4.22c
iter:   6 21:41:59 -5355.412845c -6.44  -4.50c
iter:   7 21:42:53 -5355.412828c -6.60  -4.53c
iter:   8 21:43:47 -5355.412841c -6.41  -4.67c
iter:   9 21:44:41 -5355.412838c -7.36  -4.91c
iter:  10 21:45:35 -5355.412830c -7.16  -4.98c
iter:  11 21:46:29 -5355.412829c -7.52c -5.10c

Converged after 11 iterations.

Dipole moment: (-10.883496, -8.401177, -0.315938) |e|*Ang

Energy contributions relative to reference atoms: (reference = -5207562.601035)

Kinetic:       +883.643819
Potential:     -862.374799
External:        +0.000000
XC:            -5380.714272
Entropy (-ST):   -0.351337
Local:           +4.208093
--------------------------
Free energy:   -5355.588497
Extrapolated:  -5355.412829

Showing only first 2 kpts
 Kpt  Band  Eigenvalues  Occupancy
  0   307     -5.20615    1.93946
  0   308     -5.01251    1.64414
  0   309     -4.83424    0.87456
  0   310     -4.54346    0.08140

  1   307     -5.51784    1.99724
  1   308     -5.48429    1.99614
  1   309     -5.21862    1.94637
  1   310     -4.91671    1.27864


Fermi level: -4.85947

No gap

Forces in eV/Ang:
  0 Ag    0.00000    0.00713   -0.01859
  1 Ag   -0.00483   -0.01983    0.00942
  2 Ag    0.00000    0.00257   -0.01991
  3 Ag    0.00053   -0.00582   -0.05747
  4 Ag    0.01789   -0.01143   -0.03076
  5 Ag    0.00000    0.03929    0.03041
  6 Ag    0.00606   -0.00568   -0.03616
  7 Ag   -0.03117   -0.02667   -0.03969
  8 Ag   -0.01090    0.00587   -0.01763
  9 Ag    0.02361   -0.00488    0.01817
 10 Ag   -0.00198    0.00476   -0.03283
 11 Ag    0.00000    0.01397   -0.05122
 12 Ag   -0.01875    0.00026   -0.03325
 13 Ag    0.00000    0.04004    0.01154
 14 Ag   -0.00536   -0.00445   -0.03481
 15 Ag   -0.00053   -0.00582   -0.05747
 16 Ag   -0.01789   -0.01143   -0.03076
 17 Ag    0.03989   -0.02440    0.00346
 18 Ag   -0.00606   -0.00568   -0.03616
 19 Ag    0.00000    0.09339    0.13991
 20 Ag    0.00000   -0.01098   -0.03172
 21 Ag   -0.02361   -0.00488    0.01817
 22 Ag    0.00000   -0.00357   -0.00927
 23 Ag    0.09963   -0.06496    0.15329
 24 Ag    0.01875    0.00026   -0.03325
 25 Ag    0.00483   -0.01983    0.00942
 26 Ag    0.00536   -0.00445   -0.03481
 27 Ag    0.00000    0.09434   -0.02942
 28 Ag    0.00000    0.01168   -0.00795
 29 Ag   -0.03989   -0.02440    0.00346
 30 Ag    0.00000   -0.00666    0.00463
 31 Ag    0.03117   -0.02667   -0.03969
 32 Ag    0.01090    0.00587   -0.01763
 33 Ag    0.00000    0.02642   -0.01504
 34 Ag    0.00198    0.00476   -0.03283
 35 Ag   -0.09963   -0.06496    0.15329
 36 O     0.00000   -0.00426    0.12002

BFGS:    5 21:46:55    -5355.412829        0.1940
System changes: positions 

Initializing position-dependent things.

Density initialized from wave functions
                                                  
                                                  
                                                  
                                                  
                                                  
                            O                     
                  Ag     Ag      Ag               
                                                  
            Ag     AAg    AAg     Ag              
                                    Ag            
              Ag     AAg    AAg                   
               AAg    AAg    AAg                  
                                                  
                 Ag     Ag     Ag                 
                                                  
          Ag      AAg    AAg     Ag               
                                                  
            Ag      Ag     Ag                     
              Ag      Ag     Ag                   
                                                  
                                                  
                                                  
                                                  

Positions:
   0 Ag    -0.000000    0.000000    9.999999    ( 0.0000,  0.0000,  0.0000)
   1 Ag     1.496122    0.863786   12.443156    ( 0.0000,  0.0000,  0.0000)
   2 Ag    -0.000000    1.722927   14.875878    ( 0.0000,  0.0000,  0.0000)
   3 Ag     2.993769   -0.002404   17.310472    ( 0.0000,  0.0000,  0.0000)
   4 Ag    -1.496122    2.591359    9.999999    ( 0.0000,  0.0000,  0.0000)
   5 Ag     0.000000    3.455145   12.443156    ( 0.0000,  0.0000,  0.0000)
   6 Ag    -1.486776    4.322242   14.868815    ( 0.0000,  0.0000,  0.0000)
   7 Ag     1.471748    2.574213   17.317631    ( 0.0000,  0.0000,  0.0000)
   8 Ag    -2.992244    5.182718    9.999999    ( 0.0000,  0.0000,  0.0000)
   9 Ag    -1.496122    6.046505   12.443156    ( 0.0000,  0.0000,  0.0000)
  10 Ag    -2.995447    6.914624   14.869596    ( 0.0000,  0.0000,  0.0000)
  11 Ag     0.000000    5.189252   17.313680    ( 0.0000,  0.0000,  0.0000)
  12 Ag     2.992244    0.000000    9.999999    ( 0.0000,  0.0000,  0.0000)
  13 Ag     4.488366    0.863786   12.443156    ( 0.0000,  0.0000,  0.0000)
  14 Ag     2.994478    1.726329   14.867763    ( 0.0000,  0.0000,  0.0000)
  15 Ag     5.982962   -0.002404   17.310472    ( 0.0000,  0.0000,  0.0000)
  16 Ag     1.496122    2.591359    9.999999    ( 0.0000,  0.0000,  0.0000)
  17 Ag     2.992244    3.455145   12.443156    ( 0.0000,  0.0000,  0.0000)
  18 Ag     1.486776    4.322242   14.868815    ( 0.0000,  0.0000,  0.0000)
  19 Ag     4.488366    2.455723   17.311888    ( 0.0000,  0.0000,  0.0000)
  20 Ag     0.000000    5.182718    9.999999    ( 0.0000,  0.0000,  0.0000)
  21 Ag     1.496122    6.046505   12.443156    ( 0.0000,  0.0000,  0.0000)
  22 Ag     0.000000    6.901983   14.878896    ( 0.0000,  0.0000,  0.0000)
  23 Ag     2.879811    5.244221   17.318530    ( 0.0000,  0.0000,  0.0000)
  24 Ag     5.984488    0.000000    9.999999    ( 0.0000,  0.0000,  0.0000)
  25 Ag     7.480609    0.863786   12.443156    ( 0.0000,  0.0000,  0.0000)
  26 Ag     5.982254    1.726329   14.867763    ( 0.0000,  0.0000,  0.0000)
  27 Ag     8.976731    0.043118   17.324658    ( 0.0000,  0.0000,  0.0000)
  28 Ag     4.488366    2.591359    9.999999    ( 0.0000,  0.0000,  0.0000)
  29 Ag     5.984488    3.455145   12.443156    ( 0.0000,  0.0000,  0.0000)
  30 Ag     4.488366    4.312869   14.860115    ( 0.0000,  0.0000,  0.0000)
  31 Ag     7.504983    2.574213   17.317631    ( 0.0000,  0.0000,  0.0000)
  32 Ag     2.992244    5.182718    9.999999    ( 0.0000,  0.0000,  0.0000)
  33 Ag     4.488366    6.046505   12.443156    ( 0.0000,  0.0000,  0.0000)
  34 Ag     2.995447    6.914624   14.869596    ( 0.0000,  0.0000,  0.0000)
  35 Ag     6.096921    5.244221   17.318530    ( 0.0000,  0.0000,  0.0000)
  36 O      4.488366    4.322256   18.456692    ( 0.0000,  0.0000,  0.0000)

Unit cell:
           periodic     x           y           z      points  spacing
  1. axis:    yes    8.976731    0.000000    0.000000    44     0.1767
  2. axis:    yes   -4.488366    7.774077    0.000000    44     0.1767
  3. axis:    no     0.000000    0.000000   27.329469   152     0.1798

  Lengths:   8.976731   8.976731  27.329469
  Angles:   90.000000  90.000000 120.000000

Effective grid spacing dv^(1/3) = 0.1864

     iter     time        total  log10-change:
                         energy  eigst   dens
iter:   1 21:48:55 -5355.858793  -1.96
iter:   2 21:49:49 -5355.477737  -2.85  -2.41
iter:   3 21:50:43 -5355.451095  -3.72  -2.85
iter:   4 21:51:37 -5355.437211c -3.89  -3.09
iter:   5 21:52:32 -5355.435750c -4.09  -3.31
iter:   6 21:53:26 -5355.433317c -4.34  -3.45
iter:   7 21:54:20 -5355.432561c -4.71  -3.65
iter:   8 21:55:14 -5355.432947c -4.87  -3.82
iter:   9 21:56:08 -5355.432701c -5.94  -3.98
iter:  10 21:57:02 -5355.432588c -5.53  -4.12c
iter:  11 21:57:57 -5355.432628c -6.52  -4.35c
iter:  12 21:58:51 -5355.432595c -6.81  -4.41c
iter:  13 21:59:45 -5355.432602c -6.34  -4.54c
iter:  14 22:00:39 -5355.432594c -7.14  -4.76c
iter:  15 22:01:33 -5355.432595c -7.90c -4.86c

Converged after 15 iterations.

Dipole moment: (-11.004903, -9.206109, -0.341067) |e|*Ang

Energy contributions relative to reference atoms: (reference = -5207562.601035)

Kinetic:       +882.651440
Potential:     -861.588162
External:        +0.000000
XC:            -5380.533277
Entropy (-ST):   -0.351002
Local:           +4.212904
--------------------------
Free energy:   -5355.608096
Extrapolated:  -5355.432595

Showing only first 2 kpts
 Kpt  Band  Eigenvalues  Occupancy
  0   307     -5.22318    1.93800
  0   308     -5.03248    1.64555
  0   309     -4.85020    0.85724
  0   310     -4.56630    0.08406

  1   307     -5.54211    1.99737
  1   308     -5.50562    1.99621
  1   309     -5.23831    1.94648
  1   310     -4.93947    1.29371


Fermi level: -4.87895

No gap

Forces in eV/Ang:
  0 Ag    0.00000    0.00908   -0.02058
  1 Ag   -0.00888   -0.01774   -0.00973
  2 Ag    0.00000   -0.00261   -0.04713
  3 Ag   -0.01846   -0.00540   -0.03509
  4 Ag    0.01930   -0.01238   -0.03318
  5 Ag    0.00000    0.03457    0.00910
  6 Ag   -0.04180    0.00759    0.03109
  7 Ag    0.05112    0.01661   -0.03652
  8 Ag   -0.00892    0.00683   -0.01954
  9 Ag    0.02518   -0.00370    0.00537
 10 Ag   -0.01484   -0.03488    0.01901
 11 Ag    0.00000   -0.00018   -0.03384
 12 Ag   -0.01954    0.00091   -0.03555
 13 Ag    0.00000    0.03737   -0.00146
 14 Ag    0.03417    0.02505    0.01970
 15 Ag    0.01846   -0.00540   -0.03509
 16 Ag   -0.01930   -0.01238   -0.03318
 17 Ag    0.04187   -0.02310   -0.00654
 18 Ag    0.04180    0.00759    0.03109
 19 Ag    0.00000    0.16008    0.13849
 20 Ag    0.00000   -0.01197   -0.03421
 21 Ag   -0.02518   -0.00370    0.00537
 22 Ag    0.00000    0.00092   -0.02952
 23 Ag    0.14069   -0.07857    0.11859
 24 Ag    0.01954    0.00091   -0.03555
 25 Ag    0.00888   -0.01774   -0.00973
 26 Ag   -0.03417    0.02505    0.01970
 27 Ag    0.00000   -0.03648   -0.01821
 28 Ag    0.00000    0.00937   -0.01002
 29 Ag   -0.04187   -0.02310   -0.00654
 30 Ag    0.00000   -0.00049    0.04781
 31 Ag   -0.05112    0.01661   -0.03652
 32 Ag    0.00892    0.00683   -0.01954
 33 Ag    0.00000    0.02300   -0.02262
 34 Ag    0.01484   -0.03488    0.01901
 35 Ag   -0.14069   -0.07857    0.11859
 36 O     0.00000   -0.02512    0.02915

BFGS:    6 22:02:00    -5355.432595        0.2117
System changes: positions 

Initializing position-dependent things.

Density initialized from wave functions
                                                  
                                                  
                                                  
                                                  
                                                  
                            O                     
                  Ag     Ag      Ag               
                                                  
            Ag     AAg    AAg     Ag              
                                    Ag            
              Ag     AAg    AAg                   
                Ag     Ag     Ag                  
               Ag     Ag     Ag                   
                 Ag     Ag     Ag                 
                                                  
          Ag      AAg    AAg     Ag               
                                                  
            Ag      Ag     Ag                     
              Ag      Ag     Ag                   
                                                  
                                                  
                                                  
                                                  

Positions:
   0 Ag    -0.000000    0.000000    9.999999    ( 0.0000,  0.0000,  0.0000)
   1 Ag     1.496122    0.863786   12.443156    ( 0.0000,  0.0000,  0.0000)
   2 Ag    -0.000000    1.723434   14.872174    ( 0.0000,  0.0000,  0.0000)
   3 Ag     2.994065   -0.003535   17.299940    ( 0.0000,  0.0000,  0.0000)
   4 Ag    -1.496122    2.591359    9.999999    ( 0.0000,  0.0000,  0.0000)
   5 Ag     0.000000    3.455145   12.443156    ( 0.0000,  0.0000,  0.0000)
   6 Ag    -1.485659    4.321475   14.862768    ( 0.0000,  0.0000,  0.0000)
   7 Ag     1.465392    2.568969   17.310288    ( 0.0000,  0.0000,  0.0000)
   8 Ag    -2.992244    5.182718    9.999999    ( 0.0000,  0.0000,  0.0000)
   9 Ag    -1.496122    6.046505   12.443156    ( 0.0000,  0.0000,  0.0000)
  10 Ag    -2.995507    6.915346   14.864091    ( 0.0000,  0.0000,  0.0000)
  11 Ag     0.000000    5.191931   17.304438    ( 0.0000,  0.0000,  0.0000)
  12 Ag     2.992244    0.000000    9.999999    ( 0.0000,  0.0000,  0.0000)
  13 Ag     4.488366    0.863786   12.443156    ( 0.0000,  0.0000,  0.0000)
  14 Ag     2.993772    1.725383   14.861935    ( 0.0000,  0.0000,  0.0000)
  15 Ag     5.982666   -0.003535   17.299940    ( 0.0000,  0.0000,  0.0000)
  16 Ag     1.496122    2.591359    9.999999    ( 0.0000,  0.0000,  0.0000)
  17 Ag     2.992244    3.455145   12.443156    ( 0.0000,  0.0000,  0.0000)
  18 Ag     1.485659    4.321475   14.862768    ( 0.0000,  0.0000,  0.0000)
  19 Ag     4.488366    2.460722   17.332969    ( 0.0000,  0.0000,  0.0000)
  20 Ag     0.000000    5.182718    9.999999    ( 0.0000,  0.0000,  0.0000)
  21 Ag     1.496122    6.046505   12.443156    ( 0.0000,  0.0000,  0.0000)
  22 Ag     0.000000    6.901324   14.876960    ( 0.0000,  0.0000,  0.0000)
  23 Ag     2.887412    5.238401   17.342023    ( 0.0000,  0.0000,  0.0000)
  24 Ag     5.984488    0.000000    9.999999    ( 0.0000,  0.0000,  0.0000)
  25 Ag     7.480609    0.863786   12.443156    ( 0.0000,  0.0000,  0.0000)
  26 Ag     5.982959    1.725383   14.861935    ( 0.0000,  0.0000,  0.0000)
  27 Ag     8.976731    0.059943   17.319171    ( 0.0000,  0.0000,  0.0000)
  28 Ag     4.488366    2.591359    9.999999    ( 0.0000,  0.0000,  0.0000)
  29 Ag     5.984488    3.455145   12.443156    ( 0.0000,  0.0000,  0.0000)
  30 Ag     4.488366    4.311662   14.859514    ( 0.0000,  0.0000,  0.0000)
  31 Ag     7.511339    2.568969   17.310288    ( 0.0000,  0.0000,  0.0000)
  32 Ag     2.992244    5.182718    9.999999    ( 0.0000,  0.0000,  0.0000)
  33 Ag     4.488366    6.046505   12.443156    ( 0.0000,  0.0000,  0.0000)
  34 Ag     2.995507    6.915346   14.864091    ( 0.0000,  0.0000,  0.0000)
  35 Ag     6.089319    5.238401   17.342023    ( 0.0000,  0.0000,  0.0000)
  36 O      4.488366    4.323632   18.498210    ( 0.0000,  0.0000,  0.0000)

Unit cell:
           periodic     x           y           z      points  spacing
  1. axis:    yes    8.976731    0.000000    0.000000    44     0.1767
  2. axis:    yes   -4.488366    7.774077    0.000000    44     0.1767
  3. axis:    no     0.000000    0.000000   27.329469   152     0.1798

  Lengths:   8.976731   8.976731  27.329469
  Angles:   90.000000  90.000000 120.000000

Effective grid spacing dv^(1/3) = 0.1864

     iter     time        total  log10-change:
                         energy  eigst   dens
iter:   1 22:04:00 -5355.692851  -2.15
iter:   2 22:04:55 -5355.460049  -3.06  -2.52
iter:   3 22:05:49 -5355.446925c -4.02  -3.00
iter:   4 22:06:43 -5355.440167c -4.20  -3.22
iter:   5 22:07:37 -5355.439198c -4.40  -3.46
iter:   6 22:08:31 -5355.438711c -4.77  -3.66
iter:   7 22:09:25 -5355.438437c -5.05  -3.79
iter:   8 22:10:19 -5355.438632c -5.27  -3.99
iter:   9 22:11:13 -5355.438503c -5.97  -4.10c
iter:  10 22:12:08 -5355.438507c -6.22  -4.32c
iter:  11 22:13:02 -5355.438516c -6.76  -4.46c
iter:  12 22:13:56 -5355.438490c -6.56  -4.54c
iter:  13 22:14:50 -5355.438488c -6.88  -4.71c
iter:  14 22:15:44 -5355.438485c -7.63c -4.75c

Converged after 14 iterations.

Dipole moment: (-10.871382, -9.755457, -0.356346) |e|*Ang

Energy contributions relative to reference atoms: (reference = -5207562.601035)

Kinetic:       +882.017638
Potential:     -861.065292
External:        +0.000000
XC:            -5380.428000
Entropy (-ST):   -0.350799
Local:           +4.212569
--------------------------
Free energy:   -5355.613885
Extrapolated:  -5355.438485

Showing only first 2 kpts
 Kpt  Band  Eigenvalues  Occupancy
  0   307     -5.23271    1.93663
  0   308     -5.04405    1.64493
  0   309     -4.85902    0.84272
  0   310     -4.58051    0.08602

  1   307     -5.55795    1.99747
  1   308     -5.51847    1.99625
  1   309     -5.25033    1.94659
  1   310     -4.95432    1.30763


Fermi level: -4.89074

No gap

Forces in eV/Ang:
  0 Ag    0.00000    0.00548   -0.02293
  1 Ag   -0.00851   -0.01817   -0.02140
  2 Ag    0.00000   -0.00674   -0.06409
  3 Ag   -0.02640   -0.00582   -0.01536
  4 Ag    0.01634   -0.01092   -0.03569
  5 Ag    0.00000    0.03464   -0.00391
  6 Ag   -0.06933    0.01870    0.07597
  7 Ag    0.10424    0.04906   -0.01933
  8 Ag   -0.01106    0.00607   -0.02035
  9 Ag    0.02597   -0.00265   -0.00429
 10 Ag   -0.01949   -0.06059    0.05631
 11 Ag    0.00000   -0.00714   -0.00982
 12 Ag   -0.01926    0.00044   -0.03748
 13 Ag    0.00000    0.03530   -0.01094
 14 Ag    0.05993    0.04007    0.05653
 15 Ag    0.02640   -0.00582   -0.01536
 16 Ag   -0.01634   -0.01092   -0.03569
 17 Ag    0.04686   -0.02012   -0.01567
 18 Ag    0.06933    0.01870    0.07597
 19 Ag    0.00000    0.16552    0.12579
 20 Ag    0.00000   -0.01110   -0.03618
 21 Ag   -0.02597   -0.00265   -0.00429
 22 Ag    0.00000    0.00423   -0.04294
 23 Ag    0.11269   -0.04287    0.06275
 24 Ag    0.01926    0.00044   -0.03748
 25 Ag    0.00851   -0.01817   -0.02140
 26 Ag   -0.05993    0.04007    0.05653
 27 Ag    0.00000   -0.15459   -0.00998
 28 Ag    0.00000    0.01164   -0.01107
 29 Ag   -0.04686   -0.02012   -0.01567
 30 Ag    0.00000    0.00566    0.08184
 31 Ag   -0.10424    0.04906   -0.01933
 32 Ag    0.01106    0.00607   -0.02035
 33 Ag    0.00000    0.01654   -0.03066
 34 Ag    0.01949   -0.06059    0.05631
 35 Ag   -0.11269   -0.04287    0.06275
 36 O     0.00000   -0.05346   -0.07692

BFGS:    7 22:16:10    -5355.438485        0.2079
System changes: positions 

Initializing position-dependent things.

Density initialized from wave functions
                                                  
                                                  
                                                  
                                                  
                                                  
                            O                     
                  Ag     Ag      Ag               
                                                  
            Ag     AAg    AAg     Ag              
                                    Ag            
              Ag     AAg    AAg                   
                Ag     Ag     Ag                  
               Ag     Ag     Ag                   
                 Ag     Ag     Ag                 
                                                  
          Ag      AAg    AAg     Ag               
                                                  
            Ag      Ag     Ag                     
              Ag      Ag     Ag                   
                                                  
                                                  
                                                  
                                                  

Positions:
   0 Ag    -0.000000    0.000000    9.999999    ( 0.0000,  0.0000,  0.0000)
   1 Ag     1.496122    0.863786   12.443156    ( 0.0000,  0.0000,  0.0000)
   2 Ag    -0.000000    1.723339   14.871185    ( 0.0000,  0.0000,  0.0000)
   3 Ag     2.993696   -0.003635   17.299751    ( 0.0000,  0.0000,  0.0000)
   4 Ag    -1.496122    2.591359    9.999999    ( 0.0000,  0.0000,  0.0000)
   5 Ag     0.000000    3.455145   12.443156    ( 0.0000,  0.0000,  0.0000)
   6 Ag    -1.486537    4.321688   14.863737    ( 0.0000,  0.0000,  0.0000)
   7 Ag     1.467007    2.569713   17.310045    ( 0.0000,  0.0000,  0.0000)
   8 Ag    -2.992244    5.182718    9.999999    ( 0.0000,  0.0000,  0.0000)
   9 Ag    -1.496122    6.046505   12.443156    ( 0.0000,  0.0000,  0.0000)
  10 Ag    -2.995773    6.914606   14.864774    ( 0.0000,  0.0000,  0.0000)
  11 Ag     0.000000    5.191863   17.304327    ( 0.0000,  0.0000,  0.0000)
  12 Ag     2.992244    0.000000    9.999999    ( 0.0000,  0.0000,  0.0000)
  13 Ag     4.488366    0.863786   12.443156    ( 0.0000,  0.0000,  0.0000)
  14 Ag     2.994530    1.725873   14.862612    ( 0.0000,  0.0000,  0.0000)
  15 Ag     5.983036   -0.003635   17.299751    ( 0.0000,  0.0000,  0.0000)
  16 Ag     1.496122    2.591359    9.999999    ( 0.0000,  0.0000,  0.0000)
  17 Ag     2.992244    3.455145   12.443156    ( 0.0000,  0.0000,  0.0000)
  18 Ag     1.486537    4.321688   14.863737    ( 0.0000,  0.0000,  0.0000)
  19 Ag     4.488366    2.466185   17.336267    ( 0.0000,  0.0000,  0.0000)
  20 Ag     0.000000    5.182718    9.999999    ( 0.0000,  0.0000,  0.0000)
  21 Ag     1.496122    6.046505   12.443156    ( 0.0000,  0.0000,  0.0000)
  22 Ag     0.000000    6.901389   14.876291    ( 0.0000,  0.0000,  0.0000)
  23 Ag     2.891871    5.236226   17.344457    ( 0.0000,  0.0000,  0.0000)
  24 Ag     5.984488    0.000000    9.999999    ( 0.0000,  0.0000,  0.0000)
  25 Ag     7.480609    0.863786   12.443156    ( 0.0000,  0.0000,  0.0000)
  26 Ag     5.982201    1.725873   14.862612    ( 0.0000,  0.0000,  0.0000)
  27 Ag     8.976731    0.057669   17.319088    ( 0.0000,  0.0000,  0.0000)
  28 Ag     4.488366    2.591359    9.999999    ( 0.0000,  0.0000,  0.0000)
  29 Ag     5.984488    3.455145   12.443156    ( 0.0000,  0.0000,  0.0000)
  30 Ag     4.488366    4.311724   14.861020    ( 0.0000,  0.0000,  0.0000)
  31 Ag     7.509725    2.569713   17.310045    ( 0.0000,  0.0000,  0.0000)
  32 Ag     2.992244    5.182718    9.999999    ( 0.0000,  0.0000,  0.0000)
  33 Ag     4.488366    6.046505   12.443156    ( 0.0000,  0.0000,  0.0000)
  34 Ag     2.995773    6.914606   14.864774    ( 0.0000,  0.0000,  0.0000)
  35 Ag     6.084860    5.236226   17.344457    ( 0.0000,  0.0000,  0.0000)
  36 O      4.488366    4.323356   18.493516    ( 0.0000,  0.0000,  0.0000)

Unit cell:
           periodic     x           y           z      points  spacing
  1. axis:    yes    8.976731    0.000000    0.000000    44     0.1767
  2. axis:    yes   -4.488366    7.774077    0.000000    44     0.1767
  3. axis:    no     0.000000    0.000000   27.329469   152     0.1798

  Lengths:   8.976731   8.976731  27.329469
  Angles:   90.000000  90.000000 120.000000

Effective grid spacing dv^(1/3) = 0.1864

     iter     time        total  log10-change:
                         energy  eigst   dens
iter:   1 22:18:10 -5355.445426  -3.56
iter:   2 22:19:04 -5355.443596  -4.59  -3.55
iter:   3 22:19:58 -5355.442867c -5.09  -3.66
iter:   4 22:20:52 -5355.442749c -5.47  -3.90
iter:   5 22:21:47 -5355.442544c -5.32  -4.05c
iter:   6 22:22:41 -5355.442566c -5.71  -4.30c
iter:   7 22:23:35 -5355.442515c -6.35  -4.36c
iter:   8 22:24:29 -5355.442484c -6.61  -4.50c
iter:   9 22:25:23 -5355.442502c -6.95  -4.68c
iter:  10 22:26:17 -5355.442491c -7.69c -4.89c

Converged after 10 iterations.

Dipole moment: (-10.640937, -9.677800, -0.350964) |e|*Ang

Energy contributions relative to reference atoms: (reference = -5207562.601035)

Kinetic:       +882.253880
Potential:     -861.273433
External:        +0.000000
XC:            -5380.465648
Entropy (-ST):   -0.350860
Local:           +4.218141
--------------------------
Free energy:   -5355.617921
Extrapolated:  -5355.442491

Showing only first 2 kpts
 Kpt  Band  Eigenvalues  Occupancy
  0   307     -5.22855    1.93666
  0   308     -5.03925    1.64320
  0   309     -4.85477    0.84253
  0   310     -4.57609    0.08586

  1   307     -5.55341    1.99746
  1   308     -5.51466    1.99627
  1   309     -5.24641    1.94675
  1   310     -4.95060    1.30982


Fermi level: -4.88653

No gap

Forces in eV/Ang:
  0 Ag    0.00000    0.00794   -0.02060
  1 Ag   -0.00955   -0.01719   -0.02332
  2 Ag    0.00000   -0.00711   -0.05581
  3 Ag   -0.02336   -0.00324   -0.01550
  4 Ag    0.01823   -0.01202   -0.03311
  5 Ag    0.00000    0.03330   -0.00518
  6 Ag   -0.06587    0.01906    0.07772
  7 Ag    0.09240    0.04464   -0.01956
  8 Ag   -0.00921    0.00688   -0.01978
  9 Ag    0.02537   -0.00324   -0.00751
 10 Ag   -0.02024   -0.05957    0.05919
 11 Ag    0.00000   -0.00729   -0.00993
 12 Ag   -0.01928    0.00072   -0.03545
 13 Ag    0.00000    0.03643   -0.01465
 14 Ag    0.05674    0.03954    0.06006
 15 Ag    0.02336   -0.00324   -0.01550
 16 Ag   -0.01823   -0.01202   -0.03311
 17 Ag    0.04389   -0.02210   -0.01537
 18 Ag    0.06587    0.01906    0.07772
 19 Ag    0.00000    0.10468    0.08707
 20 Ag    0.00000   -0.01138   -0.03429
 21 Ag   -0.02537   -0.00324   -0.00751
 22 Ag    0.00000    0.00364   -0.03366
 23 Ag    0.04498   -0.00636    0.02538
 24 Ag    0.01928    0.00072   -0.03545
 25 Ag    0.00955   -0.01719   -0.02332
 26 Ag   -0.05674    0.03954    0.06006
 27 Ag    0.00000   -0.13600   -0.01108
 28 Ag    0.00000    0.00952   -0.01025
 29 Ag   -0.04389   -0.02210   -0.01537
 30 Ag    0.00000    0.00627    0.07825
 31 Ag   -0.09240    0.04464   -0.01956
 32 Ag    0.00921    0.00688   -0.01978
 33 Ag    0.00000    0.01984   -0.03029
 34 Ag    0.02024   -0.05957    0.05919
 35 Ag   -0.04498   -0.00636    0.02538
 36 O     0.00000   -0.05267    0.00994

BFGS:    8 22:26:43    -5355.442491        0.1364
System changes: positions 

Initializing position-dependent things.

Density initialized from wave functions
                                                  
                                                  
                                                  
                                                  
                                                  
                            O                     
                  Ag     Ag      Ag               
                                                  
            Ag     AAg    AAg     Ag              
                                    Ag            
              Ag     AAg    AAg                   
               AAg    AAg    AAg                  
                                                  
                 Ag     Ag     Ag                 
                                                  
           Ag     AAg    AAg     Ag               
                                                  
            Ag      Ag     Ag                     
              Ag      Ag     Ag                   
                                                  
                                                  
                                                  
                                                  

Positions:
   0 Ag    -0.000000    0.000000    9.999999    ( 0.0000,  0.0000,  0.0000)
   1 Ag     1.496122    0.863786   12.443156    ( 0.0000,  0.0000,  0.0000)
   2 Ag    -0.000000    1.723013   14.868930    ( 0.0000,  0.0000,  0.0000)
   3 Ag     2.992705   -0.003743   17.299849    ( 0.0000,  0.0000,  0.0000)
   4 Ag    -1.496122    2.591359    9.999999    ( 0.0000,  0.0000,  0.0000)
   5 Ag     0.000000    3.455145   12.443156    ( 0.0000,  0.0000,  0.0000)
   6 Ag    -1.489186    4.322448   14.867189    ( 0.0000,  0.0000,  0.0000)
   7 Ag     1.471540    2.572005   17.309761    ( 0.0000,  0.0000,  0.0000)
   8 Ag    -2.992244    5.182718    9.999999    ( 0.0000,  0.0000,  0.0000)
   9 Ag    -1.496122    6.046505   12.443156    ( 0.0000,  0.0000,  0.0000)
  10 Ag    -2.996579    6.912280   14.867398    ( 0.0000,  0.0000,  0.0000)
  11 Ag     0.000000    5.191449   17.304570    ( 0.0000,  0.0000,  0.0000)
  12 Ag     2.992244    0.000000    9.999999    ( 0.0000,  0.0000,  0.0000)
  13 Ag     4.488366    0.863786   12.443156    ( 0.0000,  0.0000,  0.0000)
  14 Ag     2.996803    1.727441   14.865276    ( 0.0000,  0.0000,  0.0000)
  15 Ag     5.984026   -0.003743   17.299849    ( 0.0000,  0.0000,  0.0000)
  16 Ag     1.496122    2.591359    9.999999    ( 0.0000,  0.0000,  0.0000)
  17 Ag     2.992244    3.455145   12.443156    ( 0.0000,  0.0000,  0.0000)
  18 Ag     1.489186    4.322448   14.867189    ( 0.0000,  0.0000,  0.0000)
  19 Ag     4.488366    2.475351   17.341099    ( 0.0000,  0.0000,  0.0000)
  20 Ag     0.000000    5.182718    9.999999    ( 0.0000,  0.0000,  0.0000)
  21 Ag     1.496122    6.046505   12.443156    ( 0.0000,  0.0000,  0.0000)
  22 Ag     0.000000    6.901597   14.874864    ( 0.0000,  0.0000,  0.0000)
  23 Ag     2.898056    5.233709   17.346602    ( 0.0000,  0.0000,  0.0000)
  24 Ag     5.984488    0.000000    9.999999    ( 0.0000,  0.0000,  0.0000)
  25 Ag     7.480609    0.863786   12.443156    ( 0.0000,  0.0000,  0.0000)
  26 Ag     5.979928    1.727441   14.865276    ( 0.0000,  0.0000,  0.0000)
  27 Ag     8.976731    0.050683   17.319093    ( 0.0000,  0.0000,  0.0000)
  28 Ag     4.488366    2.591359    9.999999    ( 0.0000,  0.0000,  0.0000)
  29 Ag     5.984488    3.455145   12.443156    ( 0.0000,  0.0000,  0.0000)
  30 Ag     4.488366    4.312031   14.864870    ( 0.0000,  0.0000,  0.0000)
  31 Ag     7.505191    2.572005   17.309761    ( 0.0000,  0.0000,  0.0000)
  32 Ag     2.992244    5.182718    9.999999    ( 0.0000,  0.0000,  0.0000)
  33 Ag     4.488366    6.046505   12.443156    ( 0.0000,  0.0000,  0.0000)
  34 Ag     2.996579    6.912280   14.867398    ( 0.0000,  0.0000,  0.0000)
  35 Ag     6.078675    5.233709   17.346602    ( 0.0000,  0.0000,  0.0000)
  36 O      4.488366    4.321975   18.485250    ( 0.0000,  0.0000,  0.0000)

Unit cell:
           periodic     x           y           z      points  spacing
  1. axis:    yes    8.976731    0.000000    0.000000    44     0.1767
  2. axis:    yes   -4.488366    7.774077    0.000000    44     0.1767
  3. axis:    no     0.000000    0.000000   27.329469   152     0.1798

  Lengths:   8.976731   8.976731  27.329469
[...]
  13 Ag     4.488366    0.863786   12.443156    ( 0.0000,  0.0000,  0.0000)
  14 Ag     3.004845    1.732099   14.876053    ( 0.0000,  0.0000,  0.0000)
  15 Ag     5.984391   -0.002343   17.287755    ( 0.0000,  0.0000,  0.0000)
  16 Ag     1.496122    2.591359    9.999999    ( 0.0000,  0.0000,  0.0000)
  17 Ag     2.992244    3.455145   12.443156    ( 0.0000,  0.0000,  0.0000)
  18 Ag     1.499310    4.329497   14.879968    ( 0.0000,  0.0000,  0.0000)
  19 Ag     4.488366    2.492265   17.378558    ( 0.0000,  0.0000,  0.0000)
  20 Ag     0.000000    5.182718    9.999999    ( 0.0000,  0.0000,  0.0000)
  21 Ag     1.496122    6.046505   12.443156    ( 0.0000,  0.0000,  0.0000)
  22 Ag     0.000000    6.901841   14.862482    ( 0.0000,  0.0000,  0.0000)
  23 Ag     2.902996    5.231670   17.378626    ( 0.0000,  0.0000,  0.0000)
  24 Ag     5.984488    0.000000    9.999999    ( 0.0000,  0.0000,  0.0000)
  25 Ag     7.480609    0.863786   12.443156    ( 0.0000,  0.0000,  0.0000)
  26 Ag     5.971886    1.732099   14.876053    ( 0.0000,  0.0000,  0.0000)
  27 Ag     8.976731    0.037964   17.309281    ( 0.0000,  0.0000,  0.0000)
  28 Ag     4.488366    2.591359    9.999999    ( 0.0000,  0.0000,  0.0000)
  29 Ag     5.984488    3.455145   12.443156    ( 0.0000,  0.0000,  0.0000)
  30 Ag     4.488366    4.313429   14.887044    ( 0.0000,  0.0000,  0.0000)
  31 Ag     7.497513    2.578195   17.299304    ( 0.0000,  0.0000,  0.0000)
  32 Ag     2.992244    5.182718    9.999999    ( 0.0000,  0.0000,  0.0000)
  33 Ag     4.488366    6.046505   12.443156    ( 0.0000,  0.0000,  0.0000)
  34 Ag     3.000340    6.897578   14.879029    ( 0.0000,  0.0000,  0.0000)
  35 Ag     6.073735    5.231670   17.378626    ( 0.0000,  0.0000,  0.0000)
  36 O      4.488366    4.324988   18.552272    ( 0.0000,  0.0000,  0.0000)

Unit cell:
           periodic     x           y           z      points  spacing
  1. axis:    yes    8.976731    0.000000    0.000000    44     0.1767
  2. axis:    yes   -4.488366    7.774077    0.000000    44     0.1767
  3. axis:    no     0.000000    0.000000   27.329469   152     0.1798

  Lengths:   8.976731   8.976731  27.329469
  Angles:   90.000000  90.000000 120.000000

Effective grid spacing dv^(1/3) = 0.1864

     iter     time        total  log10-change:
                         energy  eigst   dens
iter:   1 23:50:31 -5355.486296  -3.15
iter:   2 23:51:25 -5355.465418  -4.02  -3.01
iter:   3 23:52:20 -5355.463463c -5.03  -3.49
iter:   4 23:53:13 -5355.463299c -5.38  -3.81
iter:   5 23:54:08 -5355.463226c -5.52  -4.01c
iter:   6 23:55:02 -5355.463162c -5.54  -4.15c
iter:   7 23:55:56 -5355.463189c -6.10  -4.27c
iter:   8 23:56:50 -5355.463176c -7.00  -4.50c
iter:   9 23:57:44 -5355.463166c -6.59  -4.55c
iter:  10 23:58:38 -5355.463170c -7.42c -4.80c

Converged after 10 iterations.

Dipole moment: (-9.833072, -9.469329, -0.365103) |e|*Ang

Energy contributions relative to reference atoms: (reference = -5207562.601035)

Kinetic:       +881.186947
Potential:     -860.392863
External:        +0.000000
XC:            -5380.292541
Entropy (-ST):   -0.349698
Local:           +4.210135
--------------------------
Free energy:   -5355.638019
Extrapolated:  -5355.463170

Showing only first 2 kpts
 Kpt  Band  Eigenvalues  Occupancy
  0   307     -5.23431    1.93354
  0   308     -5.04473    1.62755
  0   309     -4.86807    0.85509
  0   310     -4.58999    0.08850

  1   307     -5.56981    1.99760
  1   308     -5.52137    1.99611
  1   309     -5.25565    1.94597
  1   310     -4.96457    1.32443


Fermi level: -4.89726

No gap

Forces in eV/Ang:
  0 Ag    0.00000    0.00561   -0.01578
  1 Ag    0.00649   -0.02899    0.00317
  2 Ag    0.00000   -0.00206    0.00840
  3 Ag   -0.00197    0.00217    0.01139
  4 Ag    0.01659   -0.01023   -0.02818
  5 Ag    0.00000    0.05628    0.02884
  6 Ag    0.00589    0.00553    0.00625
  7 Ag   -0.00968    0.00370    0.00903
  8 Ag   -0.00942    0.00639   -0.01321
  9 Ag    0.01600   -0.01116   -0.00153
 10 Ag    0.00088   -0.01026    0.01783
 11 Ag    0.00000    0.00629    0.01614
 12 Ag   -0.01910    0.00022   -0.02965
 13 Ag    0.00000    0.04747   -0.01059
 14 Ag   -0.01014   -0.00089    0.00978
 15 Ag    0.00197    0.00217    0.01139
 16 Ag   -0.01659   -0.01023   -0.02818
 17 Ag    0.04651   -0.01784    0.01915
 18 Ag   -0.00589    0.00553    0.00625
 19 Ag    0.00000    0.03086    0.01455
 20 Ag    0.00000   -0.01165   -0.02654
 21 Ag   -0.01600   -0.01116   -0.00153
 22 Ag    0.00000   -0.00056   -0.00328
 23 Ag   -0.02067    0.01025    0.01899
 24 Ag    0.01910    0.00022   -0.02965
 25 Ag   -0.00649   -0.02899    0.00317
 26 Ag    0.01014   -0.00089    0.00978
 27 Ag    0.00000   -0.00637   -0.00541
 28 Ag    0.00000    0.01050   -0.00496
 29 Ag   -0.04651   -0.01784    0.01915
 30 Ag    0.00000   -0.00051    0.02273
 31 Ag    0.00968    0.00370    0.00903
 32 Ag    0.00942    0.00639   -0.01321
 33 Ag    0.00000    0.01415   -0.00537
 34 Ag   -0.00088   -0.01026    0.01783
 35 Ag    0.02067    0.01025    0.01899
 36 O     0.00000   -0.00918    0.09833

BFGS:   16 23:59:04    -5355.463170        0.0988
System changes: positions 

Initializing position-dependent things.

Density initialized from wave functions
                                                  
                                                  
                                                  
                                                  
                                                  
                            O                     
                  Ag     Ag      Ag               
                                                  
            Ag     AAg    AAg     Ag              
                                                  
              Ag     AAg    AAg     Ag            
                Ag     Ag     Ag                  
               Ag     Ag     Ag                   
                 Ag     Ag     Ag                 
                                                  
           Ag     AAg    AAg     Ag               
                                                  
             Ag     Ag     Ag                     
              Ag      Ag     Ag                   
                                                  
                                                  
                                                  
                                                  

Positions:
   0 Ag    -0.000000    0.000000    9.999999    ( 0.0000,  0.0000,  0.0000)
   1 Ag     1.496122    0.863786   12.443156    ( 0.0000,  0.0000,  0.0000)
   2 Ag    -0.000000    1.721408   14.854768    ( 0.0000,  0.0000,  0.0000)
   3 Ag     2.992354   -0.002250   17.286036    ( 0.0000,  0.0000,  0.0000)
   4 Ag    -1.496122    2.591359    9.999999    ( 0.0000,  0.0000,  0.0000)
   5 Ag     0.000000    3.455145   12.443156    ( 0.0000,  0.0000,  0.0000)
   6 Ag    -1.500175    4.330136   14.880843    ( 0.0000,  0.0000,  0.0000)
   7 Ag     1.479483    2.578486   17.297918    ( 0.0000,  0.0000,  0.0000)
   8 Ag    -2.992244    5.182718    9.999999    ( 0.0000,  0.0000,  0.0000)
   9 Ag    -1.496122    6.046505   12.443156    ( 0.0000,  0.0000,  0.0000)
  10 Ag    -3.000693    6.896176   14.879903    ( 0.0000,  0.0000,  0.0000)
  11 Ag     0.000000    5.194262   17.296847    ( 0.0000,  0.0000,  0.0000)
  12 Ag     2.992244    0.000000    9.999999    ( 0.0000,  0.0000,  0.0000)
  13 Ag     4.488366    0.863786   12.443156    ( 0.0000,  0.0000,  0.0000)
  14 Ag     3.005495    1.732468   14.876784    ( 0.0000,  0.0000,  0.0000)
  15 Ag     5.984377   -0.002250   17.286036    ( 0.0000,  0.0000,  0.0000)
  16 Ag     1.496122    2.591359    9.999999    ( 0.0000,  0.0000,  0.0000)
  17 Ag     2.992244    3.455145   12.443156    ( 0.0000,  0.0000,  0.0000)
  18 Ag     1.500175    4.330136   14.880843    ( 0.0000,  0.0000,  0.0000)
  19 Ag     4.488366    2.494233   17.383492    ( 0.0000,  0.0000,  0.0000)
  20 Ag     0.000000    5.182718    9.999999    ( 0.0000,  0.0000,  0.0000)
  21 Ag     1.496122    6.046505   12.443156    ( 0.0000,  0.0000,  0.0000)
  22 Ag     0.000000    6.901844   14.861178    ( 0.0000,  0.0000,  0.0000)
  23 Ag     2.903828    5.231149   17.383212    ( 0.0000,  0.0000,  0.0000)
  24 Ag     5.984488    0.000000    9.999999    ( 0.0000,  0.0000,  0.0000)
  25 Ag     7.480609    0.863786   12.443156    ( 0.0000,  0.0000,  0.0000)
  26 Ag     5.971236    1.732468   14.876784    ( 0.0000,  0.0000,  0.0000)
  27 Ag     8.976731    0.037695   17.307955    ( 0.0000,  0.0000,  0.0000)
  28 Ag     4.488366    2.591359    9.999999    ( 0.0000,  0.0000,  0.0000)
  29 Ag     5.984488    3.455145   12.443156    ( 0.0000,  0.0000,  0.0000)
  30 Ag     4.488366    4.313477   14.889213    ( 0.0000,  0.0000,  0.0000)
  31 Ag     7.497248    2.578486   17.297918    ( 0.0000,  0.0000,  0.0000)
  32 Ag     2.992244    5.182718    9.999999    ( 0.0000,  0.0000,  0.0000)
  33 Ag     4.488366    6.046505   12.443156    ( 0.0000,  0.0000,  0.0000)
  34 Ag     3.000693    6.896176   14.879903    ( 0.0000,  0.0000,  0.0000)
  35 Ag     6.072903    5.231149   17.383212    ( 0.0000,  0.0000,  0.0000)
  36 O      4.488366    4.324988   18.561451    ( 0.0000,  0.0000,  0.0000)

Unit cell:
           periodic     x           y           z      points  spacing
  1. axis:    yes    8.976731    0.000000    0.000000    44     0.1767
  2. axis:    yes   -4.488366    7.774077    0.000000    44     0.1767
  3. axis:    no     0.000000    0.000000   27.329469   152     0.1798

  Lengths:   8.976731   8.976731  27.329469
  Angles:   90.000000  90.000000 120.000000

Effective grid spacing dv^(1/3) = 0.1864

     iter     time        total  log10-change:
                         energy  eigst   dens
iter:   1 00:01:04 -5355.466223  -3.59
iter:   2 00:01:58 -5355.464285  -4.67  -3.66
iter:   3 00:02:52 -5355.464224c -5.49  -4.02c
iter:   4 00:03:46 -5355.464104c -5.88  -4.21c
iter:   5 00:04:40 -5355.464142c -6.26  -4.39c
iter:   6 00:05:34 -5355.464139c -6.51  -4.55c
iter:   7 00:06:28 -5355.464118c -6.90  -4.60c
iter:   8 00:07:22 -5355.464130c -7.25  -4.87c
iter:   9 00:08:16 -5355.464121c -7.15  -4.94c
iter:  10 00:09:10 -5355.464127c -7.94c -5.15c

Converged after 10 iterations.

Dipole moment: (-9.790726, -9.502786, -0.367966) |e|*Ang

Energy contributions relative to reference atoms: (reference = -5207562.601035)

Kinetic:       +880.863519
Potential:     -860.111637
External:        +0.000000
XC:            -5380.250393
Entropy (-ST):   -0.349565
Local:           +4.209166
--------------------------
Free energy:   -5355.638910
Extrapolated:  -5355.464127

Showing only first 2 kpts
 Kpt  Band  Eigenvalues  Occupancy
  0   307     -5.23636    1.93309
  0   308     -5.04704    1.62620
  0   309     -4.87096    0.85576
  0   310     -4.59313    0.08882

  1   307     -5.57327    1.99762
  1   308     -5.52364    1.99609
  1   309     -5.25828    1.94590
  1   310     -4.96790    1.32700


Fermi level: -4.90001

No gap

Forces in eV/Ang:
  0 Ag    0.00000    0.00563   -0.01911
  1 Ag    0.01015   -0.03093    0.00534
  2 Ag    0.00000   -0.00391    0.00934
  3 Ag    0.00848    0.00620    0.01264
  4 Ag    0.01624   -0.01132   -0.03178
  5 Ag    0.00000    0.05689    0.03029
  6 Ag    0.00426    0.00479    0.00249
  7 Ag   -0.00999   -0.00147    0.01224
  8 Ag   -0.01046    0.00666   -0.01576
  9 Ag    0.01199   -0.01020    0.00004
 10 Ag    0.00437   -0.00704    0.01197
 11 Ag    0.00000    0.01289    0.01974
 12 Ag   -0.01983    0.00121   -0.03252
 13 Ag    0.00000    0.05249   -0.00808
 14 Ag   -0.00477   -0.00340    0.00768
 15 Ag   -0.00848    0.00620    0.01264
 16 Ag   -0.01624   -0.01132   -0.03178
 17 Ag    0.05223   -0.01807    0.02380
 18 Ag   -0.00426    0.00479    0.00249
 19 Ag    0.00000    0.02789    0.01982
 20 Ag    0.00000   -0.01168   -0.03196
 21 Ag   -0.01199   -0.01020    0.00004
 22 Ag    0.00000    0.00587    0.00124
 23 Ag   -0.00810   -0.00020    0.02690
 24 Ag    0.01983    0.00121   -0.03252
 25 Ag   -0.01015   -0.03093    0.00534
 26 Ag    0.00477   -0.00340    0.00768
 27 Ag    0.00000    0.00114   -0.00366
 28 Ag    0.00000    0.01017   -0.00574
 29 Ag   -0.05223   -0.01807    0.02380
 30 Ag    0.00000   -0.00567    0.01710
 31 Ag    0.00999   -0.00147    0.01224
 32 Ag    0.01046    0.00666   -0.01576
 33 Ag    0.00000    0.01059   -0.00152
 34 Ag   -0.00437   -0.00704    0.01197
 35 Ag    0.00810   -0.00020    0.02690
 36 O     0.00000    0.02003    0.02148

BFGS:   17 00:09:36    -5355.464127        0.0342
Timing:                                      incl.     excl.
-------------------------------------------------------------------
Density initialized from wave functions:    20.252    19.469   0.1% |
 Symmetrize density:                         0.783     0.783   0.0% |
Forces:                                    470.386   470.386   3.3% ||
Hamiltonian:                                75.948     0.003   0.0% |
 Atomic:                                     0.004     0.004   0.0% |
  XC Correction:                             0.000     0.000   0.0% |
 Calculate atomic Hamiltonians:              0.007     0.007   0.0% |
 Communicate:                                3.826     3.826   0.0% |
 Hartree integrate/restrict:                 0.226     0.226   0.0% |
 Initialize Hamiltonian:                     0.001     0.001   0.0% |
 Poisson:                                    3.607     0.153   0.0% |
  Communicate from 1D:                       0.317     0.317   0.0% |
  Communicate from 2D:                       0.620     0.620   0.0% |
  Communicate to 1D:                         0.174     0.174   0.0% |
  Communicate to 2D:                         0.726     0.726   0.0% |
  FFT 1D:                                    0.832     0.832   0.0% |
  FFT 2D:                                    0.784     0.784   0.0% |
 XC 3D grid:                                68.062    17.093   0.1% |
  VdW-DF integral:                          50.969     2.737   0.0% |
   Convolution:                              4.547     4.547   0.0% |
   FFT:                                      2.970     2.970   0.0% |
   gather:                                  14.772    14.772   0.1% |
   hmm1:                                     0.954     0.954   0.0% |
   hmm2:                                     2.026     2.026   0.0% |
   iFFT:                                     2.758     2.758   0.0% |
   potential:                               15.976     0.328   0.0% |
    collect:                                 1.026     1.026   0.0% |
    p1:                                      9.022     9.022   0.1% |
    p2:                                      3.076     3.076   0.0% |
    sum:                                     2.524     2.524   0.0% |
   splines:                                  4.230     4.230   0.0% |
 vbar:                                       0.212     0.212   0.0% |
LCAO initialization:                        52.598     1.261   0.0% |
 LCAO eigensolver:                          35.814     0.006   0.0% |
  Calculate projections:                     0.000     0.000   0.0% |
  DenseAtomicCorrection:                     0.000     0.000   0.0% |
  Distribute overlap matrix:                34.868    34.868   0.2% |
  Orbital Layouts:                           0.735     0.735   0.0% |
  Potential matrix:                          0.065     0.065   0.0% |
  Sum over cells:                            0.140     0.140   0.0% |
 LCAO to grid:                              13.680    13.680   0.1% |
 Set positions (LCAO WFS):                   1.842     1.283   0.0% |
  Basic WFS set positions:                   0.002     0.002   0.0% |
  Basis functions set positions:             0.000     0.000   0.0% |
  P tci:                                     0.001     0.001   0.0% |
  ST tci:                                    0.454     0.454   0.0% |
  mktci:                                     0.102     0.102   0.0% |
Redistribute:                                0.012     0.012   0.0% |
SCF-cycle:                               12693.395   172.014   1.2% |
 Davidson:                               11500.854  3594.759  25.2% |---------|
  Apply hamiltonian:                       244.723   244.723   1.7% ||
  Subspace diag:                          1146.732     0.033   0.0% |
   calc_h_matrix:                          556.597   318.929   2.2% ||
    Apply hamiltonian:                     237.669   237.669   1.7% ||
   diagonalize:                             27.947    27.947   0.2% |
   rotate_psi:                             562.155   562.155   3.9% |-|
  calc. matrices:                         5255.185  2137.860  15.0% |-----|
   Apply hamiltonian:                     3117.325  3117.325  21.8% |--------|
  diagonalize:                             151.682   151.682   1.1% |
  rotate_psi:                             1107.773  1107.773   7.8% |--|
 Density:                                   27.715     0.007   0.0% |
  Atomic density matrices:                   1.320     1.320   0.0% |
  Mix:                                       4.565     4.565   0.0% |
  Multipole moments:                         0.100     0.100   0.0% |
  Pseudo density:                           21.724    13.878   0.1% |
   Symmetrize density:                       7.846     7.846   0.1% |
 Hamiltonian:                              857.292     0.031   0.0% |
  Atomic:                                    0.058     0.058   0.0% |
   XC Correction:                            0.001     0.001   0.0% |
  Calculate atomic Hamiltonians:             0.075     0.075   0.0% |
  Communicate:                              44.797    44.797   0.3% |
  Hartree integrate/restrict:                2.715     2.715   0.0% |
  Poisson:                                  43.535     1.920   0.0% |
   Communicate from 1D:                      3.854     3.854   0.0% |
   Communicate from 2D:                      7.522     7.522   0.1% |
   Communicate to 1D:                        2.103     2.103   0.0% |
   Communicate to 2D:                        8.720     8.720   0.1% |
   FFT 1D:                                  10.004    10.004   0.1% |
   FFT 2D:                                   9.413     9.413   0.1% |
  XC 3D grid:                              765.708   210.245   1.5% ||
   VdW-DF integral:                        555.463    33.019   0.2% |
    Convolution:                            54.630    54.630   0.4% |
    FFT:                                    35.653    35.653   0.2% |
    gather:                                177.525   177.525   1.2% |
    hmm1:                                   11.349    11.349   0.1% |
    hmm2:                                   24.269    24.269   0.2% |
    iFFT:                                   33.187    33.187   0.2% |
    potential:                             185.829     3.883   0.0% |
     collect:                               12.254    12.254   0.1% |
     p1:                                   107.846   107.846   0.8% |
     p2:                                    36.664    36.664   0.3% |
     sum:                                   25.182    25.182   0.2% |
    splines:                                 0.001     0.001   0.0% |
  vbar:                                      0.372     0.372   0.0% |
 Orthonormalize:                           135.520     0.004   0.0% |
  calc_s_matrix:                            11.247    11.247   0.1% |
  inverse-cholesky:                        102.612   102.612   0.7% |
  projections:                               0.001     0.001   0.0% |
  rotate_psi_s:                             21.656    21.656   0.2% |
Set symmetry:                                0.002     0.002   0.0% |
Other:                                     971.734   971.734   6.8% |--|
-------------------------------------------------------------------
Total:                                             14284.326 100.0%

Memory usage: 2.01 GiB
Date: Thu Sep 28 00:09:36 2023
