
  ___ ___ ___ _ _ _  
 |   |   |_  | | | | 
 | | | | | . | | | | 
 |__ |  _|___|_____|  22.8.0
 |___|_|             

User:   s204775@a120.nifl.fysik.dtu.dk
Date:   Wed Sep 27 20:27:01 2023
Arch:   x86_64
Pid:    6935
CWD:    /home/cat/s204775/projects/Bachelor_project/O_missing_features
Python: 3.10.4
gpaw:   /home/modules/software/GPAW/22.8.0-intel-2022a/lib/python3.10/site-packages/gpaw
_gpaw:  /home/modules/software/GPAW/22.8.0-intel-2022a/lib/python3.10/site-packages/
        _gpaw.cpython-310-x86_64-linux-gnu.so
ase:    /home/modules/software/ASE/3.22.1-intel-2022a/lib/python3.10/site-packages/ase (version 3.22.1)
numpy:  /home/modules/software/SciPy-bundle/2022.05-intel-2022a/lib/python3.10/site-packages/numpy (version 1.22.3)
scipy:  /home/modules/software/SciPy-bundle/2022.05-intel-2022a/lib/python3.10/site-packages/scipy (version 1.8.1)
libxc:  5.2.3
units:  Angstrom and eV
cores: 40
OpenMP: False
OMP_NUM_THREADS: 1

Input parameters:
  basis: dzp
  h: 0.18
  kpts: {size: (4, 4, 1)}
  xc: BEEF-vdW

System changes: positions, numbers, cell, pbc, initial_charges, initial_magmoms 

Initialize ...

species:
  Au:
    name: Gold
    id: b12133f335f6ca0d89c4b1ccaa844e9a
    Z: 79.0
    valence: 11
    core: 68
    charge: 0.0
    file: /home/modules/software/GPAW-setups/0.9.20000/Au.PBE.gz
    compensation charges: {type: gauss,
                           rc: 0.42,
                           lmax: 2}
    cutoffs: {filter: 2.33,
              core: 2.81}
    valence states:
      #              energy  rcut
      - 6s(1.00)    -5.728   1.323
      - 6p(0.00)    -0.775   1.323
      - 5d(10.00)    -6.891   1.323
      -  s          21.484   1.323
      -  p          26.436   1.323
      -  d          20.321   1.323
  
    # LCAO basis set for Au:
    #   Name: dzp
    #   File: /home/modules/software/GPAW-setups/0.9.20000/Au.dzp.basis.gz
    #   Number of radial functions: 5
    #   Number of spherical harmonics: 15
    #     l=0, rc=8.5938 Bohr: 6s-sz confined orbital
    #     l=2, rc=5.9219 Bohr: 5d-sz confined orbital
    #     l=0, rc=4.9844 Bohr: 6s-dz split-valence wave
    #     l=2, rc=3.5156 Bohr: 5d-dz split-valence wave
    #     l=1, rc=8.5938 Bohr: p-type Gaussian polarization
    #   Number of RI-basis functions 0

  O:
    name: Oxygen
    id: 32ecd46bf208036f09c70b0ec9a88b78
    Z: 8.0
    valence: 6
    core: 2
    charge: 0.0
    file: /home/modules/software/GPAW-setups/0.9.20000/O.PBE.gz
    compensation charges: {type: gauss,
                           rc: 0.21,
                           lmax: 2}
    cutoffs: {filter: 1.17,
              core: 0.83}
    valence states:
      #              energy  rcut
      - 2s(2.00)   -23.961   0.688
      - 2p(4.00)    -9.029   0.598
      -  s           3.251   0.688
      -  p          18.182   0.598
      -  d           0.000   0.619
  
    # LCAO basis set for O:
    #   Name: dzp
    #   File: /home/modules/software/GPAW-setups/0.9.20000/O.dzp.basis.gz
    #   Number of radial functions: 5
    #   Number of spherical harmonics: 13
    #     l=0, rc=4.3438 Bohr: 2s-sz confined orbital
    #     l=1, rc=5.3906 Bohr: 2p-sz confined orbital
    #     l=0, rc=2.2969 Bohr: 2s-dz split-valence wave
    #     l=1, rc=2.8906 Bohr: 2p-dz split-valence wave
    #     l=2, rc=5.3906 Bohr: d-type Gaussian polarization
    #   Number of RI-basis functions 0

Reference energy: -18599578.612235  # eV

Spin-paired calculation

Convergence criteria:
 Maximum [total energy] change in last 3 cyles: 0.0005 eV / electron
 Maximum integral of absolute [dens]ity change: 0.0001 electrons / valence electron
 Maximum integral of absolute [eigenst]ate change: 4e-08 eV^2 / valence electron
 Maximum number of scf [iter]ations: 333
 (Square brackets indicate name in SCF output, whereas a 'c' in
 the SCF output indicates the quantity has converged.)

Symmetries present (total): 1

  ( 1  0  0)
  ( 0  1  0)
  ( 0  0  1)

16 k-points: 4 x 4 x 1 Monkhorst-Pack grid
8 k-points in the irreducible part of the Brillouin zone
       k-points in crystal coordinates                weights
   0:     0.12500000   -0.37500000    0.00000000          2/16
   1:     0.12500000   -0.12500000    0.00000000          2/16
   2:     0.12500000    0.12500000    0.00000000          2/16
   3:     0.12500000    0.37500000    0.00000000          2/16
   4:     0.37500000   -0.37500000    0.00000000          2/16
   5:     0.37500000   -0.12500000    0.00000000          2/16
   6:     0.37500000    0.12500000    0.00000000          2/16
   7:     0.37500000    0.37500000    0.00000000          2/16

Wave functions: Uniform real-space grid
  Kinetic energy operator: 8*3+1=25 point O(h^6) finite-difference Laplacian
  ScaLapack parameters: grid=1x1, blocksize=None
  Wavefunction extrapolation:
    Improved wavefunction reuse through dual PAW basis 

Occupation numbers: Fermi-Dirac:
  width: 0.1000  # eV
 

Eigensolver
   Davidson(niter=2) 

Densities:
  Coarse grid: 44*44*152 grid
  Fine grid: 88*88*304 grid
  Total Charge: 0.000000 

Density mixing:
  Method: separate
  Backend: pulay
  Linear mixing parameter: 0.05
  old densities: 5
  Damping of long wavelength oscillations: 50 

Hamiltonian:
  XC and Coulomb potentials evaluated on a 88*88*304 grid
  Using the BEEF-vdW Exchange-Correlation functional
  Interpolation: tri-quintic (5. degree polynomial)
  Poisson solver: FastPoissonSolver using
    Stencil: 8*3+1=25 point O(h^6) finite-difference Laplacian
    FFT axes: [0, 1]
    FST axes: [2]
 

XC parameters: BEEF-vdW with 2 nearest neighbor stencil

Memory estimate:
  Process memory now: 210.95 MiB
  Calculator: 533.62 MiB
    Density: 64.22 MiB
      Arrays: 11.52 MiB
      Localized functions: 48.27 MiB
      Mixer: 4.43 MiB
    Hamiltonian: 11.13 MiB
      Arrays: 7.53 MiB
      XC: 0.00 MiB
      Poisson: 0.00 MiB
      vbar: 3.59 MiB
    Wavefunctions: 458.27 MiB
      Arrays psit_nG: 218.01 MiB
      Eigensolver: 231.69 MiB
      Projections: 0.50 MiB
      Projectors: 8.08 MiB

Total number of cores used: 40
Parallelization over k-points: 8
Domain decomposition: 1 x 1 x 5

Number of atoms: 37
Number of atomic orbitals: 553
Number of bands in calculation: 246
Number of valence electrons: 402
Bands to converge: occupied

... initialized

Initializing position-dependent things.

Density initialized from atomic densities
Creating initial wave functions:
  246 bands from LCAO basis set

                                               
                                               
                                               
                                               
                                               
                     O                         
           Au     Au     Au                    
                                               
            AAu    AAu     AAu                 
               Au     Au     AAu               
              Au     Au                        
               AAu    AAu     AAu              
                                               
                 Au     Au      Au             
                                               
           Au     AAu    AAu      Au           
                                               
             Au     Au      Au                 
               Au     Au      Au               
                                               
                                               
                                               
                                               

Positions:
   0 Au     0.000000    0.000000    9.999999    ( 0.0000,  0.0000,  0.0000)
   1 Au     1.496891    0.864230   12.444412    ( 0.0000,  0.0000,  0.0000)
   2 Au    -0.000000    1.740301   14.871092    ( 0.0000,  0.0000,  0.0000)
   3 Au    -0.000000    0.000000   17.354004    ( 0.0000,  0.0000,  0.0000)
   4 Au    -1.496891    2.592691    9.999999    ( 0.0000,  0.0000,  0.0000)
   5 Au    -0.000000    3.456922   12.444412    ( 0.0000,  0.0000,  0.0000)
   6 Au    -1.501435    4.318529   14.890878    ( 0.0000,  0.0000,  0.0000)
   7 Au    -1.494007    2.589800   17.376551    ( 0.0000,  0.0000,  0.0000)
   8 Au    -2.993782    5.185383    9.999999    ( 0.0000,  0.0000,  0.0000)
   9 Au    -1.496891    6.049613   12.444412    ( 0.0000,  0.0000,  0.0000)
  10 Au    -2.983528    6.907923   14.871092    ( 0.0000,  0.0000,  0.0000)
  11 Au    -2.994844    5.189326   17.376551    ( 0.0000,  0.0000,  0.0000)
  12 Au     2.993782    0.000000    9.999999    ( 0.0000,  0.0000,  0.0000)
  13 Au     4.490673    0.864230   12.444412    ( 0.0000,  0.0000,  0.0000)
  14 Au     2.992384    1.727654   14.893737    ( 0.0000,  0.0000,  0.0000)
  15 Au     2.989836   -0.001052   17.376551    ( 0.0000,  0.0000,  0.0000)
  16 Au     1.496891    2.592691    9.999999    ( 0.0000,  0.0000,  0.0000)
  17 Au     2.993782    3.456922   12.444412    ( 0.0000,  0.0000,  0.0000)
  18 Au     1.501435    4.318529   14.890878    ( 0.0000,  0.0000,  0.0000)
  19 Au     1.494007    2.589800   17.376551    ( 0.0000,  0.0000,  0.0000)
  20 Au    -0.000000    5.185383    9.999999    ( 0.0000,  0.0000,  0.0000)
  21 Au     1.496891    6.049613   12.444412    ( 0.0000,  0.0000,  0.0000)
  22 Au    -0.000000    6.919091   14.890878    ( 0.0000,  0.0000,  0.0000)
  23 Au    -0.000000    5.185383   17.386406    ( 0.0000,  0.0000,  0.0000)
  24 Au     5.987564    0.000000    9.999999    ( 0.0000,  0.0000,  0.0000)
  25 Au     7.484455    0.864230   12.444412    ( 0.0000,  0.0000,  0.0000)
  26 Au     5.988962    1.727654   14.893737    ( 0.0000,  0.0000,  0.0000)
  27 Au     5.991510   -0.001052   17.376551    ( 0.0000,  0.0000,  0.0000)
  28 Au     4.490673    2.592691    9.999999    ( 0.0000,  0.0000,  0.0000)
  29 Au     5.987564    3.456922   12.444412    ( 0.0000,  0.0000,  0.0000)
  30 Au     4.490673    4.322767   14.893737    ( 0.0000,  0.0000,  0.0000)
  31 Au     4.490673    2.592691   17.388532    ( 0.0000,  0.0000,  0.0000)
  32 Au     2.993782    5.185383    9.999999    ( 0.0000,  0.0000,  0.0000)
  33 Au     4.490673    6.049613   12.444412    ( 0.0000,  0.0000,  0.0000)
  34 Au     2.983528    6.907923   14.871092    ( 0.0000,  0.0000,  0.0000)
  35 Au     2.994844    5.189326   17.376551    ( 0.0000,  0.0000,  0.0000)
  36 O      1.494007    4.318885   18.241093    ( 0.0000,  0.0000,  0.0000)

Unit cell:
           periodic     x           y           z      points  spacing
  1. axis:    yes    8.981346    0.000000    0.000000    44     0.1768
  2. axis:    yes   -4.490673    7.778074    0.000000    44     0.1768
  3. axis:    no     0.000000    0.000000   27.333237   152     0.1798

  Lengths:   8.981346   8.981346  27.333237
  Angles:   90.000000  90.000000 120.000000

Effective grid spacing dv^(1/3) = 0.1865

     iter     time        total  log10-change:
                         energy  eigst   dens
iter:   1 20:27:47 -12051.480903
iter:   2 20:28:14 -12049.929170  -0.61  -1.30
iter:   3 20:28:41 -12048.388382  -1.03  -1.32
iter:   4 20:29:08 -12044.761439  -1.08  -1.36
iter:   5 20:29:35 -12044.083445  -1.13  -1.52
iter:   6 20:30:02 -12044.138972  -1.99  -1.77
iter:   7 20:30:29 -12046.990945  -1.17  -1.79
iter:   8 20:30:56 -12047.523778  -1.92  -1.76
iter:   9 20:31:23 -12057.078741  -0.98  -1.71
iter:  10 20:31:50 -12044.235655  -0.65  -1.42
iter:  11 20:32:17 -12044.835759  -0.77  -2.07
iter:  12 20:32:45 -12044.176048  -2.13  -2.01
iter:  13 20:33:12 -12044.078463  -2.30  -2.27
iter:  14 20:33:39 -12044.074576c -2.85  -2.46
iter:  15 20:34:06 -12044.085299c -2.73  -2.53
iter:  16 20:34:33 -12044.081690c -3.52  -2.57
iter:  17 20:35:00 -12044.058947c -3.26  -2.59
iter:  18 20:35:27 -12044.055900c -3.23  -2.71
iter:  19 20:35:54 -12044.048196c -3.53  -2.79
iter:  20 20:36:21 -12044.045841c -4.11  -3.08
iter:  21 20:36:48 -12044.045989c -4.40  -3.19
iter:  22 20:37:15 -12044.045946c -4.66  -3.29
iter:  23 20:37:42 -12044.045826c -5.39  -3.38
iter:  24 20:38:09 -12044.045887c -5.12  -3.44
iter:  25 20:38:36 -12044.045783c -5.40  -3.53
iter:  26 20:39:03 -12044.045735c -5.46  -3.66
iter:  27 20:39:30 -12044.045781c -5.70  -3.91
iter:  28 20:39:57 -12044.045757c -6.57  -4.00c
iter:  29 20:40:24 -12044.045729c -6.19  -4.04c
iter:  30 20:40:51 -12044.045759c -6.46  -4.12c
iter:  31 20:41:18 -12044.045739c -6.64  -4.24c
iter:  32 20:41:45 -12044.045740c -7.28  -4.32c
iter:  33 20:42:12 -12044.045760c -6.72  -4.37c
iter:  34 20:42:39 -12044.045760c -7.38  -4.48c
iter:  35 20:43:06 -12044.045747c -7.06  -4.51c
iter:  36 20:43:33 -12044.045750c -7.71c -4.61c

Converged after 36 iterations.

Dipole moment: (-4.243087, -7.154103, -0.063381) |e|*Ang

Energy contributions relative to reference atoms: (reference = -18599578.612235)

Kinetic:       +725.743387
Potential:     -725.106776
External:        +0.000000
XC:            -12049.405907
Entropy (-ST):   -0.413003
Local:           +4.930048
--------------------------
Free energy:   -12044.252252
Extrapolated:  -12044.045750

Showing only first 2 kpts
 Kpt  Band  Eigenvalues  Occupancy
  0   199     -5.78873    1.95333
  0   200     -5.60313    1.73481
  0   201     -5.47818    1.30436
  0   202     -5.16295    0.14843

  1   199     -6.13511    1.99850
  1   200     -6.05991    1.99683
  1   201     -5.88587    1.98207
  1   202     -5.57469    1.66228


Fermi level: -5.41531

No gap

Forces in eV/Ang:
  0 Au   -0.00464    0.00251   -0.17414
  1 Au    0.00475    0.00074    0.12847
  2 Au    0.04252   -0.02185    0.03743
  3 Au    0.07366   -0.04430   -0.12307
  4 Au   -0.01789   -0.02054   -0.12856
  5 Au   -0.00621    0.00435    0.05814
  6 Au    0.00449    0.04784    0.01838
  7 Au   -0.30767   -0.17163   -0.08147
  8 Au    0.00355   -0.00018   -0.15420
  9 Au    0.00603   -0.00343    0.07618
 10 Au   -0.00045    0.00075   -0.02140
 11 Au   -0.01410    0.07764   -0.11464
 12 Au    0.00205   -0.00310   -0.15425
 13 Au   -0.01190   -0.03995    0.13884
 14 Au   -0.03941   -0.01165    0.02737
 15 Au   -0.07418   -0.02823   -0.11605
 16 Au    0.00055   -0.00008   -0.12065
 17 Au   -0.01905    0.01094    0.11925
 18 Au   -0.00400    0.00331   -0.43648
 19 Au   -0.00900   -4.65204   -1.54927
 20 Au    0.00050   -0.00052   -0.07912
 21 Au   -0.00691    0.00341    0.05810
 22 Au   -0.03934   -0.02827    0.01920
 23 Au   -4.10299    2.38050   -1.55390
 24 Au    0.00890    0.02593   -0.12881
 25 Au    0.00588   -0.00354    0.14144
 26 Au   -0.00805    0.00485   -0.00761
 27 Au   -0.00429    0.34873   -0.08060
 28 Au    0.02686   -0.01549   -0.10370
 29 Au    0.02850    0.03027    0.13866
 30 Au   -0.01016    0.03913    0.02768
 31 Au    0.31198   -0.17918   -0.06738
 32 Au    0.00069   -0.00042   -0.12059
 33 Au    0.00164   -0.00447    0.12869
 34 Au    0.03940   -0.02643    0.03845
 35 Au    3.93506    2.29383   -1.49808
 36 O     0.21273   -0.02291    5.68248

      Step     Time          Energy         fmax
BFGS:    0 20:43:47   -12044.045750        5.6865
System changes: positions 

Initializing position-dependent things.

Density initialized from wave functions
                                               
                                               
                                               
                                               
                                               
                     O                         
           Au     Au      Au                   
                                               
            AAu    AAu     AAu                 
               Au     Au      Au               
              Au     Au      Au                
               AAu    AAu     AAu              
                                               
                 Au     Au      Au             
                                               
           Au     AAu    AAu      Au           
                                               
             Au     Au      Au                 
               Au     Au      Au               
                                               
                                               
                                               
                                               

Positions:
   0 Au     0.000000    0.000000    9.999999    ( 0.0000,  0.0000,  0.0000)
   1 Au     1.496891    0.864230   12.444412    ( 0.0000,  0.0000,  0.0000)
   2 Au     0.000607    1.739989   14.871627    ( 0.0000,  0.0000,  0.0000)
   3 Au     0.001052   -0.000633   17.352245    ( 0.0000,  0.0000,  0.0000)
   4 Au    -1.496891    2.592691    9.999999    ( 0.0000,  0.0000,  0.0000)
   5 Au    -0.000000    3.456922   12.444412    ( 0.0000,  0.0000,  0.0000)
   6 Au    -1.501371    4.319212   14.891140    ( 0.0000,  0.0000,  0.0000)
   7 Au    -1.498402    2.587348   17.375387    ( 0.0000,  0.0000,  0.0000)
   8 Au    -2.993782    5.185383    9.999999    ( 0.0000,  0.0000,  0.0000)
   9 Au    -1.496891    6.049613   12.444412    ( 0.0000,  0.0000,  0.0000)
  10 Au    -2.983534    6.907934   14.870786    ( 0.0000,  0.0000,  0.0000)
  11 Au    -2.995046    5.190435   17.374913    ( 0.0000,  0.0000,  0.0000)
  12 Au     2.993782    0.000000    9.999999    ( 0.0000,  0.0000,  0.0000)
  13 Au     4.490673    0.864230   12.444412    ( 0.0000,  0.0000,  0.0000)
  14 Au     2.991821    1.727487   14.894128    ( 0.0000,  0.0000,  0.0000)
  15 Au     2.988776   -0.001455   17.374893    ( 0.0000,  0.0000,  0.0000)
  16 Au     1.496891    2.592691    9.999999    ( 0.0000,  0.0000,  0.0000)
  17 Au     2.993782    3.456922   12.444412    ( 0.0000,  0.0000,  0.0000)
  18 Au     1.501378    4.318576   14.884642    ( 0.0000,  0.0000,  0.0000)
  19 Au     1.493879    2.523342   17.354418    ( 0.0000,  0.0000,  0.0000)
  20 Au    -0.000000    5.185383    9.999999    ( 0.0000,  0.0000,  0.0000)
  21 Au     1.496891    6.049613   12.444412    ( 0.0000,  0.0000,  0.0000)
  22 Au    -0.000562    6.918687   14.891152    ( 0.0000,  0.0000,  0.0000)
  23 Au    -0.058614    5.219390   17.364208    ( 0.0000,  0.0000,  0.0000)
  24 Au     5.987564    0.000000    9.999999    ( 0.0000,  0.0000,  0.0000)
  25 Au     7.484455    0.864230   12.444412    ( 0.0000,  0.0000,  0.0000)
  26 Au     5.988847    1.727723   14.893629    ( 0.0000,  0.0000,  0.0000)
  27 Au     5.991449    0.003930   17.375399    ( 0.0000,  0.0000,  0.0000)
  28 Au     4.490673    2.592691    9.999999    ( 0.0000,  0.0000,  0.0000)
  29 Au     5.987564    3.456922   12.444412    ( 0.0000,  0.0000,  0.0000)
  30 Au     4.490528    4.323326   14.894133    ( 0.0000,  0.0000,  0.0000)
  31 Au     4.495130    2.590132   17.387569    ( 0.0000,  0.0000,  0.0000)
  32 Au     2.993782    5.185383    9.999999    ( 0.0000,  0.0000,  0.0000)
  33 Au     4.490673    6.049613   12.444412    ( 0.0000,  0.0000,  0.0000)
  34 Au     2.984091    6.907546   14.871641    ( 0.0000,  0.0000,  0.0000)
  35 Au     3.051060    5.222095   17.355150    ( 0.0000,  0.0000,  0.0000)
  36 O      1.497046    4.318558   18.322272    ( 0.0000,  0.0000,  0.0000)

Unit cell:
           periodic     x           y           z      points  spacing
  1. axis:    yes    8.981346    0.000000    0.000000    44     0.1768
  2. axis:    yes   -4.490673    7.778074    0.000000    44     0.1768
  3. axis:    no     0.000000    0.000000   27.333237   152     0.1798

  Lengths:   8.981346   8.981346  27.333237
  Angles:   90.000000  90.000000 120.000000

Effective grid spacing dv^(1/3) = 0.1865

     iter     time        total  log10-change:
                         energy  eigst   dens
iter:   1 20:44:43 -12046.269895  -1.09
iter:   2 20:45:11 -12045.617675  -2.16  -2.24
iter:   3 20:45:38 -12045.163836  -1.96  -2.33
iter:   4 20:46:05 -12045.146859  -3.04  -2.69
iter:   5 20:46:33 -12045.134668c -3.07  -2.82
iter:   6 20:47:00 -12045.176343c -2.68  -2.87
iter:   7 20:47:27 -12045.113449c -3.08  -2.78
iter:   8 20:47:55 -12045.110378c -4.25  -3.12
iter:   9 20:48:22 -12045.109664c -4.46  -3.29
iter:  10 20:48:50 -12045.109530c -4.19  -3.39
iter:  11 20:49:17 -12045.109423c -4.74  -3.54
iter:  12 20:49:44 -12045.108836c -4.95  -3.58
iter:  13 20:50:11 -12045.108848c -5.08  -3.89
iter:  14 20:50:39 -12045.108836c -5.70  -3.98
iter:  15 20:51:06 -12045.108774c -5.76  -4.07c
iter:  16 20:51:33 -12045.108756c -6.10  -4.25c
iter:  17 20:52:01 -12045.108750c -6.37  -4.38c
iter:  18 20:52:28 -12045.108747c -6.47  -4.51c
iter:  19 20:52:55 -12045.108749c -7.01  -4.67c
iter:  20 20:53:23 -12045.108750c -6.87  -4.72c
iter:  21 20:53:50 -12045.108754c -7.47c -4.80c

Converged after 21 iterations.

Dipole moment: (-3.903208, -7.347579, -0.138452) |e|*Ang

Energy contributions relative to reference atoms: (reference = -18599578.612235)

Kinetic:       +708.211180
Potential:     -710.119258
External:        +0.000000
XC:            -12047.873163
Entropy (-ST):   -0.412984
Local:           +4.878978
--------------------------
Free energy:   -12045.315246
Extrapolated:  -12045.108754

Showing only first 2 kpts
 Kpt  Band  Eigenvalues  Occupancy
  0   199     -5.84287    1.95057
  0   200     -5.66787    1.74547
  0   201     -5.53788    1.30294
  0   202     -5.22762    0.15496

  1   199     -6.19270    1.99847
  1   200     -6.12999    1.99713
  1   201     -5.94616    1.98212
  1   202     -5.63381    1.65976


Fermi level: -5.47533

No gap

Forces in eV/Ang:
  0 Au   -0.00391    0.00214   -0.17707
  1 Au    0.00482    0.00133    0.12834
  2 Au    0.01381   -0.01590    0.00872
  3 Au    0.04854   -0.03118   -0.10370
  4 Au   -0.01749   -0.01960   -0.12940
  5 Au   -0.01152    0.00012    0.05353
  6 Au   -0.00240    0.01902   -0.00916
  7 Au   -0.24229   -0.13361   -0.07138
  8 Au    0.00394    0.00005   -0.15707
  9 Au    0.00579   -0.00332    0.07533
 10 Au   -0.00108    0.00054   -0.03808
 11 Au   -0.01686    0.05902   -0.09980
 12 Au    0.00202   -0.00350   -0.15713
 13 Au   -0.01618   -0.04229    0.14759
 14 Au   -0.01134   -0.00659   -0.00382
 15 Au   -0.05857   -0.01758   -0.10041
 16 Au    0.00177   -0.00024   -0.12328
 17 Au   -0.01382    0.00799    0.11516
 18 Au   -0.01144    0.00682   -0.23186
 19 Au   -0.01071   -2.05449   -0.59170
 20 Au   -0.00001   -0.00009   -0.08126
 21 Au   -0.00586    0.01002    0.05347
 22 Au   -0.01794   -0.00761   -0.00898
 23 Au   -1.78655    1.03357   -0.59806
 24 Au    0.00824    0.02502   -0.12950
 25 Au    0.01023   -0.00594    0.14955
 26 Au   -0.00754    0.00446   -0.01830
 27 Au   -0.00481    0.27569   -0.07095
 28 Au    0.02553   -0.01475   -0.10465
 29 Au    0.02847    0.03513    0.14741
 30 Au   -0.00074    0.01336   -0.00247
 31 Au    0.24520   -0.14086   -0.05566
 32 Au    0.00128   -0.00139   -0.12323
 33 Au    0.00119   -0.00487    0.12848
 34 Au    0.02081   -0.00493    0.01011
 35 Au    1.76118    1.03271   -0.58351
 36 O     0.02570    0.00970    2.79435

BFGS:    1 20:54:04   -12045.108754        2.7945
System changes: positions 

Initializing position-dependent things.

Density initialized from wave functions
                                               
                                               
                                               
                                               
                                               
                     O                         
           Au     Au      Au                   
                                               
            AAu    AAu     AAu                 
               Au     Au      Au               
              Au     Au      Au                
               AAu    AAu     AAu              
                                               
                 Au     Au      Au             
                                               
           Au     AAu    AAu      Au           
                                               
             Au     Au      Au                 
               Au     Au      Au               
                                               
                                               
                                               
                                               

Positions:
   0 Au     0.000000    0.000000    9.999999    ( 0.0000,  0.0000,  0.0000)
   1 Au     1.496891    0.864230   12.444412    ( 0.0000,  0.0000,  0.0000)
   2 Au     0.000972    1.739571   14.871858    ( 0.0000,  0.0000,  0.0000)
   3 Au     0.002329   -0.001453   17.349520    ( 0.0000,  0.0000,  0.0000)
   4 Au    -1.496891    2.592691    9.999999    ( 0.0000,  0.0000,  0.0000)
   5 Au    -0.000000    3.456922   12.444412    ( 0.0000,  0.0000,  0.0000)
   6 Au    -1.501434    4.319714   14.890902    ( 0.0000,  0.0000,  0.0000)
   7 Au    -1.504772    2.583835   17.373511    ( 0.0000,  0.0000,  0.0000)
   8 Au    -2.993782    5.185383    9.999999    ( 0.0000,  0.0000,  0.0000)
   9 Au    -1.496891    6.049613   12.444412    ( 0.0000,  0.0000,  0.0000)
  10 Au    -2.983563    6.907948   14.869787    ( 0.0000,  0.0000,  0.0000)
  11 Au    -2.995489    5.191987   17.372290    ( 0.0000,  0.0000,  0.0000)
  12 Au     2.993782    0.000000    9.999999    ( 0.0000,  0.0000,  0.0000)
  13 Au     4.490673    0.864230   12.444412    ( 0.0000,  0.0000,  0.0000)
  14 Au     2.991521    1.727314   14.894030    ( 0.0000,  0.0000,  0.0000)
  15 Au     2.987237   -0.001918   17.372254    ( 0.0000,  0.0000,  0.0000)
  16 Au     1.496891    2.592691    9.999999    ( 0.0000,  0.0000,  0.0000)
  17 Au     2.993782    3.456922   12.444412    ( 0.0000,  0.0000,  0.0000)
  18 Au     1.501078    4.318755   14.878538    ( 0.0000,  0.0000,  0.0000)
  19 Au     1.493597    2.469191   17.338808    ( 0.0000,  0.0000,  0.0000)
  20 Au    -0.000000    5.185383    9.999999    ( 0.0000,  0.0000,  0.0000)
  21 Au     1.496891    6.049613   12.444412    ( 0.0000,  0.0000,  0.0000)
  22 Au    -0.001035    6.918486   14.890918    ( 0.0000,  0.0000,  0.0000)
  23 Au    -0.105707    5.246635   17.348430    ( 0.0000,  0.0000,  0.0000)
  24 Au     5.987564    0.000000    9.999999    ( 0.0000,  0.0000,  0.0000)
  25 Au     7.484455    0.864230   12.444412    ( 0.0000,  0.0000,  0.0000)
  26 Au     5.988649    1.727840   14.893149    ( 0.0000,  0.0000,  0.0000)
  27 Au     5.991323    0.011177   17.373535    ( 0.0000,  0.0000,  0.0000)
  28 Au     4.490673    2.592691    9.999999    ( 0.0000,  0.0000,  0.0000)
  29 Au     5.987564    3.456922   12.444412    ( 0.0000,  0.0000,  0.0000)
  30 Au     4.490508    4.323679   14.894070    ( 0.0000,  0.0000,  0.0000)
  31 Au     4.501576    2.586429   17.386106    ( 0.0000,  0.0000,  0.0000)
  32 Au     2.993782    5.185383    9.999999    ( 0.0000,  0.0000,  0.0000)
  33 Au     4.490673    6.049613   12.444412    ( 0.0000,  0.0000,  0.0000)
  34 Au     2.984639    6.907415   14.871909    ( 0.0000,  0.0000,  0.0000)
  35 Au     3.097476    5.249312   17.339757    ( 0.0000,  0.0000,  0.0000)
  36 O      1.497734    4.318810   18.395878    ( 0.0000,  0.0000,  0.0000)

Unit cell:
           periodic     x           y           z      points  spacing
  1. axis:    yes    8.981346    0.000000    0.000000    44     0.1768
  2. axis:    yes   -4.490673    7.778074    0.000000    44     0.1768
  3. axis:    no     0.000000    0.000000   27.333237   152     0.1798

  Lengths:   8.981346   8.981346  27.333237
  Angles:   90.000000  90.000000 120.000000

Effective grid spacing dv^(1/3) = 0.1865

     iter     time        total  log10-change:
                         energy  eigst   dens
iter:   1 20:55:00 -12046.198450  -1.29
iter:   2 20:55:28 -12045.773009  -2.37  -2.33
iter:   3 20:55:55 -12045.517959  -2.26  -2.43
iter:   4 20:56:23 -12045.507138  -3.22  -2.78
iter:   5 20:56:50 -12045.500959c -3.16  -2.92
iter:   6 20:57:18 -12045.530174c -2.80  -2.94
iter:   7 20:57:45 -12045.483698c -3.28  -2.83
iter:   8 20:58:12 -12045.481534c -4.37  -3.20
iter:   9 20:58:40 -12045.480800c -4.45  -3.34
iter:  10 20:59:07 -12045.480808c -4.33  -3.49
iter:  11 20:59:35 -12045.480617c -5.05  -3.64
iter:  12 21:00:02 -12045.480273c -5.12  -3.72
iter:  13 21:00:30 -12045.480231c -5.30  -4.00
iter:  14 21:00:57 -12045.480233c -5.91  -4.08c
iter:  15 21:01:25 -12045.480192c -5.78  -4.15c
iter:  16 21:01:52 -12045.480178c -6.27  -4.39c
iter:  17 21:02:19 -12045.480176c -6.52  -4.49c
iter:  18 21:02:47 -12045.480177c -6.97  -4.68c
iter:  19 21:03:14 -12045.480179c -7.33  -4.72c
iter:  20 21:03:42 -12045.480179c -7.17  -4.83c
iter:  21 21:04:09 -12045.480181c -7.67c -5.09c

Converged after 21 iterations.

Dipole moment: (-3.425582, -7.614439, -0.200749) |e|*Ang

Energy contributions relative to reference atoms: (reference = -18599578.612235)

Kinetic:       +700.815018
Potential:     -703.882140
External:        +0.000000
XC:            -12047.052831
Entropy (-ST):   -0.412602
Local:           +4.846073
--------------------------
Free energy:   -12045.686482
Extrapolated:  -12045.480181

Showing only first 2 kpts
 Kpt  Band  Eigenvalues  Occupancy
  0   199     -5.88806    1.94884
  0   200     -5.72064    1.75431
  0   201     -5.58691    1.30427
  0   202     -5.28056    0.16109

  1   199     -6.24179    1.99847
  1   200     -6.18456    1.99730
  1   201     -5.99290    1.98176
  1   202     -5.68132    1.65630


Fermi level: -5.52406

No gap

Forces in eV/Ang:
  0 Au   -0.00348    0.00194   -0.17687
  1 Au    0.00517    0.00177    0.12685
  2 Au   -0.00755   -0.00700   -0.01691
  3 Au    0.02023   -0.01495   -0.07729
  4 Au   -0.01573   -0.01825   -0.12859
  5 Au   -0.01650   -0.00392    0.04633
  6 Au   -0.00482   -0.00386   -0.03278
  7 Au   -0.16990   -0.09305   -0.05861
  8 Au    0.00403    0.00019   -0.15649
  9 Au    0.00527   -0.00301    0.07304
 10 Au    0.00081   -0.00072   -0.04999
 11 Au   -0.01820    0.03835   -0.08266
 12 Au    0.00192   -0.00362   -0.15653
 13 Au   -0.01979   -0.04382    0.15130
 14 Au    0.00991    0.00150   -0.03077
 15 Au   -0.04090   -0.00643   -0.08289
 16 Au    0.00252    0.00084   -0.12334
 17 Au   -0.00874    0.00509    0.10848
 18 Au   -0.01540    0.00887   -0.08331
 19 Au   -0.00559   -0.64248   -0.02996
 20 Au    0.00094   -0.00061   -0.08099
 21 Au   -0.00484    0.01634    0.04636
 22 Au    0.00080    0.00606   -0.03293
 23 Au   -0.55107    0.31861   -0.03908
 24 Au    0.00795    0.02281   -0.12865
 25 Au    0.01360   -0.00789    0.15338
 26 Au   -0.00748    0.00432   -0.03340
 27 Au   -0.00401    0.19364   -0.05832
 28 Au    0.02306   -0.01333   -0.10399
 29 Au    0.02799    0.03902    0.15115
 30 Au    0.00281   -0.00863   -0.02907
 31 Au    0.17321   -0.09956   -0.04246
 32 Au    0.00065   -0.00260   -0.12332
 33 Au    0.00098   -0.00539    0.12704
 34 Au    0.00269    0.00909   -0.01565
 35 Au    0.55791    0.32942   -0.03055
 36 O     0.00070    0.00770    1.07957

BFGS:    2 21:04:23   -12045.480181        1.0796
System changes: positions 

Initializing position-dependent things.

Density initialized from wave functions
                                               
                                               
                                               
                                               
                                               
                     O                         
           Au     Au      Au                   
                                               
            AAu    AAu     AAu                 
               Au     Au      Au               
              Au     Au      Au                
               AAu    AAu     AAu              
                                               
                 Au     Au      Au             
                                               
           Au     AAu    AAu      Au           
                                               
             Au     Au      Au                 
               Au     Au      Au               
                                               
                                               
                                               
                                               

Positions:
   0 Au     0.000000    0.000000    9.999999    ( 0.0000,  0.0000,  0.0000)
   1 Au     1.496891    0.864230   12.444412    ( 0.0000,  0.0000,  0.0000)
   2 Au     0.000898    1.739323   14.871552    ( 0.0000,  0.0000,  0.0000)
   3 Au     0.003061   -0.001965   17.347230    ( 0.0000,  0.0000,  0.0000)
   4 Au    -1.496891    2.592691    9.999999    ( 0.0000,  0.0000,  0.0000)
   5 Au    -0.000000    3.456922   12.444412    ( 0.0000,  0.0000,  0.0000)
   6 Au    -1.501551    4.319750   14.890147    ( 0.0000,  0.0000,  0.0000)
   7 Au    -1.509896    2.581023   17.371819    ( 0.0000,  0.0000,  0.0000)
   8 Au    -2.993782    5.185383    9.999999    ( 0.0000,  0.0000,  0.0000)
   9 Au    -1.496891    6.049613   12.444412    ( 0.0000,  0.0000,  0.0000)
  10 Au    -2.983552    6.907936   14.868486    ( 0.0000,  0.0000,  0.0000)
  11 Au    -2.995981    5.193171   17.369909    ( 0.0000,  0.0000,  0.0000)
  12 Au     2.993782    0.000000    9.999999    ( 0.0000,  0.0000,  0.0000)
  13 Au     4.490673    0.864230   12.444412    ( 0.0000,  0.0000,  0.0000)
  14 Au     2.991661    1.727305   14.893351    ( 0.0000,  0.0000,  0.0000)
  15 Au     2.986001   -0.002164   17.369865    ( 0.0000,  0.0000,  0.0000)
  16 Au     1.496891    2.592691    9.999999    ( 0.0000,  0.0000,  0.0000)
  17 Au     2.993782    3.456922   12.444412    ( 0.0000,  0.0000,  0.0000)
  18 Au     1.500679    4.318986   14.875317    ( 0.0000,  0.0000,  0.0000)
  19 Au     1.493412    2.442629   17.334457    ( 0.0000,  0.0000,  0.0000)
  20 Au    -0.000000    5.185383    9.999999    ( 0.0000,  0.0000,  0.0000)
  21 Au     1.496891    6.049613   12.444412    ( 0.0000,  0.0000,  0.0000)
  22 Au    -0.001129    6.918567   14.890162    ( 0.0000,  0.0000,  0.0000)
  23 Au    -0.128647    5.259903   17.343845    ( 0.0000,  0.0000,  0.0000)
  24 Au     5.987564    0.000000    9.999999    ( 0.0000,  0.0000,  0.0000)
  25 Au     7.484455    0.864230   12.444412    ( 0.0000,  0.0000,  0.0000)
  26 Au     5.988443    1.727960   14.892323    ( 0.0000,  0.0000,  0.0000)
  27 Au     5.991208    0.017015   17.371852    ( 0.0000,  0.0000,  0.0000)
  28 Au     4.490673    2.592691    9.999999    ( 0.0000,  0.0000,  0.0000)
  29 Au     5.987564    3.456922   12.444412    ( 0.0000,  0.0000,  0.0000)
  30 Au     4.490563    4.323578   14.893436    ( 0.0000,  0.0000,  0.0000)
  31 Au     4.506789    2.583433   17.384856    ( 0.0000,  0.0000,  0.0000)
  32 Au     2.993782    5.185383    9.999999    ( 0.0000,  0.0000,  0.0000)
  33 Au     4.490673    6.049613   12.444412    ( 0.0000,  0.0000,  0.0000)
  34 Au     2.984825    6.907577   14.871638    ( 0.0000,  0.0000,  0.0000)
  35 Au     3.120394    5.262797   17.335448    ( 0.0000,  0.0000,  0.0000)
  36 O      1.497924    4.319032   18.436348    ( 0.0000,  0.0000,  0.0000)

Unit cell:
           periodic     x           y           z      points  spacing
  1. axis:    yes    8.981346    0.000000    0.000000    44     0.1768
  2. axis:    yes   -4.490673    7.778074    0.000000    44     0.1768
  3. axis:    no     0.000000    0.000000   27.333237   152     0.1798

  Lengths:   8.981346   8.981346  27.333237
  Angles:   90.000000  90.000000 120.000000

Effective grid spacing dv^(1/3) = 0.1865

     iter     time        total  log10-change:
                         energy  eigst   dens
iter:   1 21:05:20 -12045.731003  -1.91
iter:   2 21:05:47 -12045.604611  -2.94  -2.58
iter:   3 21:06:15 -12045.555735c -3.07  -2.71
iter:   4 21:06:43 -12045.547877c -3.50  -3.02
iter:   5 21:07:10 -12045.548046c -3.72  -3.20
iter:   6 21:07:38 -12045.548460c -3.43  -3.21
iter:   7 21:08:05 -12045.541776c -4.15  -3.21
iter:   8 21:08:33 -12045.541373c -4.78  -3.51
iter:   9 21:09:00 -12045.541237c -4.92  -3.63
iter:  10 21:09:28 -12045.541191c -5.15  -3.86
iter:  11 21:09:55 -12045.541116c -5.43  -3.95
iter:  12 21:10:23 -12045.541089c -5.90  -4.21c
iter:  13 21:10:51 -12045.541071c -6.51  -4.29c
iter:  14 21:11:18 -12045.541062c -6.20  -4.39c
iter:  15 21:11:46 -12045.541054c -6.90  -4.63c
iter:  16 21:12:13 -12045.541065c -7.12  -4.69c
iter:  17 21:12:41 -12045.541063c -7.46c -4.90c

Converged after 17 iterations.

Dipole moment: (-3.038066, -7.827630, -0.231896) |e|*Ang

Energy contributions relative to reference atoms: (reference = -18599578.612235)

Kinetic:       +698.702164
Potential:     -702.118079
External:        +0.000000
XC:            -12046.751862
Entropy (-ST):   -0.412496
Local:           +4.832962
--------------------------
Free energy:   -12045.747312
Extrapolated:  -12045.541063

Showing only first 2 kpts
 Kpt  Band  Eigenvalues  Occupancy
  0   199     -5.91085    1.94803
  0   200     -5.74678    1.75805
  0   201     -5.61145    1.30496
  0   202     -5.30731    0.16459

  1   199     -6.26729    1.99849
  1   200     -6.20993    1.99732
  1   201     -6.01528    1.98140
  1   202     -5.70551    1.65570


Fermi level: -5.54846

No gap

Forces in eV/Ang:
  0 Au   -0.00373    0.00211   -0.17557
  1 Au    0.00511    0.00150    0.12428
  2 Au   -0.01391    0.00185   -0.02436
  3 Au    0.00302   -0.00407   -0.06106
  4 Au   -0.01431   -0.01750   -0.12740
  5 Au   -0.02008   -0.00676    0.04034
  6 Au   -0.00105   -0.01317   -0.03905
  7 Au   -0.12050   -0.06586   -0.04828
  8 Au    0.00402   -0.00009   -0.15491
  9 Au    0.00450   -0.00257    0.06980
 10 Au    0.00325   -0.00211   -0.05471
 11 Au   -0.01678    0.02467   -0.07304
 12 Au    0.00213   -0.00346   -0.15495
 13 Au   -0.02024   -0.04388    0.14984
 14 Au    0.01627    0.00929   -0.03887
 15 Au   -0.02852   -0.00035   -0.07313
 16 Au    0.00266    0.00186   -0.12320
 17 Au   -0.00522    0.00308    0.10284
 18 Au   -0.01672    0.00953   -0.01261
 19 Au    0.00089   -0.10307    0.16130
 20 Au    0.00202   -0.00123   -0.08069
 21 Au   -0.00415    0.02086    0.04042
 22 Au    0.01084    0.00748   -0.03936
 23 Au   -0.07722    0.04447    0.16564
 24 Au    0.00800    0.02120   -0.12744
 25 Au    0.01416   -0.00823    0.15239
 26 Au   -0.00732    0.00420   -0.04488
 27 Au   -0.00305    0.13762   -0.04804
 28 Au    0.02146   -0.01241   -0.10288
 29 Au    0.02780    0.03946    0.14975
 30 Au   -0.00064   -0.01803   -0.03735
 31 Au    0.12731   -0.07330   -0.03689
 32 Au   -0.00019   -0.00324   -0.12318
 33 Au    0.00118   -0.00522    0.12452
 34 Au   -0.00816    0.01040   -0.02351
 35 Au    0.09349    0.05305    0.15991
 36 O     0.01963   -0.00147    0.40336

BFGS:    3 21:12:55   -12045.541063        0.4038
System changes: positions 

Initializing position-dependent things.

Density initialized from wave functions
                                               
                                               
                                               
                                               
                                               
                     O                         
           Au     Au      Au                   
                                               
            AAu    AAu     AAu                 
               Au     Au      Au               
              Au     Au      Au                
               AAu    AAu     AAu              
                                               
                 Au     Au      Au             
                                               
           Au     AAu    AAu      Au           
                                               
             Au     Au      Au                 
               Au     Au      Au               
                                               
                                               
                                               
                                               

Positions:
   0 Au     0.000000    0.000000    9.999999    ( 0.0000,  0.0000,  0.0000)
   1 Au     1.496891    0.864230   12.444412    ( 0.0000,  0.0000,  0.0000)
   2 Au     0.000641    1.739302   14.871055    ( 0.0000,  0.0000,  0.0000)
   3 Au     0.003291   -0.002159   17.345591    ( 0.0000,  0.0000,  0.0000)
   4 Au    -1.496891    2.592691    9.999999    ( 0.0000,  0.0000,  0.0000)
   5 Au    -0.000000    3.456922   12.444412    ( 0.0000,  0.0000,  0.0000)
   6 Au    -1.501591    4.319531   14.889280    ( 0.0000,  0.0000,  0.0000)
   7 Au    -1.513268    2.579177   17.370556    ( 0.0000,  0.0000,  0.0000)
   8 Au    -2.993782    5.185383    9.999999    ( 0.0000,  0.0000,  0.0000)
   9 Au    -1.496891    6.049613   12.444412    ( 0.0000,  0.0000,  0.0000)
  10 Au    -2.983489    6.907895   14.867201    ( 0.0000,  0.0000,  0.0000)
  11 Au    -2.996395    5.193893   17.368034    ( 0.0000,  0.0000,  0.0000)
  12 Au     2.993782    0.000000    9.999999    ( 0.0000,  0.0000,  0.0000)
  13 Au     4.490673    0.864230   12.444412    ( 0.0000,  0.0000,  0.0000)
  14 Au     2.991976    1.727473   14.892506    ( 0.0000,  0.0000,  0.0000)
  15 Au     2.985199   -0.002230   17.367985    ( 0.0000,  0.0000,  0.0000)
  16 Au     1.496891    2.592691    9.999999    ( 0.0000,  0.0000,  0.0000)
  17 Au     2.993782    3.456922   12.444412    ( 0.0000,  0.0000,  0.0000)
  18 Au     1.500287    4.319211   14.874290    ( 0.0000,  0.0000,  0.0000)
  19 Au     1.493389    2.433924   17.336067    ( 0.0000,  0.0000,  0.0000)
  20 Au    -0.000000    5.185383    9.999999    ( 0.0000,  0.0000,  0.0000)
  21 Au     1.496891    6.049613   12.444412    ( 0.0000,  0.0000,  0.0000)
  22 Au    -0.000960    6.918710   14.889289    ( 0.0000,  0.0000,  0.0000)
  23 Au    -0.135960    5.264129   17.345498    ( 0.0000,  0.0000,  0.0000)
  24 Au     5.987564    0.000000    9.999999    ( 0.0000,  0.0000,  0.0000)
  25 Au     7.484455    0.864230   12.444412    ( 0.0000,  0.0000,  0.0000)
  26 Au     5.988263    1.728064   14.891320    ( 0.0000,  0.0000,  0.0000)
  27 Au     5.991126    0.020862   17.370595    ( 0.0000,  0.0000,  0.0000)
  28 Au     4.490673    2.592691    9.999999    ( 0.0000,  0.0000,  0.0000)
  29 Au     5.987564    3.456922   12.444412    ( 0.0000,  0.0000,  0.0000)
  30 Au     4.490556    4.323238   14.892628    ( 0.0000,  0.0000,  0.0000)
  31 Au     4.510308    2.581408   17.383894    ( 0.0000,  0.0000,  0.0000)
  32 Au     2.993782    5.185383    9.999999    ( 0.0000,  0.0000,  0.0000)
  33 Au     4.490673    6.049613   12.444412    ( 0.0000,  0.0000,  0.0000)
  34 Au     2.984724    6.907791   14.871165    ( 0.0000,  0.0000,  0.0000)
  35 Au     3.127972    5.267213   17.337052    ( 0.0000,  0.0000,  0.0000)
  36 O      1.498375    4.319045   18.453810    ( 0.0000,  0.0000,  0.0000)

Unit cell:
           periodic     x           y           z      points  spacing
  1. axis:    yes    8.981346    0.000000    0.000000    44     0.1768
  2. axis:    yes   -4.490673    7.778074    0.000000    44     0.1768
  3. axis:    no     0.000000    0.000000   27.333237   152     0.1798

  Lengths:   8.981346   8.981346  27.333237
  Angles:   90.000000  90.000000 120.000000

Effective grid spacing dv^(1/3) = 0.1865

     iter     time        total  log10-change:
                         energy  eigst   dens
iter:   1 21:13:51 -12045.585694  -2.77
iter:   2 21:14:19 -12045.558709  -3.68  -2.90
iter:   3 21:14:46 -12045.553036c -4.08  -3.07
iter:   4 21:15:14 -12045.550638c -4.28  -3.36
iter:   5 21:15:41 -12045.550231c -4.48  -3.62
iter:   6 21:16:09 -12045.550193c -4.40  -3.73
iter:   7 21:16:36 -12045.549807c -5.19  -3.76
iter:   8 21:17:03 -12045.549778c -5.55  -3.95
iter:   9 21:17:31 -12045.549757c -5.79  -4.08c
iter:  10 21:17:58 -12045.549741c -6.26  -4.37c
iter:  11 21:18:26 -12045.549753c -6.25  -4.40c
iter:  12 21:18:53 -12045.549736c -7.09  -4.52c
iter:  13 21:19:20 -12045.549726c -7.02  -4.64c
iter:  14 21:19:48 -12045.549730c -7.12  -4.79c
iter:  15 21:20:15 -12045.549725c -7.45c -5.00c

Converged after 15 iterations.

Dipole moment: (-2.772846, -7.972770, -0.243407) |e|*Ang

Energy contributions relative to reference atoms: (reference = -18599578.612235)

Kinetic:       +698.026760
Potential:     -701.553178
External:        +0.000000
XC:            -12046.646429
Entropy (-ST):   -0.412477
Local:           +4.829361
--------------------------
Free energy:   -12045.755964
Extrapolated:  -12045.549725

Showing only first 2 kpts
 Kpt  Band  Eigenvalues  Occupancy
  0   199     -5.91885    1.94776
  0   200     -5.75581    1.75908
  0   201     -5.61983    1.30422
  0   202     -5.31683    0.16609

  1   199     -6.27685    1.99851
  1   200     -6.21869    1.99733
  1   201     -6.02291    1.98123
  1   202     -5.71468    1.65751


Fermi level: -5.55700

No gap

Forces in eV/Ang:
  0 Au   -0.00338    0.00190   -0.17416
  1 Au    0.00515    0.00220    0.12292
  2 Au   -0.01109    0.00542   -0.02295
  3 Au    0.00010   -0.00150   -0.05452
  4 Au   -0.01459   -0.01751   -0.12579
  5 Au   -0.02000   -0.00695    0.03889
  6 Au    0.00213   -0.01180   -0.03661
  7 Au   -0.09454   -0.05089   -0.04166
  8 Au    0.00406    0.00016   -0.15328
  9 Au    0.00499   -0.00287    0.06770
 10 Au    0.00515   -0.00317   -0.05222
 11 Au   -0.01452    0.02274   -0.07003
 12 Au    0.00194   -0.00361   -0.15332
 13 Au   -0.02076   -0.04406    0.14769
 14 Au    0.01393    0.01205   -0.03755
 15 Au   -0.02597   -0.00075   -0.07004
 16 Au    0.00282    0.00103   -0.12129
 17 Au   -0.00535    0.00320    0.10161
 18 Au   -0.01613    0.00916    0.01271
 19 Au    0.00168    0.05556    0.21660
 20 Au    0.00123   -0.00076   -0.07877
 21 Au   -0.00391    0.02090    0.03900
 22 Au    0.01133    0.00402   -0.03696
 23 Au    0.06444   -0.03760    0.22493
 24 Au    0.00787    0.02144   -0.12581
 25 Au    0.01470   -0.00858    0.15100
 26 Au   -0.00717    0.00410   -0.05102
 27 Au   -0.00315    0.10781   -0.04146
 28 Au    0.02167   -0.01253   -0.10115
 29 Au    0.02767    0.04004    0.14767
 30 Au   -0.00406   -0.01745   -0.03631
 31 Au    0.10309   -0.05949   -0.03596
 32 Au    0.00059   -0.00296   -0.12127
 33 Au    0.00058   -0.00563    0.12317
 34 Au   -0.00992    0.00636   -0.02245
 35 Au   -0.04233   -0.02696    0.21375
 36 O    -0.00260    0.00462    0.17200

BFGS:    4 21:20:29   -12045.549725        0.2370
System changes: positions 

Initializing position-dependent things.

Density initialized from wave functions
                                               
                                               
                                               
                                               
                                               
                     O                         
           Au     Au      Au                   
                                               
            AAu    AAu     AAu                 
               Au     Au      Au               
              Au     Au      Au                
               AAu    AAu     AAu              
                                               
                 Au     Au      Au             
                                               
           Au     AAu    AAu      Au           
                                               
             Au     Au      Au                 
               Au     Au      Au               
                                               
                                               
                                               
                                               

Positions:
   0 Au     0.000000    0.000000    9.999999    ( 0.0000,  0.0000,  0.0000)
   1 Au     1.496891    0.864230   12.444412    ( 0.0000,  0.0000,  0.0000)
   2 Au     0.000285    1.739400   14.870321    ( 0.0000,  0.0000,  0.0000)
   3 Au     0.003432   -0.002303   17.343562    ( 0.0000,  0.0000,  0.0000)
   4 Au    -1.496891    2.592691    9.999999    ( 0.0000,  0.0000,  0.0000)
   5 Au    -0.000000    3.456922   12.444412    ( 0.0000,  0.0000,  0.0000)
   6 Au    -1.501565    4.319180   14.888062    ( 0.0000,  0.0000,  0.0000)
   7 Au    -1.517075    2.577111   17.369004    ( 0.0000,  0.0000,  0.0000)
   8 Au    -2.993782    5.185383    9.999999    ( 0.0000,  0.0000,  0.0000)
   9 Au    -1.496891    6.049613   12.444412    ( 0.0000,  0.0000,  0.0000)
  10 Au    -2.983348    6.907806   14.865429    ( 0.0000,  0.0000,  0.0000)
  11 Au    -2.996919    5.194769   17.365555    ( 0.0000,  0.0000,  0.0000)
  12 Au     2.993782    0.000000    9.999999    ( 0.0000,  0.0000,  0.0000)
  13 Au     4.490673    0.864230   12.444412    ( 0.0000,  0.0000,  0.0000)
  14 Au     2.992423    1.727811   14.891281    ( 0.0000,  0.0000,  0.0000)
  15 Au     2.984214   -0.002289   17.365504    ( 0.0000,  0.0000,  0.0000)
  16 Au     1.496891    2.592691    9.999999    ( 0.0000,  0.0000,  0.0000)
  17 Au     2.993782    3.456922   12.444412    ( 0.0000,  0.0000,  0.0000)
  18 Au     1.499742    4.319522   14.873947    ( 0.0000,  0.0000,  0.0000)
  19 Au     1.493407    2.429824   17.341243    ( 0.0000,  0.0000,  0.0000)
  20 Au    -0.000000    5.185383    9.999999    ( 0.0000,  0.0000,  0.0000)
  21 Au     1.496891    6.049613   12.444412    ( 0.0000,  0.0000,  0.0000)
  22 Au    -0.000644    6.918862   14.888060    ( 0.0000,  0.0000,  0.0000)
  23 Au    -0.139053    5.265911   17.350864    ( 0.0000,  0.0000,  0.0000)
  24 Au     5.987564    0.000000    9.999999    ( 0.0000,  0.0000,  0.0000)
  25 Au     7.484455    0.864230   12.444412    ( 0.0000,  0.0000,  0.0000)
  26 Au     5.988017    1.728205   14.889719    ( 0.0000,  0.0000,  0.0000)
  27 Au     5.991016    0.025205   17.369050    ( 0.0000,  0.0000,  0.0000)
  28 Au     4.490673    2.592691    9.999999    ( 0.0000,  0.0000,  0.0000)
  29 Au     5.987564    3.456922   12.444412    ( 0.0000,  0.0000,  0.0000)
  30 Au     4.490465    4.322703   14.891448    ( 0.0000,  0.0000,  0.0000)
  31 Au     4.514373    2.579065   17.382620    ( 0.0000,  0.0000,  0.0000)
  32 Au     2.993782    5.185383    9.999999    ( 0.0000,  0.0000,  0.0000)
  33 Au     4.490673    6.049613   12.444412    ( 0.0000,  0.0000,  0.0000)
  34 Au     2.984473    6.908030   14.870454    ( 0.0000,  0.0000,  0.0000)
  35 Au     3.131657    5.269316   17.342167    ( 0.0000,  0.0000,  0.0000)
  36 O      1.498533    4.319163   18.467447    ( 0.0000,  0.0000,  0.0000)

Unit cell:
           periodic     x           y           z      points  spacing
  1. axis:    yes    8.981346    0.000000    0.000000    44     0.1768
  2. axis:    yes   -4.490673    7.778074    0.000000    44     0.1768
  3. axis:    no     0.000000    0.000000   27.333237   152     0.1798

  Lengths:   8.981346   8.981346  27.333237
  Angles:   90.000000  90.000000 120.000000

Effective grid spacing dv^(1/3) = 0.1865

     iter     time        total  log10-change:
                         energy  eigst   dens
iter:   1 21:21:26 -12045.581999  -3.00
iter:   2 21:21:53 -12045.560813  -3.79  -2.94
iter:   3 21:22:21 -12045.557884c -4.52  -3.18
iter:   4 21:22:48 -12045.556309c -4.52  -3.47
iter:   5 21:23:16 -12045.556081c -4.73  -3.73
iter:   6 21:23:43 -12045.555986c -4.89  -3.92
iter:   7 21:24:11 -12045.555939c -5.66  -4.04c
iter:   8 21:24:39 -12045.555946c -5.92  -4.16c
iter:   9 21:25:06 -12045.555930c -6.20  -4.27c
iter:  10 21:25:34 -12045.555929c -6.54  -4.51c
iter:  11 21:26:01 -12045.555932c -7.30  -4.56c
iter:  12 21:26:29 -12045.555919c -6.87  -4.70c
iter:  13 21:26:57 -12045.555918c -7.18  -4.86c
iter:  14 21:27:24 -12045.555916c -7.71c -4.91c

Converged after 14 iterations.

Dipole moment: (-2.468710, -8.139207, -0.249865) |e|*Ang

Energy contributions relative to reference atoms: (reference = -18599578.612235)

Kinetic:       +697.534973
Potential:     -701.142094
External:        +0.000000
XC:            -12046.570774
Entropy (-ST):   -0.412454
Local:           +4.828206
--------------------------
Free energy:   -12045.762143
Extrapolated:  -12045.555916

Showing only first 2 kpts
 Kpt  Band  Eigenvalues  Occupancy
  0   199     -5.92384    1.94751
  0   200     -5.76136    1.75924
  0   201     -5.62484    1.30212
  0   202     -5.32292    0.16703

  1   199     -6.28339    1.99852
  1   200     -6.22453    1.99734
  1   201     -6.02782    1.98112
  1   202     -5.72151    1.66135


Fermi level: -5.56247

No gap

Forces in eV/Ang:
  0 Au   -0.00347    0.00197   -0.17641
  1 Au    0.00479    0.00429    0.12039
  2 Au   -0.00276    0.01211   -0.01329
  3 Au   -0.00154    0.00066   -0.04862
  4 Au   -0.01426   -0.01737   -0.12787
  5 Au   -0.01806   -0.00635    0.03696
  6 Au    0.01056   -0.00692   -0.02560
  7 Au   -0.06768   -0.03476   -0.03435
  8 Au    0.00398    0.00005   -0.15542
  9 Au    0.00679   -0.00392    0.06402
 10 Au    0.00704   -0.00413   -0.04628
 11 Au   -0.01114    0.02146   -0.06694
 12 Au    0.00199   -0.00349   -0.15545
 13 Au   -0.02123   -0.04426    0.14301
 14 Au    0.00568    0.01774   -0.02756
 15 Au   -0.02366   -0.00211   -0.06693
 16 Au    0.00283    0.00102   -0.12219
 17 Au   -0.00752    0.00447    0.09984
 18 Au   -0.01412    0.00791    0.03307
 19 Au   -0.00137    0.12772    0.23647
 20 Au    0.00134   -0.00081   -0.07971
 21 Au   -0.00345    0.01891    0.03708
 22 Au    0.01136   -0.00574   -0.02594
 23 Au    0.12264   -0.07132    0.24484
 24 Au    0.00792    0.02108   -0.12788
 25 Au    0.01547   -0.00903    0.14757
 26 Au   -0.00669    0.00384   -0.05562
 27 Au   -0.00381    0.07660   -0.03415
 28 Au    0.02142   -0.01238   -0.10319
 29 Au    0.02759    0.04057    0.14308
 30 Au   -0.01290   -0.01339   -0.02679
 31 Au    0.07750   -0.04493   -0.03744
 32 Au    0.00060   -0.00296   -0.12217
 33 Au   -0.00140   -0.00638    0.12063
 34 Au   -0.01168   -0.00385   -0.01323
 35 Au   -0.10653   -0.06123    0.23412
 36 O    -0.01097    0.00861    0.04026

BFGS:    5 21:27:38   -12045.555916        0.2830
System changes: positions 

Initializing position-dependent things.

Density initialized from wave functions
                                               
                                               
                                               
                                               
                                               
                     O                         
           Au     Au      Au                   
                                               
            AAu    AAu     AAu                 
                      Au      Au               
              AAu    Au      Au                
                Au     Au      Au              
               Au     Au      Au               
                 Au     Au      Au             
                                               
           Au     AAu    AAu      Au           
                                               
             Au     Au      Au                 
               Au     Au      Au               
                                               
                                               
                                               
                                               

Positions:
   0 Au     0.000000    0.000000    9.999999    ( 0.0000,  0.0000,  0.0000)
   1 Au     1.496891    0.864230   12.444412    ( 0.0000,  0.0000,  0.0000)
   2 Au    -0.000488    1.740000   14.868484    ( 0.0000,  0.0000,  0.0000)
   3 Au     0.003653   -0.002560   17.338012    ( 0.0000,  0.0000,  0.0000)
   4 Au    -1.496891    2.592691    9.999999    ( 0.0000,  0.0000,  0.0000)
   5 Au    -0.000000    3.456922   12.444412    ( 0.0000,  0.0000,  0.0000)
   6 Au    -1.501151    4.318273   14.884879    ( 0.0000,  0.0000,  0.0000)
   7 Au    -1.526730    2.571939   17.364850    ( 0.0000,  0.0000,  0.0000)
   8 Au    -2.993782    5.185383    9.999999    ( 0.0000,  0.0000,  0.0000)
   9 Au    -1.496891    6.049613   12.444412    ( 0.0000,  0.0000,  0.0000)
  10 Au    -2.982845    6.907501   14.860467    ( 0.0000,  0.0000,  0.0000)
  11 Au    -2.998305    5.197174   17.358538    ( 0.0000,  0.0000,  0.0000)
  12 Au     2.993782    0.000000    9.999999    ( 0.0000,  0.0000,  0.0000)
  13 Au     4.490673    0.864230   12.444412    ( 0.0000,  0.0000,  0.0000)
  14 Au     2.993466    1.729064   14.888020    ( 0.0000,  0.0000,  0.0000)
  15 Au     2.981526   -0.002470   17.358482    ( 0.0000,  0.0000,  0.0000)
  16 Au     1.496891    2.592691    9.999999    ( 0.0000,  0.0000,  0.0000)
  17 Au     2.993782    3.456922   12.444412    ( 0.0000,  0.0000,  0.0000)
  18 Au     1.498222    4.320383   14.874345    ( 0.0000,  0.0000,  0.0000)
  19 Au     1.493379    2.425789   17.358990    ( 0.0000,  0.0000,  0.0000)
  20 Au    -0.000000    5.185383    9.999999    ( 0.0000,  0.0000,  0.0000)
  21 Au     1.496891    6.049613   12.444412    ( 0.0000,  0.0000,  0.0000)
  22 Au     0.000351    6.918952   14.884846    ( 0.0000,  0.0000,  0.0000)
  23 Au    -0.141320    5.267194   17.369229    ( 0.0000,  0.0000,  0.0000)
  24 Au     5.987564    0.000000    9.999999    ( 0.0000,  0.0000,  0.0000)
  25 Au     7.484455    0.864230   12.444412    ( 0.0000,  0.0000,  0.0000)
  26 Au     5.987319    1.728605   14.884794    ( 0.0000,  0.0000,  0.0000)
  27 Au     5.990674    0.036195   17.364919    ( 0.0000,  0.0000,  0.0000)
  28 Au     4.490673    2.592691    9.999999    ( 0.0000,  0.0000,  0.0000)
  29 Au     5.987564    3.456922   12.444412    ( 0.0000,  0.0000,  0.0000)
  30 Au     4.489846    4.321228   14.888301    ( 0.0000,  0.0000,  0.0000)
  31 Au     4.524845    2.573022   17.378904    ( 0.0000,  0.0000,  0.0000)
  32 Au     2.993782    5.185383    9.999999    ( 0.0000,  0.0000,  0.0000)
  33 Au     4.490673    6.049613   12.444412    ( 0.0000,  0.0000,  0.0000)
  34 Au     2.983595    6.908353   14.868663    ( 0.0000,  0.0000,  0.0000)
  35 Au     3.135530    5.271534   17.359732    ( 0.0000,  0.0000,  0.0000)
  36 O      1.498628    4.319639   18.495659    ( 0.0000,  0.0000,  0.0000)

Unit cell:
           periodic     x           y           z      points  spacing
  1. axis:    yes    8.981346    0.000000    0.000000    44     0.1768
  2. axis:    yes   -4.490673    7.778074    0.000000    44     0.1768
  3. axis:    no     0.000000    0.000000   27.333237   152     0.1798

  Lengths:   8.981346   8.981346  27.333237
  Angles:   90.000000  90.000000 120.000000

Effective grid spacing dv^(1/3) = 0.1865

     iter     time        total  log10-change:
                         energy  eigst   dens
iter:   1 21:28:34 -12045.689895  -2.27
iter:   2 21:29:02 -12045.591417  -3.09  -2.57
iter:   3 21:29:29 -12045.578694c -3.98  -2.86
iter:   4 21:29:56 -12045.572501c -3.82  -3.14
iter:   5 21:30:24 -12045.572162c -4.21  -3.38
iter:   6 21:30:51 -12045.571341c -4.38  -3.52
iter:   7 21:31:18 -12045.571197c -5.07  -3.72
iter:   8 21:31:46 -12045.571215c -5.18  -3.83
iter:   9 21:32:13 -12045.571174c -5.79  -4.01c
iter:  10 21:32:41 -12045.571141c -5.88  -4.13c
iter:  11 21:33:08 -12045.571155c -6.60  -4.26c
iter:  12 21:33:35 -12045.571137c -6.36  -4.36c
iter:  13 21:34:03 -12045.571127c -6.53  -4.53c
iter:  14 21:34:30 -12045.571121c -6.95  -4.60c
iter:  15 21:34:57 -12045.571122c -7.19  -4.71c
iter:  16 21:35:25 -12045.571120c -7.69c -4.88c

Converged after 16 iterations.

Dipole moment: (-1.687458, -8.566291, -0.260039) |e|*Ang

Energy contributions relative to reference atoms: (reference = -18599578.612235)

Kinetic:       +696.630701
Potential:     -700.392198
External:        +0.000000
XC:            -12046.431304
Entropy (-ST):   -0.412414
Local:           +4.827888
--------------------------
Free energy:   -12045.777327
Extrapolated:  -12045.571120

Showing only first 2 kpts
 Kpt  Band  Eigenvalues  Occupancy
  0   199     -5.93106    1.94704
  0   200     -5.76912    1.75846
  0   201     -5.63142    1.29503
  0   202     -5.33218    0.16877

  1   199     -6.29438    1.99856
  1   200     -6.23380    1.99737
  1   201     -6.03478    1.98090
  1   202     -5.73377    1.67280


Fermi level: -5.57060

No gap

Forces in eV/Ang:
  0 Au   -0.00351    0.00201   -0.17669
  1 Au    0.00394    0.00677    0.11306
  2 Au    0.01937    0.02529    0.01587
  3 Au   -0.00292    0.00414   -0.03844
  4 Au   -0.01398   -0.01724   -0.12820
  5 Au   -0.01613   -0.00630    0.03095
  6 Au    0.02925    0.00814    0.00718
  7 Au   -0.00985    0.00394   -0.02135
  8 Au    0.00398   -0.00010   -0.15543
  9 Au    0.00904   -0.00527    0.05338
 10 Au    0.01026   -0.00577   -0.03210
 11 Au   -0.00195    0.01787   -0.05959
 12 Au    0.00209   -0.00340   -0.15546
 13 Au   -0.02141   -0.04430    0.12955
 14 Au   -0.01669    0.02904    0.00335
 15 Au   -0.01732   -0.00571   -0.05964
 16 Au    0.00269    0.00009   -0.12128
 17 Au   -0.01000    0.00599    0.09417
 18 Au   -0.00720    0.00388    0.06929
 19 Au   -0.00470    0.19746    0.24352
 20 Au    0.00071   -0.00044   -0.07894
 21 Au   -0.00247    0.01720    0.03112
 22 Au    0.00783   -0.02956    0.00689
 23 Au    0.17080   -0.09968    0.24962
 24 Au    0.00794    0.02076   -0.12818
 25 Au    0.01631   -0.00958    0.13763
 26 Au   -0.00532    0.00306   -0.06670
 27 Au   -0.00861    0.00721   -0.02109
 28 Au    0.02143   -0.01238   -0.10347
 29 Au    0.02746    0.04083    0.12985
 30 Au   -0.03335   -0.00015    0.00296
 31 Au    0.01454   -0.00897   -0.04834
 32 Au    0.00131   -0.00238   -0.12126
 33 Au   -0.00398   -0.00695    0.11334
 34 Au   -0.01245   -0.02890    0.01493
 35 Au   -0.16995   -0.09462    0.24245
 36 O    -0.00027   -0.00038   -0.03129

BFGS:    6 21:35:39   -12045.571120        0.3185
System changes: positions 

Initializing position-dependent things.

Density initialized from wave functions
                                               
                                               
                                               
                                               
                                               
                     O                         
           Au     Au      Au                   
                                               
            Au     AAu     AAu                 
                                               
              AAu    AAu     AAu               
                Au     Au      Au              
               Au     Au      Au               
                 Au     Au      Au             
                                               
           Au     AAu    AAu      Au           
                                               
             Au     Au      Au                 
               Au     Au      Au               
                                               
                                               
                                               
                                               

Positions:
   0 Au     0.000000    0.000000    9.999999    ( 0.0000,  0.0000,  0.0000)
   1 Au     1.496891    0.864230   12.444412    ( 0.0000,  0.0000,  0.0000)
   2 Au    -0.001760    1.742379   14.864462    ( 0.0000,  0.0000,  0.0000)
   3 Au     0.004095   -0.003060   17.322690    ( 0.0000,  0.0000,  0.0000)
   4 Au    -1.496891    2.592691    9.999999    ( 0.0000,  0.0000,  0.0000)
   5 Au    -0.000000    3.456922   12.444412    ( 0.0000,  0.0000,  0.0000)
   6 Au    -1.499097    4.316280   14.877173    ( 0.0000,  0.0000,  0.0000)
   7 Au    -1.551381    2.559093   17.353610    ( 0.0000,  0.0000,  0.0000)
   8 Au    -2.993782    5.185383    9.999999    ( 0.0000,  0.0000,  0.0000)
   9 Au    -1.496891    6.049613   12.444412    ( 0.0000,  0.0000,  0.0000)
  10 Au    -2.981238    6.906539   14.846843    ( 0.0000,  0.0000,  0.0000)
  11 Au    -3.001852    5.203810   17.338823    ( 0.0000,  0.0000,  0.0000)
  12 Au     2.993782    0.000000    9.999999    ( 0.0000,  0.0000,  0.0000)
  13 Au     4.490673    0.864230   12.444412    ( 0.0000,  0.0000,  0.0000)
  14 Au     2.995502    1.733224   14.879992    ( 0.0000,  0.0000,  0.0000)
  15 Au     2.974192   -0.003110   17.338752    ( 0.0000,  0.0000,  0.0000)
  16 Au     1.496891    2.592691    9.999999    ( 0.0000,  0.0000,  0.0000)
  17 Au     2.993782    3.456922   12.444412    ( 0.0000,  0.0000,  0.0000)
  18 Au     1.494165    4.322676   14.877771    ( 0.0000,  0.0000,  0.0000)
  19 Au     1.493188    2.422703   17.412210    ( 0.0000,  0.0000,  0.0000)
  20 Au    -0.000000    5.185383    9.999999    ( 0.0000,  0.0000,  0.0000)
  21 Au     1.496891    6.049613   12.444412    ( 0.0000,  0.0000,  0.0000)
  22 Au     0.003119    6.918154   14.877051    ( 0.0000,  0.0000,  0.0000)
  23 Au    -0.140954    5.266880   17.424179    ( 0.0000,  0.0000,  0.0000)
  24 Au     5.987564    0.000000    9.999999    ( 0.0000,  0.0000,  0.0000)
  25 Au     7.484455    0.864230   12.444412    ( 0.0000,  0.0000,  0.0000)
  26 Au     5.985381    1.729718   14.870070    ( 0.0000,  0.0000,  0.0000)
  27 Au     5.989480    0.064096   17.353745    ( 0.0000,  0.0000,  0.0000)
  28 Au     4.490673    2.592691    9.999999    ( 0.0000,  0.0000,  0.0000)
  29 Au     5.987564    3.456922   12.444412    ( 0.0000,  0.0000,  0.0000)
  30 Au     4.487127    4.317523   14.880546    ( 0.0000,  0.0000,  0.0000)
  31 Au     4.551624    2.557547   17.367800    ( 0.0000,  0.0000,  0.0000)
  32 Au     2.993782    5.185383    9.999999    ( 0.0000,  0.0000,  0.0000)
  33 Au     4.490673    6.049613   12.444412    ( 0.0000,  0.0000,  0.0000)
  34 Au     2.980960    6.908163   14.864727    ( 0.0000,  0.0000,  0.0000)
  35 Au     3.139207    5.273694   17.412463    ( 0.0000,  0.0000,  0.0000)
  36 O      1.499335    4.320574   18.566707    ( 0.0000,  0.0000,  0.0000)

Unit cell:
           periodic     x           y           z      points  spacing
  1. axis:    yes    8.981346    0.000000    0.000000    44     0.1768
  2. axis:    yes   -4.490673    7.778074    0.000000    44     0.1768
  3. axis:    no     0.000000    0.000000   27.333237   152     0.1798

  Lengths:   8.981346   8.981346  27.333237
  Angles:   90.000000  90.000000 120.000000

Effective grid spacing dv^(1/3) = 0.1865

     iter     time        total  log10-change:
                         energy  eigst   dens
iter:   1 21:36:35 -12046.290234  -1.44
iter:   2 21:37:03 -12045.693255  -2.31  -2.16
iter:   3 21:37:30 -12045.627769  -3.22  -2.50
iter:   4 21:37:58 -12045.593494c -2.96  -2.74
iter:   5 21:38:25 -12045.596682c -3.84  -3.00
iter:   6 21:38:53 -12045.587944c -3.51  -2.99
iter:   7 21:39:21 -12045.587727c -3.92  -3.31
iter:   8 21:39:48 -12045.587011c -4.49  -3.41
iter:   9 21:40:16 -12045.587016c -4.98  -3.60
iter:  10 21:40:43 -12045.586868c -5.35  -3.71
iter:  11 21:41:11 -12045.586785c -5.36  -3.80
iter:  12 21:41:38 -12045.586778c -5.52  -3.95
iter:  13 21:42:06 -12045.586759c -6.10  -4.12c
iter:  14 21:42:34 -12045.586710c -6.05  -4.20c
iter:  15 21:43:01 -12045.586719c -6.44  -4.40c
iter:  16 21:43:29 -12045.586708c -7.07  -4.45c
iter:  17 21:43:56 -12045.586705c -6.96  -4.52c
iter:  18 21:44:24 -12045.586697c -7.13  -4.65c
iter:  19 21:44:51 -12045.586703c -7.04  -4.75c
iter:  20 21:45:19 -12045.586702c -7.87c -5.06c

Converged after 20 iterations.

Dipole moment: (0.313559, -9.646172, -0.280161) |e|*Ang

Energy contributions relative to reference atoms: (reference = -18599578.612235)

Kinetic:       +695.004307
Potential:     -699.067983
External:        +0.000000
XC:            -12046.144912
Entropy (-ST):   -0.412090
Local:           +4.827931
--------------------------
Free energy:   -12045.792747
Extrapolated:  -12045.586702

Showing only first 2 kpts
 Kpt  Band  Eigenvalues  Occupancy
  0   199     -5.94527    1.94588
  0   200     -5.78390    1.75492
  0   201     -5.64279    1.27176
  0   202     -5.35105    0.17256

  1   199     -6.31938    1.99868
  1   200     -6.25258    1.99743
  1   201     -6.04786    1.98026
  1   202     -5.76177    1.70322


Fermi level: -5.58704

No gap

Forces in eV/Ang:
  0 Au   -0.00366    0.00213   -0.17718
  1 Au    0.00090    0.01526    0.09177
  2 Au    0.07411    0.05098    0.08759
  3 Au   -0.00294    0.00981   -0.00270
  4 Au   -0.01322   -0.01674   -0.12916
  5 Au   -0.00919   -0.00592    0.01524
  6 Au    0.07282    0.04560    0.08935
  7 Au    0.15995    0.13479   -0.01376
  8 Au    0.00409   -0.00061   -0.15517
  9 Au    0.01675   -0.00986    0.02185
 10 Au    0.00933   -0.00463   -0.00052
 11 Au    0.03125   -0.00328   -0.02946
 12 Au    0.00256   -0.00322   -0.15520
 13 Au   -0.02324   -0.04542    0.09006
 14 Au   -0.07514    0.05216    0.08487
 15 Au    0.01425   -0.01803   -0.03009
 16 Au    0.00221   -0.00208   -0.11806
 17 Au   -0.01895    0.01140    0.07852
 18 Au    0.01271   -0.00770    0.15324
 19 Au    0.01998    0.30442    0.18144
 20 Au   -0.00094    0.00055   -0.07617
 21 Au    0.00084    0.01094    0.01550
 22 Au   -0.00254   -0.08622    0.08923
 23 Au    0.22217   -0.13011    0.15853
 24 Au    0.00789    0.01982   -0.12904
 25 Au    0.02056   -0.01216    0.10926
 26 Au    0.00573   -0.00328   -0.08484
 27 Au   -0.03768   -0.20515   -0.01384
 28 Au    0.02149   -0.01240   -0.10453
 29 Au    0.02734    0.04322    0.09098
 30 Au   -0.08156    0.03767    0.08175
 31 Au   -0.22437    0.12812   -0.03341
 32 Au    0.00288   -0.00088   -0.11803
 33 Au   -0.01284   -0.00877    0.09209
 34 Au   -0.00841   -0.08770    0.08476
 35 Au   -0.25602   -0.17185    0.18179
 36 O    -0.00135   -0.00477   -0.24794

BFGS:    7 21:45:33   -12045.586702        0.3579
System changes: positions 

Initializing position-dependent things.

Density initialized from wave functions
                                               
                                               
                                               
                                               
                                               
                     O                         
           Au     Au      Au                   
                                               
            AAu    AAu     AAu                 
                              Au               
              AAu    AAu     Au                
                Au     Au      Au              
               Au     Au      Au               
                 Au     Au      Au             
                                               
           Au     AAu    AAu      Au           
                                               
             Au     Au      Au                 
               Au     Au      Au               
                                               
                                               
                                               
                                               

Positions:
   0 Au     0.000000    0.000000    9.999999    ( 0.0000,  0.0000,  0.0000)
   1 Au     1.496891    0.864230   12.444412    ( 0.0000,  0.0000,  0.0000)
   2 Au    -0.000911    1.742696   14.865718    ( 0.0000,  0.0000,  0.0000)
   3 Au     0.003937   -0.002859   17.324282    ( 0.0000,  0.0000,  0.0000)
   4 Au    -1.496891    2.592691    9.999999    ( 0.0000,  0.0000,  0.0000)
   5 Au    -0.000000    3.456922   12.444412    ( 0.0000,  0.0000,  0.0000)
   6 Au    -1.498547    4.316898   14.878823    ( 0.0000,  0.0000,  0.0000)
   7 Au    -1.546988    2.561952   17.354607    ( 0.0000,  0.0000,  0.0000)
   8 Au    -2.993782    5.185383    9.999999    ( 0.0000,  0.0000,  0.0000)
   9 Au    -1.496891    6.049613   12.444412    ( 0.0000,  0.0000,  0.0000)
  10 Au    -2.981302    6.906587   14.848162    ( 0.0000,  0.0000,  0.0000)
  11 Au    -3.001159    5.203031   17.340549    ( 0.0000,  0.0000,  0.0000)
  12 Au     2.993782    0.000000    9.999999    ( 0.0000,  0.0000,  0.0000)
  13 Au     4.490673    0.864230   12.444412    ( 0.0000,  0.0000,  0.0000)
  14 Au     2.994564    1.733374   14.881623    ( 0.0000,  0.0000,  0.0000)
  15 Au     2.975150   -0.003204   17.340473    ( 0.0000,  0.0000,  0.0000)
  16 Au     1.496891    2.592691    9.999999    ( 0.0000,  0.0000,  0.0000)
  17 Au     2.993782    3.456922   12.444412    ( 0.0000,  0.0000,  0.0000)
  18 Au     1.494698    4.322370   14.879422    ( 0.0000,  0.0000,  0.0000)
  19 Au     1.493485    2.429620   17.410033    ( 0.0000,  0.0000,  0.0000)
  20 Au    -0.000000    5.185383    9.999999    ( 0.0000,  0.0000,  0.0000)
  21 Au     1.496891    6.049613   12.444412    ( 0.0000,  0.0000,  0.0000)
  22 Au     0.002864    6.917367   14.878708    ( 0.0000,  0.0000,  0.0000)
  23 Au    -0.135663    5.263812   17.421604    ( 0.0000,  0.0000,  0.0000)
  24 Au     5.987564    0.000000    9.999999    ( 0.0000,  0.0000,  0.0000)
  25 Au     7.484455    0.864230   12.444412    ( 0.0000,  0.0000,  0.0000)
  26 Au     5.985642    1.729567   14.870609    ( 0.0000,  0.0000,  0.0000)
  27 Au     5.989190    0.058860   17.354733    ( 0.0000,  0.0000,  0.0000)
  28 Au     4.490673    2.592691    9.999999    ( 0.0000,  0.0000,  0.0000)
  29 Au     5.987564    3.456922   12.444412    ( 0.0000,  0.0000,  0.0000)
  30 Au     4.486554    4.318234   14.882117    ( 0.0000,  0.0000,  0.0000)
  31 Au     4.546291    2.560612   17.368629    ( 0.0000,  0.0000,  0.0000)
  32 Au     2.993782    5.185383    9.999999    ( 0.0000,  0.0000,  0.0000)
  33 Au     4.490673    6.049613   12.444412    ( 0.0000,  0.0000,  0.0000)
  34 Au     2.981090    6.907301   14.865944    ( 0.0000,  0.0000,  0.0000)
  35 Au     3.133251    5.269919   17.410319    ( 0.0000,  0.0000,  0.0000)
  36 O      1.499262    4.320397   18.552852    ( 0.0000,  0.0000,  0.0000)

Unit cell:
           periodic     x           y           z      points  spacing
  1. axis:    yes    8.981346    0.000000    0.000000    44     0.1768
  2. axis:    yes   -4.490673    7.778074    0.000000    44     0.1768
  3. axis:    no     0.000000    0.000000   27.333237   152     0.1798

  Lengths:   8.981346   8.981346  27.333237
  Angles:   90.000000  90.000000 120.000000

Effective grid spacing dv^(1/3) = 0.1865

     iter     time        total  log10-change:
                         energy  eigst   dens
iter:   1 21:46:30 -12045.628572  -2.91
iter:   2 21:46:57 -12045.605572  -3.67  -2.87
iter:   3 21:47:25 -12045.599927c -4.39  -3.08
iter:   4 21:47:52 -12045.598440c -4.45  -3.39
iter:   5 21:48:20 -12045.597859c -4.39  -3.61
iter:   6 21:48:47 -12045.597789c -4.80  -3.87
iter:   7 21:49:15 -12045.597627c -5.45  -3.91
iter:   8 21:49:42 -12045.597585c -5.84  -4.06c
iter:   9 21:50:10 -12045.597599c -6.00  -4.21c
iter:  10 21:50:37 -12045.597596c -6.88  -4.39c
iter:  11 21:51:04 -12045.597591c -6.33  -4.44c
iter:  12 21:51:32 -12045.597591c -7.00  -4.65c
iter:  13 21:51:59 -12045.597592c -7.59c -4.79c

Converged after 13 iterations.

Dipole moment: (-0.032748, -9.470613, -0.271533) |e|*Ang

Energy contributions relative to reference atoms: (reference = -18599578.612235)

Kinetic:       +695.186362
Potential:     -699.209324
External:        +0.000000
XC:            -12046.198195
Entropy (-ST):   -0.412062
Local:           +4.829595
--------------------------
Free energy:   -12045.803623
Extrapolated:  -12045.597592

Showing only first 2 kpts
 Kpt  Band  Eigenvalues  Occupancy
  0   199     -5.93902    1.94608
  0   200     -5.77666    1.75363
  0   201     -5.63667    1.27414
  0   202     -5.34372    0.17147

  1   199     -6.31169    1.99867
  1   200     -6.24610    1.99743
  1   201     -6.04176    1.98036
  1   202     -5.75405    1.70047


Fermi level: -5.58040

No gap

Forces in eV/Ang:
  0 Au   -0.00375    0.00218   -0.17650
  1 Au    0.00115    0.01309    0.09451
  2 Au    0.06261    0.04115    0.07724
  3 Au   -0.00175    0.00737   -0.00482
  4 Au   -0.01393   -0.01708   -0.12861
  5 Au   -0.01155   -0.00665    0.01765
  6 Au    0.06145    0.03960    0.07877
  7 Au    0.11817    0.10337   -0.01422
  8 Au    0.00418   -0.00069   -0.15453
  9 Au    0.01495   -0.00881    0.02546
 10 Au    0.00860   -0.00442   -0.00243
 11 Au    0.02204    0.00170   -0.02931
 12 Au    0.00267   -0.00326   -0.15457
 13 Au   -0.02313   -0.04564    0.09598
 14 Au   -0.06525    0.04328    0.07590
 15 Au    0.00627   -0.01403   -0.02986
 16 Au    0.00218   -0.00227   -0.11847
 17 Au   -0.01643    0.00993    0.08045
 18 Au    0.01172   -0.00698    0.13437
 19 Au    0.01274    0.18194    0.15230
 20 Au   -0.00125    0.00072   -0.07659
 21 Au    0.00029    0.01334    0.01789
 22 Au   -0.00304   -0.07337    0.07872
 23 Au    0.13027   -0.07677    0.13791
 24 Au    0.00784    0.02061   -0.12850
 25 Au    0.02019   -0.01192    0.11413
 26 Au    0.00456   -0.00260   -0.07346
 27 Au   -0.03109   -0.15345   -0.01428
 28 Au    0.02222   -0.01282   -0.10396
 29 Au    0.02760    0.04321    0.09681
 30 Au   -0.06911    0.03384    0.07331
 31 Au   -0.16953    0.09679   -0.04021
 32 Au    0.00303   -0.00076   -0.11842
 33 Au   -0.01085   -0.00788    0.09485
 34 Au   -0.00541   -0.07318    0.07493
 35 Au   -0.15225   -0.10338    0.15232
 36 O     0.00680   -0.00803   -0.12287

BFGS:    8 21:52:13   -12045.597592        0.2389
System changes: positions 

Initializing position-dependent things.

Density initialized from wave functions
                                               
                                               
                                               
                                               
                                               
                     O                         
           Au     Au      Au                   
                                               
            AAu    AAu     AAu                 
                              Au               
              AAu    AAu     Au                
                Au     Au      Au              
               Au     Au      Au               
                 Au     Au      Au             
                                               
           Au     AAu    AAu      Au           
                                               
             Au     Au      Au                 
               Au     Au      Au               
                                               
                                               
                                               
                                               

Positions:
   0 Au     0.000000    0.000000    9.999999    ( 0.0000,  0.0000,  0.0000)
   1 Au     1.496891    0.864230   12.444412    ( 0.0000,  0.0000,  0.0000)
   2 Au     0.001322    1.744695   14.868159    ( 0.0000,  0.0000,  0.0000)
   3 Au     0.003746   -0.002524   17.322322    ( 0.0000,  0.0000,  0.0000)
   4 Au    -1.496891    2.592691    9.999999    ( 0.0000,  0.0000,  0.0000)
   5 Au    -0.000000    3.456922   12.444412    ( 0.0000,  0.0000,  0.0000)
   6 Au    -1.495831    4.318099   14.880867    ( 0.0000,  0.0000,  0.0000)
   7 Au    -1.544771    2.564911   17.352563    ( 0.0000,  0.0000,  0.0000)
   8 Au    -2.993782    5.185383    9.999999    ( 0.0000,  0.0000,  0.0000)
   9 Au    -1.496891    6.049613   12.444412    ( 0.0000,  0.0000,  0.0000)
  10 Au    -2.980773    6.906298   14.846208    ( 0.0000,  0.0000,  0.0000)
  11 Au    -3.000671    5.203739   17.336991    ( 0.0000,  0.0000,  0.0000)
  12 Au     2.993782    0.000000    9.999999    ( 0.0000,  0.0000,  0.0000)
  13 Au     4.490673    0.864230   12.444412    ( 0.0000,  0.0000,  0.0000)
  14 Au     2.992314    1.735689   14.883504    ( 0.0000,  0.0000,  0.0000)
  15 Au     2.974673   -0.003793   17.336891    ( 0.0000,  0.0000,  0.0000)
  16 Au     1.496891    2.592691    9.999999    ( 0.0000,  0.0000,  0.0000)
  17 Au     2.993782    3.456922   12.444412    ( 0.0000,  0.0000,  0.0000)
  18 Au     1.494634    4.322391   14.886098    ( 0.0000,  0.0000,  0.0000)
  19 Au     1.494211    2.444159   17.425637    ( 0.0000,  0.0000,  0.0000)
  20 Au    -0.000000    5.185383    9.999999    ( 0.0000,  0.0000,  0.0000)
  21 Au     1.496891    6.049613   12.444412    ( 0.0000,  0.0000,  0.0000)
  22 Au     0.003205    6.914399   14.880737    ( 0.0000,  0.0000,  0.0000)
  23 Au    -0.123742    5.256846   17.436819    ( 0.0000,  0.0000,  0.0000)
  24 Au     5.987564    0.000000    9.999999    ( 0.0000,  0.0000,  0.0000)
  25 Au     7.484455    0.864230   12.444412    ( 0.0000,  0.0000,  0.0000)
  26 Au     5.985608    1.729587   14.865667    ( 0.0000,  0.0000,  0.0000)
  27 Au     5.987707    0.055504   17.352693    ( 0.0000,  0.0000,  0.0000)
  28 Au     4.490673    2.592691    9.999999    ( 0.0000,  0.0000,  0.0000)
[...]
  14 Au     2.977387    1.738739   14.899790    ( 0.0000,  0.0000,  0.0000)
  15 Au     2.976473   -0.007651   17.326690    ( 0.0000,  0.0000,  0.0000)
  16 Au     1.496891    2.592691    9.999999    ( 0.0000,  0.0000,  0.0000)
  17 Au     2.993782    3.456922   12.444412    ( 0.0000,  0.0000,  0.0000)
  18 Au     1.507848    4.314829   14.931768    ( 0.0000,  0.0000,  0.0000)
  19 Au     1.496563    2.435893   17.476434    ( 0.0000,  0.0000,  0.0000)
  20 Au    -0.000000    5.185383    9.999999    ( 0.0000,  0.0000,  0.0000)
  21 Au     1.496891    6.049613   12.444412    ( 0.0000,  0.0000,  0.0000)
  22 Au     0.005784    6.893257   14.895571    ( 0.0000,  0.0000,  0.0000)
  23 Au    -0.129692    5.260301   17.483711    ( 0.0000,  0.0000,  0.0000)
  24 Au     5.987564    0.000000    9.999999    ( 0.0000,  0.0000,  0.0000)
  25 Au     7.484455    0.864230   12.444412    ( 0.0000,  0.0000,  0.0000)
  26 Au     5.986021    1.729370   14.855050    ( 0.0000,  0.0000,  0.0000)
  27 Au     5.982835    0.034818   17.333067    ( 0.0000,  0.0000,  0.0000)
  28 Au     4.490673    2.592691    9.999999    ( 0.0000,  0.0000,  0.0000)
  29 Au     5.987564    3.456922   12.444412    ( 0.0000,  0.0000,  0.0000)
  30 Au     4.473595    4.330279   14.899793    ( 0.0000,  0.0000,  0.0000)
  31 Au     4.524627    2.573168   17.347289    ( 0.0000,  0.0000,  0.0000)
  32 Au     2.993782    5.185383    9.999999    ( 0.0000,  0.0000,  0.0000)
  33 Au     4.490673    6.049613   12.444412    ( 0.0000,  0.0000,  0.0000)
  34 Au     2.985016    6.896452   14.879199    ( 0.0000,  0.0000,  0.0000)
  35 Au     3.129601    5.264200   17.476279    ( 0.0000,  0.0000,  0.0000)
  36 O      1.501653    4.318366   18.606276    ( 0.0000,  0.0000,  0.0000)

Unit cell:
           periodic     x           y           z      points  spacing
  1. axis:    yes    8.981346    0.000000    0.000000    44     0.1768
  2. axis:    yes   -4.490673    7.778074    0.000000    44     0.1768
  3. axis:    no     0.000000    0.000000   27.333237   152     0.1798

  Lengths:   8.981346   8.981346  27.333237
  Angles:   90.000000  90.000000 120.000000

Effective grid spacing dv^(1/3) = 0.1865

     iter     time        total  log10-change:
                         energy  eigst   dens
iter:   1 22:38:36 -12045.635264  -3.12
iter:   2 22:39:04 -12045.633426  -4.18  -3.30
iter:   3 22:39:31 -12045.632851c -4.92  -3.43
iter:   4 22:39:59 -12045.632020c -4.62  -3.53
iter:   5 22:40:26 -12045.631952c -5.34  -3.85
iter:   6 22:40:54 -12045.631944c -5.46  -3.98
iter:   7 22:41:21 -12045.631956c -6.09  -4.18c
iter:   8 22:41:49 -12045.631953c -6.36  -4.27c
iter:   9 22:42:17 -12045.631960c -6.56  -4.40c
iter:  10 22:42:44 -12045.631939c -6.79  -4.52c
iter:  11 22:43:12 -12045.631945c -7.23  -4.76c
iter:  12 22:43:39 -12045.631942c -7.66c -4.88c

Converged after 12 iterations.

Dipole moment: (-1.184280, -8.949506, -0.271274) |e|*Ang

Energy contributions relative to reference atoms: (reference = -18599578.612235)

Kinetic:       +692.022535
Potential:     -696.458561
External:        +0.000000
XC:            -12045.804539
Entropy (-ST):   -0.412076
Local:           +4.814662
--------------------------
Free energy:   -12045.837980
Extrapolated:  -12045.631942

Showing only first 2 kpts
 Kpt  Band  Eigenvalues  Occupancy
  0   199     -5.93770    1.94378
  0   200     -5.77022    1.73250
  0   201     -5.64409    1.29447
  0   202     -5.34519    0.16910

  1   199     -6.32176    1.99876
  1   200     -6.23749    1.99712
  1   201     -6.03677    1.97875
  1   202     -5.75963    1.70699


Fermi level: -5.58340

No gap

Forces in eV/Ang:
  0 Au   -0.00260    0.00151   -0.17328
  1 Au    0.00598    0.03668    0.10596
  2 Au    0.00648    0.00891    0.00358
  3 Au    0.01542   -0.00677   -0.00015
  4 Au   -0.01342   -0.01544   -0.13467
  5 Au    0.01439    0.00841    0.09510
  6 Au    0.02172    0.00147   -0.01720
  7 Au    0.00765   -0.00913   -0.00950
  8 Au    0.00439   -0.00084   -0.15311
  9 Au    0.03653   -0.02100    0.04236
 10 Au    0.01249   -0.00670    0.01732
 11 Au   -0.01124    0.00566    0.01600
 12 Au    0.00291   -0.00338   -0.15310
 13 Au   -0.04521   -0.05923    0.14633
 14 Au    0.00746   -0.01687   -0.00121
 15 Au   -0.01122    0.00721    0.01603
 16 Au    0.00217   -0.00250   -0.11357
 17 Au   -0.03434    0.01982    0.15115
 18 Au    0.02044   -0.01190   -0.00176
 19 Au    0.00322    0.02864    0.02216
 20 Au   -0.00155    0.00087   -0.07533
 21 Au   -0.00010   -0.01662    0.09523
 22 Au    0.00932   -0.01938   -0.01775
 23 Au    0.04373   -0.02527    0.03716
 24 Au    0.00666    0.01937   -0.13470
 25 Au    0.03530   -0.02043    0.14024
 26 Au   -0.01034    0.00584   -0.00387
 27 Au    0.01162   -0.00182   -0.00929
 28 Au    0.02091   -0.01207   -0.11076
 29 Au    0.02860    0.06872    0.14609
 30 Au    0.01819    0.00176   -0.00136
 31 Au    0.01708   -0.01007    0.00358
 32 Au    0.00325   -0.00065   -0.11356
 33 Au   -0.02888   -0.02345    0.10602
 34 Au   -0.00417   -0.01015    0.00247
 35 Au   -0.02545   -0.01892    0.02343
 36 O    -0.00373    0.00372   -0.03083

BFGS:   16 22:43:53   -12045.631942        0.0627
System changes: positions 

Initializing position-dependent things.

Density initialized from wave functions
                                               
                                               
                                               
                                               
                                               
                     O                         
           Au     Au      Au                   
                                               
            AAu    AAu     AAu                 
                                               
              AAu    AAu     AAu               
                Au     Au      Au              
               Au     Au      Au               
                 Au     Au      Au             
                                               
           Au     AAu    AAu      Au           
                                               
             Au     Au      Au                 
               Au     Au      Au               
                                               
                                               
                                               
                                               

Positions:
   0 Au     0.000000    0.000000    9.999999    ( 0.0000,  0.0000,  0.0000)
   1 Au     1.496891    0.864230   12.444412    ( 0.0000,  0.0000,  0.0000)
   2 Au     0.010446    1.743205   14.878721    ( 0.0000,  0.0000,  0.0000)
   3 Au     0.000555   -0.000570   17.327546    ( 0.0000,  0.0000,  0.0000)
   4 Au    -1.496891    2.592691    9.999999    ( 0.0000,  0.0000,  0.0000)
   5 Au    -0.000000    3.456922   12.444412    ( 0.0000,  0.0000,  0.0000)
   6 Au    -1.473988    4.326684   14.895436    ( 0.0000,  0.0000,  0.0000)
   7 Au    -1.528496    2.579455   17.329998    ( 0.0000,  0.0000,  0.0000)
   8 Au    -2.993782    5.185383    9.999999    ( 0.0000,  0.0000,  0.0000)
   9 Au    -1.496891    6.049613   12.444412    ( 0.0000,  0.0000,  0.0000)
  10 Au    -2.981315    6.906591   14.839298    ( 0.0000,  0.0000,  0.0000)
  11 Au    -2.995403    5.203969   17.327315    ( 0.0000,  0.0000,  0.0000)
  12 Au     2.993782    0.000000    9.999999    ( 0.0000,  0.0000,  0.0000)
  13 Au     4.490673    0.864230   12.444412    ( 0.0000,  0.0000,  0.0000)
  14 Au     2.977052    1.737020   14.900493    ( 0.0000,  0.0000,  0.0000)
  15 Au     2.977055   -0.007768   17.327307    ( 0.0000,  0.0000,  0.0000)
  16 Au     1.496891    2.592691    9.999999    ( 0.0000,  0.0000,  0.0000)
  17 Au     2.993782    3.456922   12.444412    ( 0.0000,  0.0000,  0.0000)
  18 Au     1.511102    4.312979   14.937138    ( 0.0000,  0.0000,  0.0000)
  19 Au     1.496601    2.436394   17.482480    ( 0.0000,  0.0000,  0.0000)
  20 Au    -0.000000    5.185383    9.999999    ( 0.0000,  0.0000,  0.0000)
  21 Au     1.496891    6.049613   12.444412    ( 0.0000,  0.0000,  0.0000)
  22 Au     0.006674    6.891121   14.895579    ( 0.0000,  0.0000,  0.0000)
  23 Au    -0.128843    5.259874   17.489651    ( 0.0000,  0.0000,  0.0000)
  24 Au     5.987564    0.000000    9.999999    ( 0.0000,  0.0000,  0.0000)
  25 Au     7.484455    0.864230   12.444412    ( 0.0000,  0.0000,  0.0000)
  26 Au     5.985746    1.729528   14.856169    ( 0.0000,  0.0000,  0.0000)
  27 Au     5.983256    0.033959   17.329989    ( 0.0000,  0.0000,  0.0000)
  28 Au     4.490673    2.592691    9.999999    ( 0.0000,  0.0000,  0.0000)
  29 Au     5.987564    3.456922   12.444412    ( 0.0000,  0.0000,  0.0000)
  30 Au     4.474936    4.331432   14.900486    ( 0.0000,  0.0000,  0.0000)
  31 Au     4.525656    2.572629   17.345600    ( 0.0000,  0.0000,  0.0000)
  32 Au     2.993782    5.185383    9.999999    ( 0.0000,  0.0000,  0.0000)
  33 Au     4.490673    6.049613   12.444412    ( 0.0000,  0.0000,  0.0000)
  34 Au     2.986171    6.897465   14.878826    ( 0.0000,  0.0000,  0.0000)
  35 Au     3.129123    5.263904   17.482313    ( 0.0000,  0.0000,  0.0000)
  36 O      1.501910    4.318216   18.609915    ( 0.0000,  0.0000,  0.0000)

Unit cell:
           periodic     x           y           z      points  spacing
  1. axis:    yes    8.981346    0.000000    0.000000    44     0.1768
  2. axis:    yes   -4.490673    7.778074    0.000000    44     0.1768
  3. axis:    no     0.000000    0.000000   27.333237   152     0.1798

  Lengths:   8.981346   8.981346  27.333237
  Angles:   90.000000  90.000000 120.000000

Effective grid spacing dv^(1/3) = 0.1865

     iter     time        total  log10-change:
                         energy  eigst   dens
iter:   1 22:44:50 -12045.633439  -3.42
iter:   2 22:45:18 -12045.632765  -4.52  -3.53
iter:   3 22:45:45 -12045.632574c -5.08  -3.72
iter:   4 22:46:13 -12045.632468c -5.40  -3.87
iter:   5 22:46:40 -12045.632402c -5.72  -4.01c
iter:   6 22:47:08 -12045.632404c -5.73  -4.19c
iter:   7 22:47:36 -12045.632406c -6.43  -4.34c
iter:   8 22:48:03 -12045.632410c -6.60  -4.47c
iter:   9 22:48:31 -12045.632400c -6.93  -4.61c
iter:  10 22:48:58 -12045.632404c -7.49c -4.82c

Converged after 10 iterations.

Dipole moment: (-1.202956, -8.934059, -0.270835) |e|*Ang

Energy contributions relative to reference atoms: (reference = -18599578.612235)

Kinetic:       +691.746653
Potential:     -696.220311
External:        +0.000000
XC:            -12045.768033
Entropy (-ST):   -0.412142
Local:           +4.815358
--------------------------
Free energy:   -12045.838475
Extrapolated:  -12045.632404

Showing only first 2 kpts
 Kpt  Band  Eigenvalues  Occupancy
  0   199     -5.93793    1.94377
  0   200     -5.76983    1.73105
  0   201     -5.64444    1.29496
  0   202     -5.34517    0.16870

  1   199     -6.32282    1.99877
  1   200     -6.23701    1.99710
  1   201     -6.03700    1.97874
  1   202     -5.76079    1.70931


Fermi level: -5.58364

No gap

Forces in eV/Ang:
  0 Au   -0.00241    0.00138   -0.17509
  1 Au    0.00682    0.03829    0.10434
  2 Au    0.01408    0.01803    0.01216
  3 Au    0.02200   -0.00941   -0.00671
  4 Au   -0.01392   -0.01629   -0.13601
  5 Au    0.01785    0.01012    0.09945
  6 Au    0.02413    0.00400   -0.01396
  7 Au    0.00869   -0.00880   -0.00124
  8 Au    0.00419   -0.00019   -0.15454
  9 Au    0.03796   -0.02178    0.04167
 10 Au    0.01691   -0.00908    0.02326
 11 Au   -0.01181    0.01034    0.01462
 12 Au    0.00225   -0.00355   -0.15453
 13 Au   -0.04364   -0.05870    0.14822
 14 Au    0.00640   -0.01185    0.00163
 15 Au   -0.01604    0.00567    0.01445
 16 Au    0.00171   -0.00356   -0.11445
 17 Au   -0.03546    0.02050    0.15705
 18 Au    0.00581   -0.00364   -0.02416
 19 Au    0.00210    0.00704    0.00985
 20 Au   -0.00214    0.00121   -0.07641
 21 Au    0.00017   -0.02037    0.09966
 22 Au    0.00840   -0.02274   -0.01483
 23 Au    0.02497   -0.01483    0.02717
 24 Au    0.00717    0.02021   -0.13600
 25 Au    0.03231   -0.01879    0.13832
 26 Au   -0.01176    0.00662   -0.01604
 27 Au    0.01173   -0.00250   -0.00089
 28 Au    0.02168   -0.01250   -0.11197
 29 Au    0.02885    0.06708    0.14792
 30 Au    0.01320    0.00011    0.00146
 31 Au    0.01151   -0.00719    0.00998
 32 Au    0.00396    0.00029   -0.11443
 33 Au   -0.02993   -0.02498    0.10439
 34 Au   -0.00827   -0.02118    0.01068
 35 Au   -0.00717   -0.00735    0.01108
 36 O     0.00038    0.00105   -0.00242

BFGS:   17 22:49:12   -12045.632404        0.0398
Timing:                                      incl.     excl.
-------------------------------------------------------------------
Density initialized from wave functions:     0.901     0.901   0.0% |
 Symmetrize density:                         0.000     0.000   0.0% |
Forces:                                    254.216   254.216   3.0% ||
Hamiltonian:                                60.174     0.002   0.0% |
 Atomic:                                     0.004     0.004   0.0% |
  XC Correction:                             0.000     0.000   0.0% |
 Calculate atomic Hamiltonians:              0.005     0.005   0.0% |
 Communicate:                                3.128     3.128   0.0% |
 Hartree integrate/restrict:                 0.207     0.207   0.0% |
 Initialize Hamiltonian:                     0.000     0.000   0.0% |
 Poisson:                                    3.137     0.147   0.0% |
  Communicate from 1D:                       0.271     0.271   0.0% |
  Communicate from 2D:                       0.525     0.525   0.0% |
  Communicate to 1D:                         0.145     0.145   0.0% |
  Communicate to 2D:                         0.619     0.619   0.0% |
  FFT 1D:                                    0.736     0.736   0.0% |
  FFT 2D:                                    0.695     0.695   0.0% |
 XC 3D grid:                                53.470    13.698   0.2% |
  VdW-DF integral:                          39.772     2.648   0.0% |
   Convolution:                              4.338     4.338   0.1% |
   FFT:                                      2.642     2.642   0.0% |
   gather:                                   9.040     9.040   0.1% |
   hmm1:                                     0.833     0.833   0.0% |
   hmm2:                                     1.778     1.778   0.0% |
   iFFT:                                     2.495     2.495   0.0% |
   potential:                               12.379     0.319   0.0% |
    collect:                                 0.975     0.975   0.0% |
    p1:                                      7.512     7.512   0.1% |
    p2:                                      2.685     2.685   0.0% |
    sum:                                     0.889     0.889   0.0% |
   splines:                                  3.619     3.619   0.0% |
 vbar:                                       0.221     0.221   0.0% |
LCAO initialization:                         8.099     0.488   0.0% |
 LCAO eigensolver:                           1.940     0.001   0.0% |
  Calculate projections:                     0.000     0.000   0.0% |
  DenseAtomicCorrection:                     0.000     0.000   0.0% |
  Distribute overlap matrix:                 1.763     1.763   0.0% |
  Orbital Layouts:                           0.169     0.169   0.0% |
  Potential matrix:                          0.001     0.001   0.0% |
  Sum over cells:                            0.006     0.006   0.0% |
 LCAO to grid:                               5.069     5.069   0.1% |
 Set positions (LCAO WFS):                   0.602     0.496   0.0% |
  Basic WFS set positions:                   0.001     0.001   0.0% |
  Basis functions set positions:             0.000     0.000   0.0% |
  P tci:                                     0.000     0.000   0.0% |
  ST tci:                                    0.069     0.069   0.0% |
  mktci:                                     0.035     0.035   0.0% |
Redistribute:                                0.008     0.008   0.0% |
SCF-cycle:                                7772.005    20.860   0.2% |
 Davidson:                                6840.536  2466.278  28.9% |-----------|
  Apply hamiltonian:                       156.038   156.038   1.8% ||
  Subspace diag:                           584.855     0.030   0.0% |
   calc_h_matrix:                          295.999   144.281   1.7% ||
    Apply hamiltonian:                     151.717   151.717   1.8% ||
   diagonalize:                             11.173    11.173   0.1% |
   rotate_psi:                             277.653   277.653   3.3% ||
  calc. matrices:                         3076.059   969.747  11.4% |----|
   Apply hamiltonian:                     2106.312  2106.312  24.7% |---------|
  diagonalize:                              49.501    49.501   0.6% |
  rotate_psi:                              507.806   507.806   6.0% |-|
 Density:                                   15.655     0.005   0.0% |
  Atomic density matrices:                   1.123     1.123   0.0% |
  Mix:                                       4.282     4.282   0.1% |
  Multipole moments:                         0.091     0.091   0.0% |
  Pseudo density:                           10.154    10.148   0.1% |
   Symmetrize density:                       0.006     0.006   0.0% |
 Hamiltonian:                              827.095     0.033   0.0% |
  Atomic:                                    0.055     0.054   0.0% |
   XC Correction:                            0.001     0.001   0.0% |
  Calculate atomic Hamiltonians:             0.074     0.074   0.0% |
  Communicate:                              46.190    46.190   0.5% |
  Hartree integrate/restrict:                3.015     3.015   0.0% |
  Poisson:                                  46.112     2.023   0.0% |
   Communicate from 1D:                      4.077     4.077   0.0% |
   Communicate from 2D:                      7.692     7.692   0.1% |
   Communicate to 1D:                        2.136     2.136   0.0% |
   Communicate to 2D:                        9.119     9.119   0.1% |
   FFT 1D:                                  10.874    10.874   0.1% |
   FFT 2D:                                  10.192    10.192   0.1% |
  XC 3D grid:                              731.036   199.953   2.3% ||
   VdW-DF integral:                        531.084    38.867   0.5% |
    Convolution:                            63.573    63.573   0.7% |
    FFT:                                    38.709    38.709   0.5% |
    gather:                                133.480   133.480   1.6% ||
    hmm1:                                   12.172    12.172   0.1% |
    hmm2:                                   25.935    25.935   0.3% |
    iFFT:                                   36.848    36.848   0.4% |
    potential:                             181.498     4.711   0.1% |
     collect:                               14.079    14.079   0.2% |
     p1:                                   110.066   110.066   1.3% ||
     p2:                                    39.277    39.277   0.5% |
     sum:                                   13.365    13.365   0.2% |
    splines:                                 0.001     0.001   0.0% |
  vbar:                                      0.580     0.580   0.0% |
 Orthonormalize:                            67.858     0.003   0.0% |
  calc_s_matrix:                             4.055     4.055   0.0% |
  inverse-cholesky:                         55.215    55.215   0.6% |
  projections:                               0.001     0.001   0.0% |
  rotate_psi_s:                              8.585     8.585   0.1% |
Set symmetry:                                0.002     0.002   0.0% |
Other:                                     435.865   435.865   5.1% |-|
-------------------------------------------------------------------
Total:                                              8531.270 100.0%

Memory usage: 1.52 GiB
Date: Wed Sep 27 22:49:13 2023
