
  ___ ___ ___ _ _ _  
 |   |   |_  | | | | 
 | | | | | . | | | | 
 |__ |  _|___|_____|  22.8.0
 |___|_|             

User:   s204775@a124.nifl.fysik.dtu.dk
Date:   Wed Sep 27 20:48:36 2023
Arch:   x86_64
Pid:    210356
CWD:    /home/cat/s204775/projects/Bachelor_project/O_missing_features
Python: 3.10.4
gpaw:   /home/modules/software/GPAW/22.8.0-intel-2022a/lib/python3.10/site-packages/gpaw
_gpaw:  /home/modules/software/GPAW/22.8.0-intel-2022a/lib/python3.10/site-packages/
        _gpaw.cpython-310-x86_64-linux-gnu.so
ase:    /home/modules/software/ASE/3.22.1-intel-2022a/lib/python3.10/site-packages/ase (version 3.22.1)
numpy:  /home/modules/software/SciPy-bundle/2022.05-intel-2022a/lib/python3.10/site-packages/numpy (version 1.22.3)
scipy:  /home/modules/software/SciPy-bundle/2022.05-intel-2022a/lib/python3.10/site-packages/scipy (version 1.8.1)
libxc:  5.2.3
units:  Angstrom and eV
cores: 40
OpenMP: False
OMP_NUM_THREADS: 1

Input parameters:
  basis: dzp
  h: 0.18
  kpts: {size: (4, 4, 1)}
  xc: BEEF-vdW

System changes: positions, numbers, cell, pbc, initial_charges, initial_magmoms 

Initialize ...

species:
  Cd:
    name: Cadmium
    id: b24f2afa1c5614a277213cf5a4209897
    Z: 48.0
    valence: 12
    core: 36
    charge: 0.0
    file: /home/modules/software/GPAW-setups/0.9.20000/Cd.PBE.gz
    compensation charges: {type: gauss,
                           rc: 0.38,
                           lmax: 2}
    cutoffs: {filter: 2.12,
              core: 2.62}
    valence states:
      #              energy  rcut
      - 5s(2.00)    -5.655   1.191
      - 5p(0.00)    -1.186   1.228
      - 4d(10.00)   -11.739   1.164
      -  s          21.556   1.191
      -  p          26.026   1.228
      -  d          15.473   1.164
  
    # LCAO basis set for Cd:
    #   Name: dzp
    #   File: /home/modules/software/GPAW-setups/0.9.20000/Cd.dzp.basis.gz
    #   Number of radial functions: 7
    #   Number of spherical harmonics: 21
    #     l=0, rc=8.5781 Bohr: 5s-sz confined orbital
    #     l=1, rc=12.6406 Bohr: 5p-sz confined orbital
    #     l=2, rc=4.9062 Bohr: 4d-sz confined orbital
    #     l=0, rc=5.0625 Bohr: 5s-dz split-valence wave
    #     l=1, rc=7.7188 Bohr: 5p-dz split-valence wave
    #     l=2, rc=2.9844 Bohr: 4d-dz split-valence wave
    #     l=1, rc=8.5781 Bohr: p-type Gaussian polarization
    #   Number of RI-basis functions 0

  O:
    name: Oxygen
    id: 32ecd46bf208036f09c70b0ec9a88b78
    Z: 8.0
    valence: 6
    core: 2
    charge: 0.0
    file: /home/modules/software/GPAW-setups/0.9.20000/O.PBE.gz
    compensation charges: {type: gauss,
                           rc: 0.21,
                           lmax: 2}
    cutoffs: {filter: 1.17,
              core: 0.83}
    valence states:
      #              energy  rcut
      - 2s(2.00)   -23.961   0.688
      - 2p(4.00)    -9.029   0.598
      -  s           3.251   0.688
      -  p          18.182   0.598
      -  d           0.000   0.619
  
    # LCAO basis set for O:
    #   Name: dzp
    #   File: /home/modules/software/GPAW-setups/0.9.20000/O.dzp.basis.gz
    #   Number of radial functions: 5
    #   Number of spherical harmonics: 13
    #     l=0, rc=4.3438 Bohr: 2s-sz confined orbital
    #     l=1, rc=5.3906 Bohr: 2p-sz confined orbital
    #     l=0, rc=2.2969 Bohr: 2s-dz split-valence wave
    #     l=1, rc=2.8906 Bohr: 2p-dz split-valence wave
    #     l=2, rc=5.3906 Bohr: d-type Gaussian polarization
    #   Number of RI-basis functions 0

Reference energy: -5480273.112413  # eV

Spin-paired calculation

Convergence criteria:
 Maximum [total energy] change in last 3 cyles: 0.0005 eV / electron
 Maximum integral of absolute [dens]ity change: 0.0001 electrons / valence electron
 Maximum integral of absolute [eigenst]ate change: 4e-08 eV^2 / valence electron
 Maximum number of scf [iter]ations: 333
 (Square brackets indicate name in SCF output, whereas a 'c' in
 the SCF output indicates the quantity has converged.)

Symmetries present (total): 2

  ( 1  1  0)  ( 1  0  0)
  ( 0 -1  0)  ( 0  1  0)
  ( 0  0  1)  ( 0  0  1)
Note: your k-points are not as symmetric as your crystal!

16 k-points: 4 x 4 x 1 Monkhorst-Pack grid
8 k-points in the irreducible part of the Brillouin zone
       k-points in crystal coordinates                weights
   0:     0.12500000   -0.37500000    0.00000000          2/16
   1:     0.12500000   -0.12500000    0.00000000          2/16
   2:     0.12500000    0.12500000    0.00000000          2/16
   3:     0.12500000    0.37500000    0.00000000          2/16
   4:     0.37500000   -0.37500000    0.00000000          2/16
   5:     0.37500000   -0.12500000    0.00000000          2/16
   6:     0.37500000    0.12500000    0.00000000          2/16
   7:     0.37500000    0.37500000    0.00000000          2/16

Wave functions: Uniform real-space grid
  Kinetic energy operator: 8*3+1=25 point O(h^6) finite-difference Laplacian
  ScaLapack parameters: grid=1x1, blocksize=None
  Wavefunction extrapolation:
    Improved wavefunction reuse through dual PAW basis 

Occupation numbers: Fermi-Dirac:
  width: 0.1000  # eV
 

Eigensolver
   Davidson(niter=2) 

Densities:
  Coarse grid: 48*48*156 grid
  Fine grid: 96*96*312 grid
  Total Charge: 0.000000 

Density mixing:
  Method: separate
  Backend: pulay
  Linear mixing parameter: 0.05
  old densities: 5
  Damping of long wavelength oscillations: 50 

Hamiltonian:
  XC and Coulomb potentials evaluated on a 96*96*312 grid
  Using the BEEF-vdW Exchange-Correlation functional
  Interpolation: tri-quintic (5. degree polynomial)
  Poisson solver: FastPoissonSolver using
    Stencil: 8*3+1=25 point O(h^6) finite-difference Laplacian
    FFT axes: [0, 1]
    FST axes: [2]
 

XC parameters: BEEF-vdW with 2 nearest neighbor stencil

Memory estimate:
  Process memory now: 217.84 MiB
  Calculator: 677.50 MiB
    Density: 60.11 MiB
      Arrays: 14.17 MiB
      Localized functions: 40.49 MiB
      Mixer: 5.45 MiB
    Hamiltonian: 12.12 MiB
      Arrays: 9.26 MiB
      XC: 0.00 MiB
      Poisson: 0.00 MiB
      vbar: 2.86 MiB
    Wavefunctions: 605.27 MiB
      Arrays psit_nG: 290.99 MiB
      Eigensolver: 307.32 MiB
      Projections: 0.54 MiB
      Projectors: 6.42 MiB

Total number of cores used: 40
Parallelization over k-points: 8
Domain decomposition: 1 x 1 x 5

Number of atoms: 37
Number of atomic orbitals: 769
Number of bands in calculation: 267
Number of valence electrons: 438
Bands to converge: occupied

... initialized

Initializing position-dependent things.

Density initialized from atomic densities
Creating initial wave functions:
  267 bands from LCAO basis set

                                                 
                                                 
                                                 
                                                 
                            O                    
                Cd      Cd      Cd               
                                                 
                   Cd     Cd      Cd             
                                                 
            Cd      CCd     Cd      Cd           
                                                 
              Cd      Cd      Cd                 
                Cd      Cd      Cd               
               Cd      Cd      Cd                
                                                 
                 Cd      Cd      Cd              
                   Cd      Cd      Cd            
           Cd      Cd     Cd                     
             Cd      Cd     Cd                   
                                                 
               Cd      Cd      Cd                
                                                 
                                                 
                                                 
                                                 

Positions:
   0 Cd     0.000000    0.000000   10.000000    ( 0.0000,  0.0000,  0.0000)
   1 Cd     1.600874    0.924265   12.614217    ( 0.0000,  0.0000,  0.0000)
   2 Cd    -0.000000    1.848530   15.313009    ( 0.0000,  0.0000,  0.0000)
   3 Cd     1.600875    2.772795   18.060029    ( 0.0000,  0.0000,  0.0000)
   4 Cd    -1.600874    2.772795   10.000000    ( 0.0000,  0.0000,  0.0000)
   5 Cd    -0.000000    3.697060   12.614217    ( 0.0000,  0.0000,  0.0000)
   6 Cd    -1.600874    4.621326   15.313008    ( 0.0000,  0.0000,  0.0000)
   7 Cd    -0.000000    5.545591   18.060030    ( 0.0000,  0.0000,  0.0000)
   8 Cd    -3.201748    5.545591   10.000000    ( 0.0000,  0.0000,  0.0000)
   9 Cd    -1.600874    6.469856   12.614217    ( 0.0000,  0.0000,  0.0000)
  10 Cd    -3.201749    7.394121   15.313009    ( 0.0000,  0.0000,  0.0000)
  11 Cd    -1.600874    8.318387   18.060029    ( 0.0000,  0.0000,  0.0000)
  12 Cd     3.201748    0.000000   10.000000    ( 0.0000,  0.0000,  0.0000)
  13 Cd     4.802622    0.924265   12.614217    ( 0.0000,  0.0000,  0.0000)
  14 Cd     3.201748    1.848530   15.313009    ( 0.0000,  0.0000,  0.0000)
  15 Cd     4.802622    2.772795   18.060029    ( 0.0000,  0.0000,  0.0000)
  16 Cd     1.600874    2.772795   10.000000    ( 0.0000,  0.0000,  0.0000)
  17 Cd     3.201748    3.697060   12.614217    ( 0.0000,  0.0000,  0.0000)
  18 Cd     1.600874    4.621326   15.313008    ( 0.0000,  0.0000,  0.0000)
  19 Cd     3.201749    5.545591   18.060029    ( 0.0000,  0.0000,  0.0000)
  20 Cd     0.000000    5.545591   10.000000    ( 0.0000,  0.0000,  0.0000)
  21 Cd     1.600874    6.469856   12.614217    ( 0.0000,  0.0000,  0.0000)
  22 Cd    -0.000000    7.394121   15.313008    ( 0.0000,  0.0000,  0.0000)
  23 Cd     1.600874    8.318387   18.060029    ( 0.0000,  0.0000,  0.0000)
  24 Cd     6.403497    0.000000   10.000000    ( 0.0000,  0.0000,  0.0000)
  25 Cd     8.004371    0.924265   12.614217    ( 0.0000,  0.0000,  0.0000)
  26 Cd     6.403497    1.848530   15.313009    ( 0.0000,  0.0000,  0.0000)
  27 Cd     8.004370    2.772795   18.060029    ( 0.0000,  0.0000,  0.0000)
  28 Cd     4.802622    2.772795   10.000000    ( 0.0000,  0.0000,  0.0000)
  29 Cd     6.403497    3.697060   12.614217    ( 0.0000,  0.0000,  0.0000)
  30 Cd     4.802622    4.621326   15.313009    ( 0.0000,  0.0000,  0.0000)
  31 Cd     6.403496    5.545591   18.060029    ( 0.0000,  0.0000,  0.0000)
  32 Cd     3.201748    5.545591   10.000000    ( 0.0000,  0.0000,  0.0000)
  33 Cd     4.802622    6.469856   12.614217    ( 0.0000,  0.0000,  0.0000)
  34 Cd     3.201749    7.394121   15.313009    ( 0.0000,  0.0000,  0.0000)
  35 Cd     4.802622    8.318386   18.060030    ( 0.0000,  0.0000,  0.0000)
  36 O      3.201749    7.394121   18.984294    ( 0.0000,  0.0000,  0.0000)

Unit cell:
           periodic     x           y           z      points  spacing
  1. axis:    yes    9.605245    0.000000    0.000000    48     0.1733
  2. axis:    yes   -4.802622    8.318386    0.000000    48     0.1733
  3. axis:    no     0.000000    0.000000   27.842650   156     0.1785

  Lengths:   9.605245   9.605245  27.842650
  Angles:   90.000000  90.000000 120.000000

Effective grid spacing dv^(1/3) = 0.1836

     iter     time        total  log10-change:
                         energy  eigst   dens
iter:   1 20:49:35 -5458.928608
iter:   2 20:50:02 -5458.683984  -0.83  -1.34
iter:   3 20:50:29 -5457.723923  -1.32  -1.36
iter:   4 20:50:57 -5457.613223  -1.70  -1.44
iter:   5 20:51:24 -5458.175246  -1.59  -1.50
iter:   6 20:51:51 -5458.465502  -1.37  -1.71
iter:   7 20:52:18 -5457.941138  -1.87  -2.13
iter:   8 20:52:46 -5457.936638  -2.69  -2.32
iter:   9 20:53:13 -5457.847495c -2.63  -2.44
iter:  10 20:53:40 -5457.831467c -2.82  -2.64
iter:  11 20:54:07 -5457.826801c -3.53  -2.78
iter:  12 20:54:35 -5457.826007c -4.00  -2.85
iter:  13 20:55:02 -5457.824981c -3.98  -2.94
iter:  14 20:55:29 -5457.825785c -3.85  -3.04
iter:  15 20:55:57 -5457.825425c -4.49  -3.27
iter:  16 20:56:24 -5457.823733c -4.55  -3.34
iter:  17 20:56:51 -5457.824012c -5.22  -3.44
iter:  18 20:57:18 -5457.824101c -4.93  -3.54
iter:  19 20:57:45 -5457.823958c -5.22  -3.82
iter:  20 20:58:13 -5457.823959c -6.03  -3.89
iter:  21 20:58:40 -5457.824036c -6.05  -3.93
iter:  22 20:59:07 -5457.824014c -6.25  -4.12c
iter:  23 20:59:34 -5457.824009c -6.77  -4.22c
iter:  24 21:00:02 -5457.824021c -6.32  -4.27c
iter:  25 21:00:29 -5457.824000c -6.79  -4.48c
iter:  26 21:00:56 -5457.823997c -7.08  -4.73c
iter:  27 21:01:24 -5457.824001c -7.67c -4.78c

Converged after 27 iterations.

Dipole moment: (-6.087614, -9.744854, -0.150530) |e|*Ang

Energy contributions relative to reference atoms: (reference = -5480273.112413)

Kinetic:       +1054.940759
Potential:     -950.459744
External:        +0.000000
XC:            -5565.576566
Entropy (-ST):   -0.483897
Local:           +3.513498
--------------------------
Free energy:   -5458.065949
Extrapolated:  -5457.824001

Showing only first 2 kpts
 Kpt  Band  Eigenvalues  Occupancy
  0   217     -4.60205    1.87525
  0   218     -4.26189    0.66745
  0   219     -4.17323    0.34215
  0   220     -4.07902    0.14893

  1   217     -4.35160    1.10250
  1   218     -4.30230    0.85731
  1   219     -3.73214    0.00500
  1   220     -3.68163    0.00302


Fermi level: -4.33103

No gap

Forces in eV/Ang:
  0 Cd   -0.01177   -0.00679   -0.22216
  1 Cd   -0.01161   -0.00670    0.26234
  2 Cd    0.01337   -0.01625    0.00564
  3 Cd    0.01463   -0.01023   -0.00144
  4 Cd   -0.01769   -0.00916   -0.23900
  5 Cd   -0.01217    0.00718    0.22348
  6 Cd    0.00256    0.00148   -0.03695
  7 Cd   -0.12991   -0.07500   -0.05453
  8 Cd   -0.01678   -0.01074   -0.23900
  9 Cd    0.00014   -0.01413    0.22348
 10 Cd   -0.00739    0.01970    0.00564
 11 Cd   -0.00154    0.01778   -0.00144
 12 Cd    0.01127   -0.00318   -0.22856
 13 Cd    0.01397    0.00160    0.25794
 14 Cd    0.00554    0.00320   -0.03007
 15 Cd   -0.01269   -0.00732    0.00544
 16 Cd    0.00288    0.01135   -0.22856
 17 Cd    0.00837    0.01130    0.25794
 18 Cd    0.02200   -0.00242    0.00651
 19 Cd   -0.00408   -1.74433   -0.43479
 20 Cd    0.00370    0.00214   -0.22430
 21 Cd   -0.00590   -0.00340    0.22342
 22 Cd    0.00890    0.02026    0.00651
 23 Cd   -1.51267    0.86863   -0.43479
 24 Cd   -0.00048    0.01346   -0.22708
 25 Cd   -0.00375    0.01043    0.22248
 26 Cd   -0.01575   -0.01534    0.00921
 27 Cd   -0.00353    0.15283   -0.04407
 28 Cd    0.01567    0.00905   -0.23937
 29 Cd   -0.00052   -0.00030    0.21431
 30 Cd   -0.02116   -0.00597    0.00921
 31 Cd    0.13059   -0.07947   -0.04407
 32 Cd    0.01142   -0.00715   -0.22708
 33 Cd    0.00716   -0.00847    0.22248
 34 Cd   -0.00062   -0.00036   -0.15122
 35 Cd    1.51502    0.87469   -0.44670
 36 O     0.00449    0.00259    1.33827

      Step     Time          Energy         fmax
BFGS:    0 21:01:35    -5457.824001        1.8055
System changes: positions 

Initializing position-dependent things.

Density initialized from wave functions
                                                 
                                                 
                                                 
                                                 
                            O                    
                Cd      Cd      Cd               
                                                 
                   Cd     Cd      Cd             
                                                 
            Cd      CCd     Cd      Cd           
                                                 
              Cd      Cd      Cd                 
                                                 
               CCd     CCd     CCd               
                                                 
                 Cd      Cd      Cd              
                   Cd      Cd      Cd            
           Cd      Cd     Cd                     
             Cd      Cd     Cd                   
                                                 
               Cd      Cd      Cd                
                                                 
                                                 
                                                 
                                                 

Positions:
   0 Cd     0.000000    0.000000   10.000000    ( 0.0000,  0.0000,  0.0000)
   1 Cd     1.600874    0.924265   12.614217    ( 0.0000,  0.0000,  0.0000)
   2 Cd     0.000191    1.848298   15.313090    ( 0.0000,  0.0000,  0.0000)
   3 Cd     1.601084    2.772649   18.060008    ( 0.0000,  0.0000,  0.0000)
   4 Cd    -1.600874    2.772795   10.000000    ( 0.0000,  0.0000,  0.0000)
   5 Cd    -0.000000    3.697060   12.614217    ( 0.0000,  0.0000,  0.0000)
   6 Cd    -1.600837    4.621347   15.312481    ( 0.0000,  0.0000,  0.0000)
   7 Cd    -0.001856    5.544519   18.059251    ( 0.0000,  0.0000,  0.0000)
   8 Cd    -3.201748    5.545591   10.000000    ( 0.0000,  0.0000,  0.0000)
   9 Cd    -1.600874    6.469856   12.614217    ( 0.0000,  0.0000,  0.0000)
  10 Cd    -3.201854    7.394403   15.313090    ( 0.0000,  0.0000,  0.0000)
  11 Cd    -1.600896    8.318641   18.060008    ( 0.0000,  0.0000,  0.0000)
  12 Cd     3.201748    0.000000   10.000000    ( 0.0000,  0.0000,  0.0000)
  13 Cd     4.802622    0.924265   12.614217    ( 0.0000,  0.0000,  0.0000)
  14 Cd     3.201827    1.848576   15.312580    ( 0.0000,  0.0000,  0.0000)
  15 Cd     4.802441    2.772691   18.060107    ( 0.0000,  0.0000,  0.0000)
  16 Cd     1.600874    2.772795   10.000000    ( 0.0000,  0.0000,  0.0000)
  17 Cd     3.201748    3.697060   12.614217    ( 0.0000,  0.0000,  0.0000)
  18 Cd     1.601188    4.621291   15.313101    ( 0.0000,  0.0000,  0.0000)
  19 Cd     3.201690    5.520672   18.053818    ( 0.0000,  0.0000,  0.0000)
  20 Cd     0.000000    5.545591   10.000000    ( 0.0000,  0.0000,  0.0000)
  21 Cd     1.600874    6.469856   12.614217    ( 0.0000,  0.0000,  0.0000)
  22 Cd     0.000127    7.394410   15.313101    ( 0.0000,  0.0000,  0.0000)
  23 Cd     1.579265    8.330796   18.053818    ( 0.0000,  0.0000,  0.0000)
  24 Cd     6.403497    0.000000   10.000000    ( 0.0000,  0.0000,  0.0000)
  25 Cd     8.004371    0.924265   12.614217    ( 0.0000,  0.0000,  0.0000)
  26 Cd     6.403272    1.848311   15.313141    ( 0.0000,  0.0000,  0.0000)
  27 Cd     8.004320    2.774978   18.059399    ( 0.0000,  0.0000,  0.0000)
  28 Cd     4.802622    2.772795   10.000000    ( 0.0000,  0.0000,  0.0000)
  29 Cd     6.403497    3.697060   12.614217    ( 0.0000,  0.0000,  0.0000)
  30 Cd     4.802320    4.621240   15.313141    ( 0.0000,  0.0000,  0.0000)
  31 Cd     6.405362    5.544455   18.059399    ( 0.0000,  0.0000,  0.0000)
  32 Cd     3.201748    5.545591   10.000000    ( 0.0000,  0.0000,  0.0000)
  33 Cd     4.802622    6.469856   12.614217    ( 0.0000,  0.0000,  0.0000)
  34 Cd     3.201740    7.394116   15.310849    ( 0.0000,  0.0000,  0.0000)
  35 Cd     4.824266    8.330882   18.053648    ( 0.0000,  0.0000,  0.0000)
  36 O      3.201813    7.394158   19.003412    ( 0.0000,  0.0000,  0.0000)

Unit cell:
           periodic     x           y           z      points  spacing
  1. axis:    yes    9.605245    0.000000    0.000000    48     0.1733
  2. axis:    yes   -4.802622    8.318386    0.000000    48     0.1733
  3. axis:    no     0.000000    0.000000   27.842650   156     0.1785

  Lengths:   9.605245   9.605245  27.842650
  Angles:   90.000000  90.000000 120.000000

Effective grid spacing dv^(1/3) = 0.1836

     iter     time        total  log10-change:
                         energy  eigst   dens
iter:   1 21:02:31 -5457.993209  -2.21
iter:   2 21:02:58 -5457.980702  -3.28  -2.86
iter:   3 21:03:26 -5457.966971c -3.34  -3.07
iter:   4 21:03:54 -5457.965822c -4.00  -3.24
iter:   5 21:04:21 -5457.965516c -4.22  -3.51
iter:   6 21:04:49 -5457.964853c -4.19  -3.59
iter:   7 21:05:16 -5457.964598c -4.98  -3.73
iter:   8 21:05:44 -5457.964430c -5.32  -3.84
iter:   9 21:06:11 -5457.964445c -5.59  -4.01c
iter:  10 21:06:39 -5457.964426c -6.03  -4.22c
iter:  11 21:07:06 -5457.964425c -6.42  -4.22c
iter:  12 21:07:34 -5457.964441c -6.30  -4.31c
iter:  13 21:08:02 -5457.964443c -6.89  -4.55c
iter:  14 21:08:29 -5457.964432c -7.25  -4.58c
iter:  15 21:08:57 -5457.964429c -7.28  -4.74c
iter:  16 21:09:24 -5457.964432c -7.49c -4.92c

Converged after 16 iterations.

Dipole moment: (-6.942105, -11.011962, -0.172188) |e|*Ang

Energy contributions relative to reference atoms: (reference = -5480273.112413)

Kinetic:       +1050.953441
Potential:     -947.132036
External:        +0.000000
XC:            -5565.075131
Entropy (-ST):   -0.482745
Local:           +3.530668
--------------------------
Free energy:   -5458.205805
Extrapolated:  -5457.964432

Showing only first 2 kpts
 Kpt  Band  Eigenvalues  Occupancy
  0   217     -4.61576    1.87461
  0   218     -4.27771    0.67442
  0   219     -4.18537    0.33621
  0   220     -4.09492    0.15120

  1   217     -4.36635    1.10494
  1   218     -4.31231    0.83660
  1   219     -3.74894    0.00513
  1   220     -3.69525    0.00300


Fermi level: -4.34528

No gap

Forces in eV/Ang:
  0 Cd   -0.01119   -0.00646   -0.22199
  1 Cd   -0.01032   -0.00596    0.25978
  2 Cd    0.00992   -0.01464    0.00247
  3 Cd    0.01076   -0.00795    0.00187
  4 Cd   -0.01792   -0.00880   -0.23671
  5 Cd   -0.01217    0.00711    0.22106
  6 Cd    0.00241    0.00139   -0.03879
  7 Cd   -0.11964   -0.06907   -0.05365
  8 Cd   -0.01658   -0.01111   -0.23671
  9 Cd    0.00007   -0.01409    0.22106
 10 Cd   -0.00772    0.01591    0.00247
 11 Cd   -0.00151    0.01330    0.00187
 12 Cd    0.01122   -0.00323   -0.22527
 13 Cd    0.01271    0.00251    0.25519
 14 Cd    0.00523    0.00302   -0.03066
 15 Cd   -0.00908   -0.00524    0.00884
 16 Cd    0.00281    0.01133   -0.22527
 17 Cd    0.00852    0.00975    0.25519
 18 Cd    0.01866   -0.00030    0.00323
 19 Cd   -0.00415   -1.24536   -0.24018
 20 Cd    0.00328    0.00189   -0.22209
 21 Cd   -0.00895   -0.00517    0.22287
 22 Cd    0.00907    0.01631    0.00323
 23 Cd   -1.08059    0.61908   -0.24018
 24 Cd   -0.00108    0.01415   -0.22699
 25 Cd   -0.00380    0.01414    0.22194
 26 Cd   -0.01197   -0.01374    0.00566
 27 Cd   -0.00319    0.14052   -0.04306
 28 Cd    0.01613    0.00931   -0.23601
 29 Cd   -0.00046   -0.00026    0.21156
 30 Cd   -0.01789   -0.00350    0.00566
 31 Cd    0.12010   -0.07302   -0.04306
 32 Cd    0.01171   -0.00801   -0.22699
 33 Cd    0.01034   -0.01036    0.22194
 34 Cd   -0.00058   -0.00034   -0.12606
 35 Cd    1.08285    0.62519   -0.25190
 36 O     0.00467    0.00269    0.80305

BFGS:    1 21:09:35    -5457.964432        1.2755
System changes: positions 

Initializing position-dependent things.

Density initialized from wave functions
                                                 
                                                 
                                                 
                                                 
                            O                    
                Cd      Cd      Cd               
                                                 
                   Cd     Cd      Cd             
                                                 
            Cd      CCd     Cd      Cd           
                                                 
              Cd      Cd      Cd                 
                                                 
               CCd     CCd     CCd               
                                                 
                 Cd      Cd      Cd              
                   Cd      Cd      Cd            
           Cd      Cd     Cd                     
             Cd      Cd     Cd                   
                                                 
               Cd      Cd      Cd                
                                                 
                                                 
                                                 
                                                 

Positions:
   0 Cd     0.000000    0.000000   10.000000    ( 0.0000,  0.0000,  0.0000)
   1 Cd     1.600874    0.924265   12.614217    ( 0.0000,  0.0000,  0.0000)
   2 Cd     0.000655    1.847615   15.313206    ( 0.0000,  0.0000,  0.0000)
   3 Cd     1.601587    2.772277   18.060094    ( 0.0000,  0.0000,  0.0000)
   4 Cd    -1.600874    2.772795   10.000000    ( 0.0000,  0.0000,  0.0000)
   5 Cd    -0.000000    3.697060   12.614217    ( 0.0000,  0.0000,  0.0000)
   6 Cd    -1.600725    4.621412   15.310673    ( 0.0000,  0.0000,  0.0000)
   7 Cd    -0.007437    5.541297   18.056750    ( 0.0000,  0.0000,  0.0000)
   8 Cd    -3.201748    5.545591   10.000000    ( 0.0000,  0.0000,  0.0000)
   9 Cd    -1.600874    6.469856   12.614217    ( 0.0000,  0.0000,  0.0000)
  10 Cd    -3.202214    7.395146   15.313206    ( 0.0000,  0.0000,  0.0000)
  11 Cd    -1.600966    8.319262   18.060094    ( 0.0000,  0.0000,  0.0000)
  12 Cd     3.201748    0.000000   10.000000    ( 0.0000,  0.0000,  0.0000)
  13 Cd     4.802622    0.924265   12.614217    ( 0.0000,  0.0000,  0.0000)
  14 Cd     3.202071    1.848717   15.311151    ( 0.0000,  0.0000,  0.0000)
  15 Cd     4.802017    2.772446   18.060517    ( 0.0000,  0.0000,  0.0000)
  16 Cd     1.600874    2.772795   10.000000    ( 0.0000,  0.0000,  0.0000)
  17 Cd     3.201748    3.697060   12.614217    ( 0.0000,  0.0000,  0.0000)
  18 Cd     1.602059    4.621276   15.313253    ( 0.0000,  0.0000,  0.0000)
  19 Cd     3.201497    5.462402   18.042535    ( 0.0000,  0.0000,  0.0000)
  20 Cd     0.000000    5.545591   10.000000    ( 0.0000,  0.0000,  0.0000)
  21 Cd     1.600874    6.469856   12.614217    ( 0.0000,  0.0000,  0.0000)
  22 Cd     0.000550    7.395172   15.313253    ( 0.0000,  0.0000,  0.0000)
  23 Cd     1.528705    8.359763   18.042535    ( 0.0000,  0.0000,  0.0000)
  24 Cd     6.403497    0.000000   10.000000    ( 0.0000,  0.0000,  0.0000)
  25 Cd     8.004371    0.924265   12.614217    ( 0.0000,  0.0000,  0.0000)
  26 Cd     6.402712    1.847670   15.313406    ( 0.0000,  0.0000,  0.0000)
  27 Cd     8.004171    2.781533   18.057392    ( 0.0000,  0.0000,  0.0000)
  28 Cd     4.802622    2.772795   10.000000    ( 0.0000,  0.0000,  0.0000)
  29 Cd     6.403497    3.697060   12.614217    ( 0.0000,  0.0000,  0.0000)
  30 Cd     4.801485    4.621076   15.313406    ( 0.0000,  0.0000,  0.0000)
  31 Cd     6.410964    5.541049   18.057392    ( 0.0000,  0.0000,  0.0000)
  32 Cd     3.201748    5.545591   10.000000    ( 0.0000,  0.0000,  0.0000)
  33 Cd     4.802622    6.469856   12.614217    ( 0.0000,  0.0000,  0.0000)
  34 Cd     3.201713    7.394100   15.304962    ( 0.0000,  0.0000,  0.0000)
  35 Cd     4.874931    8.360134   18.041819    ( 0.0000,  0.0000,  0.0000)
  36 O      3.202030    7.394284   19.041084    ( 0.0000,  0.0000,  0.0000)

Unit cell:
           periodic     x           y           z      points  spacing
  1. axis:    yes    9.605245    0.000000    0.000000    48     0.1733
  2. axis:    yes   -4.802622    8.318386    0.000000    48     0.1733
  3. axis:    no     0.000000    0.000000   27.842650   156     0.1785

  Lengths:   9.605245   9.605245  27.842650
  Angles:   90.000000  90.000000 120.000000

Effective grid spacing dv^(1/3) = 0.1836

     iter     time        total  log10-change:
                         energy  eigst   dens
iter:   1 21:10:31 -5458.272530  -1.56
iter:   2 21:10:58 -5458.205446  -2.60  -2.48
iter:   3 21:11:26 -5458.141291c -2.74  -2.70
iter:   4 21:11:53 -5458.131522c -3.19  -2.86
iter:   5 21:12:21 -5458.131506c -3.48  -3.16
iter:   6 21:12:48 -5458.125883c -3.52  -3.23
iter:   7 21:13:16 -5458.125096c -4.23  -3.40
iter:   8 21:13:43 -5458.124613c -4.60  -3.52
iter:   9 21:14:11 -5458.124641c -5.00  -3.69
iter:  10 21:14:38 -5458.124600c -5.44  -3.87
iter:  11 21:15:06 -5458.124598c -5.74  -3.89
iter:  12 21:15:33 -5458.124594c -5.87  -3.98
iter:  13 21:16:01 -5458.124617c -6.05  -4.17c
iter:  14 21:16:28 -5458.124603c -6.50  -4.22c
iter:  15 21:16:56 -5458.124599c -6.52  -4.44c
iter:  16 21:17:23 -5458.124601c -6.84  -4.68c
iter:  17 21:17:51 -5458.124603c -7.44c -4.83c

Converged after 17 iterations.

Dipole moment: (-8.829039, -13.884116, -0.216260) |e|*Ang

Energy contributions relative to reference atoms: (reference = -5480273.112413)

Kinetic:       +1044.915458
Potential:     -942.142145
External:        +0.000000
XC:            -5564.207359
Entropy (-ST):   -0.480068
Local:           +3.549477
--------------------------
Free energy:   -5458.364637
Extrapolated:  -5458.124603

Showing only first 2 kpts
 Kpt  Band  Eigenvalues  Occupancy
  0   217     -4.64339    1.87152
  0   218     -4.31182    0.69188
  0   219     -4.21052    0.32225
  0   220     -4.12943    0.15730

  1   217     -4.39699    1.10698
  1   218     -4.32929    0.77291
  1   219     -3.78470    0.00542
  1   220     -3.72320    0.00293


Fermi level: -4.37551

No gap

Forces in eV/Ang:
  0 Cd   -0.01187   -0.00685   -0.22280
  1 Cd   -0.00896   -0.00517    0.25805
  2 Cd    0.00366   -0.00480   -0.00911
  3 Cd    0.00135   -0.00244    0.00834
  4 Cd   -0.01845   -0.00939   -0.23673
  5 Cd   -0.01108    0.00631    0.22237
  6 Cd    0.00202    0.00117   -0.04766
  7 Cd   -0.08608   -0.04970   -0.04767
  8 Cd   -0.01735   -0.01128   -0.23673
  9 Cd   -0.00007   -0.01275    0.22237
 10 Cd   -0.00233    0.00557   -0.00911
 11 Cd   -0.00144    0.00239    0.00834
 12 Cd    0.01104   -0.00434   -0.22458
 13 Cd    0.01155    0.00323    0.25318
 14 Cd    0.00451    0.00260   -0.03583
 15 Cd   -0.00024   -0.00014    0.01518
 16 Cd    0.00176    0.01173   -0.22458
 17 Cd    0.00857    0.00839    0.25318
 18 Cd    0.00682    0.00023   -0.00878
 19 Cd   -0.00438   -0.45136    0.13888
 20 Cd    0.00367    0.00212   -0.22227
 21 Cd   -0.01300   -0.00750    0.21771
 22 Cd    0.00361    0.00579   -0.00878
 23 Cd   -0.39308    0.22188    0.13888
 24 Cd   -0.00050    0.01431   -0.22783
 25 Cd   -0.00398    0.01914    0.21666
 26 Cd   -0.00492   -0.00401   -0.00636
 27 Cd   -0.00229    0.10079   -0.03710
 28 Cd    0.01798    0.01038   -0.23511
 29 Cd   -0.00145   -0.00084    0.21203
 30 Cd   -0.00593   -0.00226   -0.00636
 31 Cd    0.08614   -0.05238   -0.03710
 32 Cd    0.01214   -0.00759   -0.22783
 33 Cd    0.01458   -0.01302    0.21666
 34 Cd   -0.00054   -0.00031   -0.05433
 35 Cd    0.39570    0.22846    0.12752
 36 O     0.00370    0.00214   -0.22951

BFGS:    2 21:18:02    -5458.124603        0.4744
System changes: positions 

Initializing position-dependent things.

Density initialized from wave functions
                                                 
                                                 
                                                 
                                                 
                            O                    
                Cd      Cd      Cd               
                                                 
                   Cd     Cd      Cd             
                                                 
            Cd      CCd     Cd      Cd           
                                                 
              Cd      Cd      Cd                 
                                                 
               CCd     CCd     CCd               
                                                 
                 Cd      Cd      Cd              
                   Cd      Cd      Cd            
           Cd      Cd     Cd                     
             Cd      Cd     Cd                   
                                                 
               Cd      Cd      Cd                
                                                 
                                                 
                                                 
                                                 

Positions:
   0 Cd     0.000000    0.000000   10.000000    ( 0.0000,  0.0000,  0.0000)
   1 Cd     1.600874    0.924265   12.614217    ( 0.0000,  0.0000,  0.0000)
   2 Cd     0.000858    1.847329   15.313064    ( 0.0000,  0.0000,  0.0000)
   3 Cd     1.601757    2.772124   18.060278    ( 0.0000,  0.0000,  0.0000)
   4 Cd    -1.600874    2.772795   10.000000    ( 0.0000,  0.0000,  0.0000)
   5 Cd    -0.000000    3.697060   12.614217    ( 0.0000,  0.0000,  0.0000)
   6 Cd    -1.600654    4.621453   15.309244    ( 0.0000,  0.0000,  0.0000)
   7 Cd    -0.010676    5.539427   18.055125    ( 0.0000,  0.0000,  0.0000)
   8 Cd    -3.201748    5.545591   10.000000    ( 0.0000,  0.0000,  0.0000)
   9 Cd    -1.600874    6.469856   12.614217    ( 0.0000,  0.0000,  0.0000)
  10 Cd    -3.202359    7.395465   15.313064    ( 0.0000,  0.0000,  0.0000)
  11 Cd    -1.601014    8.319486   18.060278    ( 0.0000,  0.0000,  0.0000)
  12 Cd     3.201748    0.000000   10.000000    ( 0.0000,  0.0000,  0.0000)
  13 Cd     4.802622    0.924265   12.614217    ( 0.0000,  0.0000,  0.0000)
  14 Cd     3.202227    1.848807   15.310057    ( 0.0000,  0.0000,  0.0000)
  15 Cd     4.801891    2.772373   18.060924    ( 0.0000,  0.0000,  0.0000)
  16 Cd     1.600874    2.772795   10.000000    ( 0.0000,  0.0000,  0.0000)
  17 Cd     3.201748    3.697060   12.614217    ( 0.0000,  0.0000,  0.0000)
  18 Cd     1.602438    4.621275   15.313128    ( 0.0000,  0.0000,  0.0000)
  19 Cd     3.201358    5.437001   18.041942    ( 0.0000,  0.0000,  0.0000)
  20 Cd     0.000000    5.545591   10.000000    ( 0.0000,  0.0000,  0.0000)
  21 Cd     1.600874    6.469856   12.614217    ( 0.0000,  0.0000,  0.0000)
  22 Cd     0.000738    7.395500   15.313128    ( 0.0000,  0.0000,  0.0000)
  23 Cd     1.506637    8.372343   18.041942    ( 0.0000,  0.0000,  0.0000)
  24 Cd     6.403497    0.000000   10.000000    ( 0.0000,  0.0000,  0.0000)
  25 Cd     8.004371    0.924265   12.614217    ( 0.0000,  0.0000,  0.0000)
  26 Cd     6.402457    1.847412   15.313360    ( 0.0000,  0.0000,  0.0000)
  27 Cd     8.004085    2.785332   18.056110    ( 0.0000,  0.0000,  0.0000)
  28 Cd     4.802622    2.772795   10.000000    ( 0.0000,  0.0000,  0.0000)
  29 Cd     6.403497    3.697060   12.614217    ( 0.0000,  0.0000,  0.0000)
  30 Cd     4.801134    4.620985   15.313360    ( 0.0000,  0.0000,  0.0000)
  31 Cd     6.414211    5.539075   18.056110    ( 0.0000,  0.0000,  0.0000)
  32 Cd     3.201748    5.545591   10.000000    ( 0.0000,  0.0000,  0.0000)
  33 Cd     4.802622    6.469856   12.614217    ( 0.0000,  0.0000,  0.0000)
  34 Cd     3.201695    7.394090   15.302243    ( 0.0000,  0.0000,  0.0000)
  35 Cd     4.897079    8.372921   18.040853    ( 0.0000,  0.0000,  0.0000)
  36 O      3.202163    7.394360   19.047532    ( 0.0000,  0.0000,  0.0000)

Unit cell:
           periodic     x           y           z      points  spacing
  1. axis:    yes    9.605245    0.000000    0.000000    48     0.1733
  2. axis:    yes   -4.802622    8.318386    0.000000    48     0.1733
  3. axis:    no     0.000000    0.000000   27.842650   156     0.1785

  Lengths:   9.605245   9.605245  27.842650
  Angles:   90.000000  90.000000 120.000000

Effective grid spacing dv^(1/3) = 0.1836

     iter     time        total  log10-change:
                         energy  eigst   dens
iter:   1 21:18:58 -5458.172378  -2.34
iter:   2 21:19:25 -5458.157944  -3.38  -2.79
iter:   3 21:19:53 -5458.152522c -3.95  -3.07
iter:   4 21:20:20 -5458.148323c -3.82  -3.23
iter:   5 21:20:48 -5458.148022c -4.41  -3.54
iter:   6 21:21:16 -5458.147808c -4.39  -3.64
iter:   7 21:21:43 -5458.147795c -5.09  -3.82
iter:   8 21:22:11 -5458.147705c -5.40  -3.89
iter:   9 21:22:39 -5458.147707c -5.90  -4.09c
iter:  10 21:23:06 -5458.147682c -6.39  -4.25c
iter:  11 21:23:34 -5458.147687c -6.58  -4.43c
iter:  12 21:24:01 -5458.147684c -6.76  -4.50c
iter:  13 21:24:29 -5458.147693c -7.18  -4.54c
iter:  14 21:24:57 -5458.147700c -6.98  -4.74c
iter:  15 21:25:24 -5458.147698c -7.84c -4.93c

Converged after 15 iterations.

Dipole moment: (-9.580195, -15.082933, -0.227696) |e|*Ang

Energy contributions relative to reference atoms: (reference = -5480273.112413)

Kinetic:       +1043.242147
Potential:     -940.753440
External:        +0.000000
XC:            -5563.949911
Entropy (-ST):   -0.478845
Local:           +3.552928
--------------------------
Free energy:   -5458.387121
Extrapolated:  -5458.147698

Showing only first 2 kpts
 Kpt  Band  Eigenvalues  Occupancy
  0   217     -4.64990    1.86982
  0   218     -4.32140    0.69942
  0   219     -4.21593    0.31549
  0   220     -4.13945    0.16037

  1   217     -4.40431    1.10399
  1   218     -4.33033    0.74053
  1   219     -3.79395    0.00549
  1   220     -3.72925    0.00288


Fermi level: -4.38343

No gap

Forces in eV/Ang:
  0 Cd   -0.00972   -0.00561   -0.22397
  1 Cd   -0.00881   -0.00508    0.25598
  2 Cd   -0.00080   -0.00341   -0.01284
  3 Cd   -0.00280    0.00006    0.00935
  4 Cd   -0.01876   -0.00778   -0.23772
  5 Cd   -0.01008    0.00580    0.22271
  6 Cd    0.00187    0.00108   -0.04822
  7 Cd   -0.06770   -0.03908   -0.04590
  8 Cd   -0.01612   -0.01235   -0.23772
  9 Cd   -0.00002   -0.01163    0.22271
 10 Cd   -0.00336    0.00101   -0.01284
 11 Cd   -0.00135   -0.00246    0.00935
 12 Cd    0.01107   -0.00338   -0.22503
 13 Cd    0.01158    0.00326    0.25104
 14 Cd    0.00410    0.00237   -0.03594
 15 Cd    0.00363    0.00209    0.01611
 16 Cd    0.00261    0.01128   -0.22503
 17 Cd    0.00861    0.00840    0.25104
 18 Cd    0.00331    0.00350   -0.01276
 19 Cd   -0.00379   -0.17587    0.22299
 20 Cd    0.00233    0.00135   -0.22329
 21 Cd   -0.01386   -0.00800    0.21914
 22 Cd    0.00468    0.00112   -0.01276
 23 Cd   -0.15421    0.08465    0.22299
 24 Cd   -0.00282    0.01578   -0.22893
 25 Cd   -0.00417    0.02024    0.21810
 26 Cd   -0.00006   -0.00280   -0.01034
 27 Cd   -0.00184    0.07931   -0.03544
 28 Cd    0.01754    0.01013   -0.23546
 29 Cd   -0.00240   -0.00139    0.21200
 30 Cd   -0.00245    0.00135   -0.01034
 31 Cd    0.06777   -0.04125   -0.03544
 32 Cd    0.01226   -0.01034   -0.22893
 33 Cd    0.01544   -0.01373    0.21810
 34 Cd   -0.00055   -0.00031   -0.02208
 35 Cd    0.15642    0.09031    0.21250
 36 O     0.00420    0.00242   -0.45262

BFGS:    3 21:25:35    -5458.147698        0.4526
System changes: positions 

Initializing position-dependent things.

Density initialized from wave functions
                                                 
                                                 
                                                 
                                                 
                            O                    
                Cd      Cd      Cd               
                                                 
                  Cd      Cd      Cd             
                                                 
            Cd      CCd     Cd      Cd           
                                                 
              Cd      Cd      Cd                 
                                                 
               CCd     CCd     CCd               
                                                 
                 Cd      Cd      Cd              
                   Cd      Cd      Cd            
           Cd      Cd     Cd                     
             Cd      Cd     Cd                   
                                                 
               Cd      Cd      Cd                
                                                 
                                                 
                                                 
                                                 

Positions:
   0 Cd     0.000000    0.000000   10.000000    ( 0.0000,  0.0000,  0.0000)
   1 Cd     1.600874    0.924265   12.614217    ( 0.0000,  0.0000,  0.0000)
   2 Cd     0.000936    1.847123   15.312760    ( 0.0000,  0.0000,  0.0000)
   3 Cd     1.601785    2.772053   18.060534    ( 0.0000,  0.0000,  0.0000)
   4 Cd    -1.600874    2.772795   10.000000    ( 0.0000,  0.0000,  0.0000)
   5 Cd    -0.000000    3.697060   12.614217    ( 0.0000,  0.0000,  0.0000)
   6 Cd    -1.600585    4.621492   15.307669    ( 0.0000,  0.0000,  0.0000)
   7 Cd    -0.013477    5.537810   18.053489    ( 0.0000,  0.0000,  0.0000)
   8 Cd    -3.201748    5.545591   10.000000    ( 0.0000,  0.0000,  0.0000)
   9 Cd    -1.600874    6.469856   12.614217    ( 0.0000,  0.0000,  0.0000)
  10 Cd    -3.202499    7.395636   15.312760    ( 0.0000,  0.0000,  0.0000)
  11 Cd    -1.601062    8.319547   18.060534    ( 0.0000,  0.0000,  0.0000)
  12 Cd     3.201748    0.000000   10.000000    ( 0.0000,  0.0000,  0.0000)
  13 Cd     4.802622    0.924265   12.614217    ( 0.0000,  0.0000,  0.0000)
  14 Cd     3.202378    1.848894   15.308867    ( 0.0000,  0.0000,  0.0000)
  15 Cd     4.801898    2.772377   18.061414    ( 0.0000,  0.0000,  0.0000)
  16 Cd     1.600874    2.772795   10.000000    ( 0.0000,  0.0000,  0.0000)
  17 Cd     3.201748    3.697060   12.614217    ( 0.0000,  0.0000,  0.0000)
  18 Cd     1.602684    4.621347   15.312832    ( 0.0000,  0.0000,  0.0000)
  19 Cd     3.201222    5.421253   18.045566    ( 0.0000,  0.0000,  0.0000)
  20 Cd     0.000000    5.545591   10.000000    ( 0.0000,  0.0000,  0.0000)
  21 Cd     1.600874    6.469856   12.614217    ( 0.0000,  0.0000,  0.0000)
  22 Cd     0.000923    7.395678   15.312832    ( 0.0000,  0.0000,  0.0000)
  23 Cd     1.492931    8.380099   18.045566    ( 0.0000,  0.0000,  0.0000)
  24 Cd     6.403497    0.000000   10.000000    ( 0.0000,  0.0000,  0.0000)
  25 Cd     8.004371    0.924265   12.614217    ( 0.0000,  0.0000,  0.0000)
  26 Cd     6.402338    1.847229   15.313147    ( 0.0000,  0.0000,  0.0000)
  27 Cd     8.004009    2.788616   18.054833    ( 0.0000,  0.0000,  0.0000)
  28 Cd     4.802622    2.772795   10.000000    ( 0.0000,  0.0000,  0.0000)
  29 Cd     6.403497    3.697060   12.614217    ( 0.0000,  0.0000,  0.0000)
  30 Cd     4.800916    4.620973   15.313147    ( 0.0000,  0.0000,  0.0000)
  31 Cd     6.417017    5.537367   18.054833    ( 0.0000,  0.0000,  0.0000)
  32 Cd     3.201748    5.545591   10.000000    ( 0.0000,  0.0000,  0.0000)
  33 Cd     4.802622    6.469856   12.614217    ( 0.0000,  0.0000,  0.0000)
  34 Cd     3.201676    7.394079   15.300534    ( 0.0000,  0.0000,  0.0000)
  35 Cd     4.910863    8.380879   18.044105    ( 0.0000,  0.0000,  0.0000)
  36 O      3.202307    7.394443   19.042879    ( 0.0000,  0.0000,  0.0000)

Unit cell:
           periodic     x           y           z      points  spacing
  1. axis:    yes    9.605245    0.000000    0.000000    48     0.1733
  2. axis:    yes   -4.802622    8.318386    0.000000    48     0.1733
  3. axis:    no     0.000000    0.000000   27.842650   156     0.1785

  Lengths:   9.605245   9.605245  27.842650
  Angles:   90.000000  90.000000 120.000000

Effective grid spacing dv^(1/3) = 0.1836

     iter     time        total  log10-change:
                         energy  eigst   dens
iter:   1 21:26:31 -5458.168983  -2.75
iter:   2 21:26:59 -5458.162213  -3.76  -2.97
iter:   3 21:27:26 -5458.160784c -4.48  -3.27
iter:   4 21:27:54 -5458.159503c -4.30  -3.45
iter:   5 21:28:22 -5458.159414c -5.03  -3.71
iter:   6 21:28:49 -5458.159432c -4.98  -3.88
iter:   7 21:29:17 -5458.159444c -5.78  -4.03c
iter:   8 21:29:45 -5458.159431c -6.44  -4.18c
iter:   9 21:30:13 -5458.159439c -6.16  -4.26c
iter:  10 21:30:40 -5458.159437c -6.70  -4.45c
iter:  11 21:31:08 -5458.159442c -7.04  -4.55c
iter:  12 21:31:36 -5458.159443c -7.48c -4.66c

Converged after 12 iterations.

Dipole moment: (-10.051583, -15.802926, -0.228865) |e|*Ang

Energy contributions relative to reference atoms: (reference = -5480273.112413)

Kinetic:       +1042.646975
Potential:     -940.264525
External:        +0.000000
XC:            -5563.854702
Entropy (-ST):   -0.478012
Local:           +3.551815
--------------------------
Free energy:   -5458.398449
Extrapolated:  -5458.159443

Showing only first 2 kpts
 Kpt  Band  Eigenvalues  Occupancy
  0   217     -4.64996    1.86891
  0   218     -4.32314    0.70369
  0   219     -4.21497    0.31084
  0   220     -4.14170    0.16252

  1   217     -4.40411    1.09904
  1   218     -4.32658    0.71945
  1   219     -3.79466    0.00549
  1   220     -3.72809    0.00282


Fermi level: -4.38424

No gap

Forces in eV/Ang:
  0 Cd   -0.01172   -0.00676   -0.22258
  1 Cd   -0.00925   -0.00534    0.25519
  2 Cd   -0.00065    0.00053   -0.01284
  3 Cd   -0.00264   -0.00016    0.00565
  4 Cd   -0.01922   -0.00858   -0.23685
  5 Cd   -0.00981    0.00559    0.22475
  6 Cd    0.00171    0.00099   -0.05271
  7 Cd   -0.04781   -0.02760   -0.04137
  8 Cd   -0.01704   -0.01235   -0.23685
  9 Cd   -0.00007   -0.01129    0.22475
 10 Cd    0.00013   -0.00083   -0.01284
 11 Cd   -0.00147   -0.00221    0.00565
 12 Cd    0.01111   -0.00456   -0.22543
 13 Cd    0.01236    0.00267    0.25012
 14 Cd    0.00371    0.00214   -0.03037
 15 Cd    0.00318    0.00183    0.01148
 16 Cd    0.00161    0.01190   -0.22543
 17 Cd    0.00850    0.00937    0.25012
 18 Cd    0.00001    0.00134   -0.01315
 19 Cd   -0.00328   -0.05790    0.26108
 20 Cd    0.00305    0.00176   -0.22247
 21 Cd   -0.01498   -0.00865    0.21099
 22 Cd    0.00116   -0.00066   -0.01315
 23 Cd   -0.05178    0.02611    0.26108
 24 Cd   -0.00115    0.01480   -0.22741
 25 Cd   -0.00429    0.02167    0.20976
 26 Cd    0.00013    0.00112   -0.01010
 27 Cd   -0.00120    0.05634   -0.03139
 28 Cd    0.01900    0.01097   -0.23559
 29 Cd   -0.00252   -0.00146    0.21334
 30 Cd    0.00103   -0.00045   -0.01010
 31 Cd    0.04819   -0.02921   -0.03139
 32 Cd    0.01224   -0.00839   -0.22741
 33 Cd    0.01662   -0.01455    0.20976
 34 Cd   -0.00056   -0.00032    0.00597
 35 Cd    0.05462    0.03154    0.25179
 36 O     0.00376    0.00217   -0.58860

BFGS:    4 21:31:47    -5458.159443        0.5886
System changes: positions 

Initializing position-dependent things.

Density initialized from wave functions
                                                 
                                                 
                                                 
                                                 
                            O                    
                Cd      Cd      Cd               
                                                 
                  Cd      Cd      Cd             
                                                 
            Cd      CCd     Cd      Cd           
                                                 
              Cd      Cd      Cd                 
                                                 
               CCd     CCd     CCd               
                                                 
                 Cd      Cd      Cd              
                   Cd      Cd      Cd            
           Cd      Cd     Cd                     
             Cd      Cd     Cd                   
                                                 
               Cd      Cd      Cd                
                                                 
                                                 
                                                 
                                                 

Positions:
   0 Cd     0.000000    0.000000   10.000000    ( 0.0000,  0.0000,  0.0000)
   1 Cd     1.600874    0.924265   12.614217    ( 0.0000,  0.0000,  0.0000)
   2 Cd     0.001128    1.846665   15.311594    ( 0.0000,  0.0000,  0.0000)
   3 Cd     1.601785    2.771859   18.061322    ( 0.0000,  0.0000,  0.0000)
   4 Cd    -1.600874    2.772795   10.000000    ( 0.0000,  0.0000,  0.0000)
   5 Cd    -0.000000    3.697060   12.614217    ( 0.0000,  0.0000,  0.0000)
   6 Cd    -1.600360    4.621623   15.302002    ( 0.0000,  0.0000,  0.0000)
   7 Cd    -0.021866    5.532967   18.048124    ( 0.0000,  0.0000,  0.0000)
   8 Cd    -3.201748    5.545591   10.000000    ( 0.0000,  0.0000,  0.0000)
   9 Cd    -1.600874    6.469856   12.614217    ( 0.0000,  0.0000,  0.0000)
  10 Cd    -3.202800    7.396031   15.311594    ( 0.0000,  0.0000,  0.0000)
  11 Cd    -1.601229    8.319643   18.061322    ( 0.0000,  0.0000,  0.0000)
  12 Cd     3.201748    0.000000   10.000000    ( 0.0000,  0.0000,  0.0000)
  13 Cd     4.802622    0.924265   12.614217    ( 0.0000,  0.0000,  0.0000)
  14 Cd     3.202871    1.849179   15.304972    ( 0.0000,  0.0000,  0.0000)
  15 Cd     4.802004    2.772438   18.062961    ( 0.0000,  0.0000,  0.0000)
  16 Cd     1.600874    2.772795   10.000000    ( 0.0000,  0.0000,  0.0000)
  17 Cd     3.201748    3.697060   12.614217    ( 0.0000,  0.0000,  0.0000)
  18 Cd     1.603273    4.621532   15.311676    ( 0.0000,  0.0000,  0.0000)
  19 Cd     3.200781    5.380396   18.063209    ( 0.0000,  0.0000,  0.0000)
  20 Cd     0.000000    5.545591   10.000000    ( 0.0000,  0.0000,  0.0000)
  21 Cd     1.600874    6.469856   12.614217    ( 0.0000,  0.0000,  0.0000)
  22 Cd     0.001379    7.396095   15.311676    ( 0.0000,  0.0000,  0.0000)
  23 Cd     1.457327    8.400146   18.063209    ( 0.0000,  0.0000,  0.0000)
  24 Cd     6.403497    0.000000   10.000000    ( 0.0000,  0.0000,  0.0000)
  25 Cd     8.004371    0.924265   12.614217    ( 0.0000,  0.0000,  0.0000)
  26 Cd     6.402031    1.846850   15.312302    ( 0.0000,  0.0000,  0.0000)
  27 Cd     8.003787    2.798463   18.050679    ( 0.0000,  0.0000,  0.0000)
  28 Cd     4.802622    2.772795   10.000000    ( 0.0000,  0.0000,  0.0000)
  29 Cd     6.403497    3.697060   12.614217    ( 0.0000,  0.0000,  0.0000)
  30 Cd     4.800435    4.620896   15.312302    ( 0.0000,  0.0000,  0.0000)
  31 Cd     6.425434    5.532251   18.050679    ( 0.0000,  0.0000,  0.0000)
  32 Cd     3.201748    5.545591   10.000000    ( 0.0000,  0.0000,  0.0000)
  33 Cd     4.802622    6.469856   12.614217    ( 0.0000,  0.0000,  0.0000)
  34 Cd     3.201611    7.394042   15.296638    ( 0.0000,  0.0000,  0.0000)
  35 Cd     4.946762    8.401605   18.060528    ( 0.0000,  0.0000,  0.0000)
  36 O      3.202779    7.394716   19.011455    ( 0.0000,  0.0000,  0.0000)

Unit cell:
           periodic     x           y           z      points  spacing
  1. axis:    yes    9.605245    0.000000    0.000000    48     0.1733
  2. axis:    yes   -4.802622    8.318386    0.000000    48     0.1733
  3. axis:    no     0.000000    0.000000   27.842650   156     0.1785

  Lengths:   9.605245   9.605245  27.842650
  Angles:   90.000000  90.000000 120.000000

Effective grid spacing dv^(1/3) = 0.1836

     iter     time        total  log10-change:
                         energy  eigst   dens
iter:   1 21:32:42 -5458.269030  -1.86
iter:   2 21:33:10 -5458.207436  -2.86  -2.52
iter:   3 21:33:38 -5458.197593c -3.60  -2.83
iter:   4 21:34:05 -5458.190487c -3.57  -3.05
iter:   5 21:34:33 -5458.189465c -3.97  -3.22
iter:   6 21:35:01 -5458.189754c -4.26  -3.48
iter:   7 21:35:28 -5458.189590c -4.82  -3.54
iter:   8 21:35:56 -5458.189591c -5.41  -3.79
iter:   9 21:36:23 -5458.189637c -5.35  -3.86
iter:  10 21:36:51 -5458.189639c -5.71  -4.01c
iter:  11 21:37:19 -5458.189645c -6.16  -4.12c
iter:  12 21:37:46 -5458.189640c -6.54  -4.24c
iter:  13 21:38:14 -5458.189625c -6.44  -4.32c
iter:  14 21:38:41 -5458.189627c -6.66  -4.52c
iter:  15 21:39:09 -5458.189628c -7.27  -4.69c
iter:  16 21:39:37 -5458.189630c -7.46c -4.81c

Converged after 16 iterations.

Dipole moment: (-11.155672, -17.598908, -0.216990) |e|*Ang

Energy contributions relative to reference atoms: (reference = -5480273.112413)

Kinetic:       +1041.486328
Potential:     -939.290252
External:        +0.000000
XC:            -5563.707561
Entropy (-ST):   -0.475713
Local:           +3.559711
--------------------------
Free energy:   -5458.427486
Extrapolated:  -5458.189630

Showing only first 2 kpts
 Kpt  Band  Eigenvalues  Occupancy
  0   217     -4.64032    1.86695
  0   218     -4.31745    0.71452
  0   219     -4.20261    0.29971
  0   220     -4.13755    0.16844

  1   217     -4.39233    1.08055
  1   218     -4.30731    0.66866
  1   219     -3.78414    0.00535
  1   220     -3.71374    0.00265


Fermi level: -4.37618

No gap

Forces in eV/Ang:
  0 Cd   -0.01007   -0.00582   -0.22423
  1 Cd   -0.00877   -0.00506    0.25278
  2 Cd   -0.00373    0.00070   -0.01109
  3 Cd   -0.00408    0.00146    0.01150
  4 Cd   -0.02005   -0.00562   -0.23741
  5 Cd   -0.00858    0.00501    0.22518
  6 Cd    0.00140    0.00081   -0.04540
  7 Cd   -0.01111   -0.00641   -0.03213
  8 Cd   -0.01489   -0.01455   -0.23741
  9 Cd    0.00004   -0.00994    0.22518
 10 Cd   -0.00125   -0.00358   -0.01109
 11 Cd   -0.00077   -0.00426    0.01150
 12 Cd    0.01138   -0.00343   -0.22484
 13 Cd    0.01268    0.00297    0.24776
 14 Cd    0.00282    0.00163   -0.01389
 15 Cd    0.00396    0.00229    0.01740
 16 Cd    0.00272    0.01158   -0.22484
 17 Cd    0.00891    0.00950    0.24776
 18 Cd   -0.00196    0.00407   -0.01187
 19 Cd   -0.00219    0.14911    0.28342
 20 Cd    0.00057    0.00033   -0.22286
 21 Cd   -0.01587   -0.00916    0.20951
 22 Cd    0.00254   -0.00374   -0.01187
 23 Cd    0.12804   -0.07645    0.28342
 24 Cd   -0.00336    0.01625   -0.22890
 25 Cd   -0.00486    0.02310    0.20833
 26 Cd    0.00398    0.00090   -0.00933
 27 Cd    0.00018    0.01467   -0.02316
 28 Cd    0.01876    0.01083   -0.23462
 29 Cd   -0.00389   -0.00225    0.21322
 30 Cd    0.00277    0.00300   -0.00933
 31 Cd    0.01280   -0.00718   -0.02316
 32 Cd    0.01239   -0.01104   -0.22890
 33 Cd    0.01758   -0.01575    0.20833
 34 Cd   -0.00061   -0.00035    0.03893
 35 Cd   -0.12554   -0.07248    0.27804
 36 O     0.00747    0.00431   -0.68599

BFGS:    5 21:39:48    -5458.189630        0.6860
System changes: positions 

Initializing position-dependent things.

Density initialized from wave functions
                                                 
                                                 
                                                 
                                                 
                            O                    
                Cd      Cd      Cd               
                                                 
                  Cd      Cd      Cd             
                            Cd                   
            Cd      CCd    Cd       Cd           
                                                 
              Cd      Cd      Cd                 
                Cd              Cd               
               Cd      CCd     Cd                
                                                 
                 Cd      Cd      Cd              
                   Cd      Cd      Cd            
           Cd      Cd     Cd                     
             Cd      Cd     Cd                   
                                                 
               Cd      Cd      Cd                
                                                 
                                                 
                                                 
                                                 

Positions:
   0 Cd     0.000000    0.000000   10.000000    ( 0.0000,  0.0000,  0.0000)
   1 Cd     1.600874    0.924265   12.614217    ( 0.0000,  0.0000,  0.0000)
   2 Cd     0.001206    1.846160   15.310039    ( 0.0000,  0.0000,  0.0000)
   3 Cd     1.601640    2.771720   18.062547    ( 0.0000,  0.0000,  0.0000)
   4 Cd    -1.600874    2.772795   10.000000    ( 0.0000,  0.0000,  0.0000)
   5 Cd    -0.000000    3.697060   12.614217    ( 0.0000,  0.0000,  0.0000)
   6 Cd    -1.600085    4.621781   15.294941    ( 0.0000,  0.0000,  0.0000)
   7 Cd    -0.031221    5.527565   18.041597    ( 0.0000,  0.0000,  0.0000)
   8 Cd    -3.201748    5.545591   10.000000    ( 0.0000,  0.0000,  0.0000)
   9 Cd    -1.600874    6.469856   12.614217    ( 0.0000,  0.0000,  0.0000)
  10 Cd    -3.203198    7.396350   15.310039    ( 0.0000,  0.0000,  0.0000)
  11 Cd    -1.601422    8.319587   18.062547    ( 0.0000,  0.0000,  0.0000)
  12 Cd     3.201748    0.000000   10.000000    ( 0.0000,  0.0000,  0.0000)
  13 Cd     4.802622    0.924265   12.614217    ( 0.0000,  0.0000,  0.0000)
  14 Cd     3.203466    1.849522   15.300396    ( 0.0000,  0.0000,  0.0000)
  15 Cd     4.802260    2.772586   18.065154    ( 0.0000,  0.0000,  0.0000)
  16 Cd     1.600874    2.772795   10.000000    ( 0.0000,  0.0000,  0.0000)
  17 Cd     3.201748    3.697060   12.614217    ( 0.0000,  0.0000,  0.0000)
  18 Cd     1.603862    4.621878   15.310118    ( 0.0000,  0.0000,  0.0000)
  19 Cd     3.200251    5.341863   18.089667    ( 0.0000,  0.0000,  0.0000)
  20 Cd     0.000000    5.545591   10.000000    ( 0.0000,  0.0000,  0.0000)
  21 Cd     1.600874    6.469856   12.614217    ( 0.0000,  0.0000,  0.0000)
  22 Cd     0.001972    7.396432   15.310118    ( 0.0000,  0.0000,  0.0000)
  23 Cd     1.423692    8.418953   18.089667    ( 0.0000,  0.0000,  0.0000)
  24 Cd     6.403497    0.000000   10.000000    ( 0.0000,  0.0000,  0.0000)
  25 Cd     8.004371    0.924265   12.614217    ( 0.0000,  0.0000,  0.0000)
  26 Cd     6.401834    1.846435   15.311123    ( 0.0000,  0.0000,  0.0000)
  27 Cd     8.003549    2.809479   18.045665    ( 0.0000,  0.0000,  0.0000)
  28 Cd     4.802622    2.772795   10.000000    ( 0.0000,  0.0000,  0.0000)
  29 Cd     6.403497    3.697060   12.614217    ( 0.0000,  0.0000,  0.0000)
  30 Cd     4.799976    4.620934   15.311123    ( 0.0000,  0.0000,  0.0000)
  31 Cd     6.434855    5.526537   18.045665    ( 0.0000,  0.0000,  0.0000)
  32 Cd     3.201748    5.545591   10.000000    ( 0.0000,  0.0000,  0.0000)
  33 Cd     4.802622    6.469856   12.614217    ( 0.0000,  0.0000,  0.0000)
  34 Cd     3.201527    7.393993   15.293268    ( 0.0000,  0.0000,  0.0000)
  35 Cd     4.980760    8.421234   18.085545    ( 0.0000,  0.0000,  0.0000)
  36 O      3.203473    7.395117   18.959717    ( 0.0000,  0.0000,  0.0000)

Unit cell:
           periodic     x           y           z      points  spacing
  1. axis:    yes    9.605245    0.000000    0.000000    48     0.1733
  2. axis:    yes   -4.802622    8.318386    0.000000    48     0.1733
  3. axis:    no     0.000000    0.000000   27.842650   156     0.1785

  Lengths:   9.605245   9.605245  27.842650
  Angles:   90.000000  90.000000 120.000000

Effective grid spacing dv^(1/3) = 0.1836

     iter     time        total  log10-change:
                         energy  eigst   dens
iter:   1 21:40:43 -5458.312123  -1.75
iter:   2 21:41:11 -5458.236368  -2.75  -2.49
iter:   3 21:41:38 -5458.225121c -3.49  -2.80
iter:   4 21:42:06 -5458.219646c -3.57  -3.04
iter:   5 21:42:33 -5458.218205c -3.84  -3.15
iter:   6 21:43:01 -5458.218496c -4.30  -3.41
iter:   7 21:43:29 -5458.218089c -4.47  -3.43
iter:   8 21:43:56 -5458.218172c -5.05  -3.77
iter:   9 21:44:24 -5458.218084c -5.50  -3.80
iter:  10 21:44:51 -5458.218053c -5.53  -4.03c
iter:  11 21:45:19 -5458.218069c -5.97  -4.14c
iter:  12 21:45:47 -5458.218069c -6.57  -4.20c
iter:  13 21:46:14 -5458.218096c -6.16  -4.31c
iter:  14 21:46:42 -5458.218095c -7.00  -4.55c
iter:  15 21:47:09 -5458.218085c -7.05  -4.61c
iter:  16 21:47:37 -5458.218091c -7.04  -4.83c
iter:  17 21:48:05 -5458.218089c -7.73c -5.02c

Converged after 17 iterations.

Dipole moment: (-12.031294, -19.185834, -0.191562) |e|*Ang

Energy contributions relative to reference atoms: (reference = -5480273.112413)

Kinetic:       +1041.147396
Potential:     -939.008177
External:        +0.000000
XC:            -5563.684061
Entropy (-ST):   -0.473273
Local:           +3.563390
--------------------------
Free energy:   -5458.454725
Extrapolated:  -5458.218089

Showing only first 2 kpts
 Kpt  Band  Eigenvalues  Occupancy
  0   217     -4.62170    1.86548
  0   218     -4.30240    0.72553
  0   219     -4.18263    0.29329
  0   220     -4.12421    0.17488

  1   217     -4.37034    1.05790
  1   218     -4.27939    0.62283
  1   219     -3.76208    0.00511
  1   220     -3.68914    0.00247


Fermi level: -4.35874

No gap

Forces in eV/Ang:
  0 Cd   -0.00994   -0.00574   -0.22566
  1 Cd   -0.00672   -0.00388    0.24762
  2 Cd   -0.00623   -0.00331   -0.00074
  3 Cd   -0.01124    0.00649    0.00785
  4 Cd   -0.02131   -0.00301   -0.23704
  5 Cd   -0.00758    0.00444    0.22339
  6 Cd    0.00128    0.00074   -0.03884
  7 Cd    0.03916    0.02261   -0.01080
  8 Cd   -0.01326   -0.01695   -0.23704
  9 Cd    0.00005   -0.00878    0.22339
 10 Cd   -0.00598   -0.00374   -0.00074
 11 Cd    0.00000   -0.01298    0.00785
 12 Cd    0.01168   -0.00251   -0.22469
 13 Cd    0.01177    0.00389    0.24249
 14 Cd    0.00224    0.00129    0.00567
 15 Cd    0.01037    0.00599    0.01262
 16 Cd    0.00367    0.01137   -0.22469
 17 Cd    0.00926    0.00825    0.24249
 18 Cd    0.00021    0.00812   -0.00209
 19 Cd   -0.00245    0.31106    0.23580
 20 Cd   -0.00162   -0.00094   -0.22242
 21 Cd   -0.01842   -0.01064    0.20039
 22 Cd    0.00714   -0.00388   -0.00209
 23 Cd    0.26816   -0.15765    0.23580
 24 Cd   -0.00414    0.01697   -0.22987
 25 Cd   -0.00557    0.02653    0.19918
 26 Cd    0.00725   -0.00338    0.00013
 27 Cd    0.00180   -0.04024   -0.00565
 28 Cd    0.01911    0.01103   -0.23394
 29 Cd   -0.00504   -0.00291    0.21034
 30 Cd    0.00070    0.00797    0.00013
 31 Cd   -0.03395    0.02168   -0.00565
 32 Cd    0.01263   -0.01207   -0.22987
 33 Cd    0.02019   -0.01809    0.19918
 34 Cd   -0.00062   -0.00036    0.07947
 35 Cd   -0.26396   -0.15239    0.23170
 36 O     0.00361    0.00208   -0.72057

BFGS:    6 21:48:16    -5458.218089        0.7206
System changes: positions 

Initializing position-dependent things.

Density initialized from wave functions
                                                 
                                                 
                                                 
                                                 
                            O                    
                Cd      Cd       Cd              
                                                 
                  Cd      Cd      Cd             
                     Cd     Cd      Cd           
            Cd      Cd     Cd                    
                                                 
              Cd      Cd      Cd                 
                Cd      Cd      Cd               
               Cd      Cd      Cd                
                                                 
                 Cd      Cd      Cd              
                   Cd      Cd      Cd            
           Cd      Cd     Cd                     
             Cd      Cd     Cd                   
                                                 
               Cd      Cd      Cd                
                                                 
                                                 
                                                 
                                                 

Positions:
   0 Cd     0.000000    0.000000   10.000000    ( 0.0000,  0.0000,  0.0000)
   1 Cd     1.600874    0.924265   12.614217    ( 0.0000,  0.0000,  0.0000)
   2 Cd     0.001078    1.845565   15.308308    ( 0.0000,  0.0000,  0.0000)
   3 Cd     1.601119    2.771790   18.064082    ( 0.0000,  0.0000,  0.0000)
   4 Cd    -1.600874    2.772795   10.000000    ( 0.0000,  0.0000,  0.0000)
   5 Cd    -0.000000    3.697060   12.614217    ( 0.0000,  0.0000,  0.0000)
   6 Cd    -1.599770    4.621963   15.286681    ( 0.0000,  0.0000,  0.0000)
   7 Cd    -0.040115    5.522431   18.034538    ( 0.0000,  0.0000,  0.0000)
   8 Cd    -3.201748    5.545591   10.000000    ( 0.0000,  0.0000,  0.0000)
   9 Cd    -1.600874    6.469856   12.614217    ( 0.0000,  0.0000,  0.0000)
  10 Cd    -3.203777    7.396537   15.308308    ( 0.0000,  0.0000,  0.0000)
  11 Cd    -1.601622    8.319101   18.064082    ( 0.0000,  0.0000,  0.0000)
  12 Cd     3.201748    0.000000   10.000000    ( 0.0000,  0.0000,  0.0000)
  13 Cd     4.802622    0.924265   12.614217    ( 0.0000,  0.0000,  0.0000)
  14 Cd     3.204140    1.849911   15.295582    ( 0.0000,  0.0000,  0.0000)
  15 Cd     4.802878    2.772943   18.067818    ( 0.0000,  0.0000,  0.0000)
  16 Cd     1.600874    2.772795   10.000000    ( 0.0000,  0.0000,  0.0000)
  17 Cd     3.201748    3.697060   12.614217    ( 0.0000,  0.0000,  0.0000)
  18 Cd     1.604440    4.622479   15.308355    ( 0.0000,  0.0000,  0.0000)
  19 Cd     3.199628    5.313763   18.125132    ( 0.0000,  0.0000,  0.0000)
  20 Cd     0.000000    5.545591   10.000000    ( 0.0000,  0.0000,  0.0000)
  21 Cd     1.600874    6.469856   12.614217    ( 0.0000,  0.0000,  0.0000)
  22 Cd     0.002782    7.396632   15.308355    ( 0.0000,  0.0000,  0.0000)
  23 Cd     1.399045    8.432464   18.125132    ( 0.0000,  0.0000,  0.0000)
  24 Cd     6.403497    0.000000   10.000000    ( 0.0000,  0.0000,  0.0000)
  25 Cd     8.004371    0.924265   12.614217    ( 0.0000,  0.0000,  0.0000)
  26 Cd     6.401862    1.845930   15.309797    ( 0.0000,  0.0000,  0.0000)
  27 Cd     8.003338    2.820080   18.040302    ( 0.0000,  0.0000,  0.0000)
  28 Cd     4.802622    2.772795   10.000000    ( 0.0000,  0.0000,  0.0000)
  29 Cd     6.403497    3.697060   12.614217    ( 0.0000,  0.0000,  0.0000)
  30 Cd     4.799553    4.621211   15.309797    ( 0.0000,  0.0000,  0.0000)
  31 Cd     6.443930    5.521054   18.040302    ( 0.0000,  0.0000,  0.0000)
  32 Cd     3.201748    5.545591   10.000000    ( 0.0000,  0.0000,  0.0000)
  33 Cd     4.802622    6.469856   12.614217    ( 0.0000,  0.0000,  0.0000)
  34 Cd     3.201427    7.393935   15.291758    ( 0.0000,  0.0000,  0.0000)
  35 Cd     5.005877    8.435735   18.119384    ( 0.0000,  0.0000,  0.0000)
  36 O      3.204250    7.395565   18.882854    ( 0.0000,  0.0000,  0.0000)

Unit cell:
           periodic     x           y           z      points  spacing
  1. axis:    yes    9.605245    0.000000    0.000000    48     0.1733
  2. axis:    yes   -4.802622    8.318386    0.000000    48     0.1733
  3. axis:    no     0.000000    0.000000   27.842650   156     0.1785

  Lengths:   9.605245   9.605245  27.842650
  Angles:   90.000000  90.000000 120.000000

Effective grid spacing dv^(1/3) = 0.1836

     iter     time        total  log10-change:
                         energy  eigst   dens
iter:   1 21:49:11 -5458.343713  -1.63
iter:   2 21:49:39 -5458.277681  -2.68  -2.54
iter:   3 21:50:07 -5458.265314c -3.35  -2.79
iter:   4 21:50:35 -5458.259890c -3.48  -2.99
iter:   5 21:51:02 -5458.257703c -3.95  -3.10
iter:   6 21:51:30 -5458.257515c -4.10  -3.28
iter:   7 21:51:57 -5458.256994c -4.43  -3.38
iter:   8 21:52:25 -5458.256979c -4.88  -3.70
iter:   9 21:52:53 -5458.256858c -5.42  -3.76
iter:  10 21:53:20 -5458.256872c -5.40  -3.93
iter:  11 21:53:48 -5458.256906c -5.88  -4.02c
iter:  12 21:54:15 -5458.256900c -6.08  -4.08c
iter:  13 21:54:43 -5458.256899c -6.25  -4.17c
iter:  14 21:55:10 -5458.256897c -6.83  -4.26c
iter:  15 21:55:38 -5458.256896c -6.50  -4.31c
iter:  16 21:56:06 -5458.256898c -6.81  -4.63c
iter:  17 21:56:33 -5458.256900c -7.48c -4.91c

Converged after 17 iterations.

Dipole moment: (-12.642845, -20.246386, -0.148780) |e|*Ang

Energy contributions relative to reference atoms: (reference = -5480273.112413)

Kinetic:       +1041.723266
Potential:     -939.493036
External:        +0.000000
XC:            -5563.813621
Entropy (-ST):   -0.470958
Local:           +3.561970
--------------------------
Free energy:   -5458.492379
Extrapolated:  -5458.256900

Showing only first 2 kpts
 Kpt  Band  Eigenvalues  Occupancy
  0   217     -4.59229    1.86594
  0   218     -4.27425    0.73303
  0   219     -4.15251    0.29242
  0   220     -4.09870    0.18179

  1   217     -4.33536    1.03191
  1   218     -4.24217    0.59132
  1   219     -3.72552    0.00478
  1   220     -3.65219    0.00230


Fermi level: -4.32897

No gap

Forces in eV/Ang:
  0 Cd   -0.00765   -0.00442   -0.22679
  1 Cd   -0.00476   -0.00275    0.24326
  2 Cd   -0.00650   -0.00592    0.01145
  3 Cd   -0.00992    0.00712    0.00380
  4 Cd   -0.02229    0.00176   -0.23753
  5 Cd   -0.00560    0.00335    0.22311
  6 Cd    0.00137    0.00079   -0.03363
  7 Cd    0.06440    0.03718    0.00872
  8 Cd   -0.00962   -0.02019   -0.23753
  9 Cd    0.00010   -0.00653    0.22311
 10 Cd   -0.00838   -0.00267    0.01145
 11 Cd    0.00121   -0.01215    0.00380
 12 Cd    0.01192   -0.00008   -0.22516
 13 Cd    0.01106    0.00471    0.23813
 14 Cd    0.00265    0.00153    0.03210
 15 Cd    0.00875    0.00505    0.00775
 16 Cd    0.00589    0.01036   -0.22516
 17 Cd    0.00961    0.00722    0.23813
 18 Cd    0.00231    0.00944    0.00941
 19 Cd   -0.00665    0.29767    0.21956
 20 Cd   -0.00560   -0.00323   -0.22268
 21 Cd   -0.01923   -0.01110    0.19425
 22 Cd    0.00933   -0.00272    0.00941
 23 Cd    0.25446   -0.15459    0.21956
 24 Cd   -0.00707    0.01861   -0.23035
 25 Cd   -0.00629    0.02796    0.19312
 26 Cd    0.00833   -0.00616    0.01143
 27 Cd    0.00280   -0.06683    0.01182
 28 Cd    0.01777    0.01026   -0.23393
 29 Cd   -0.00699   -0.00404    0.20945
 30 Cd   -0.00117    0.01029    0.01143
 31 Cd   -0.05647    0.03584    0.01182
 32 Cd    0.01258   -0.01543   -0.23035
 33 Cd    0.02107   -0.01943    0.19312
 34 Cd   -0.00058   -0.00033    0.10614
 35 Cd   -0.25109   -0.14497    0.20334
 36 O    -0.00013   -0.00008   -0.41711

BFGS:    7 21:56:45    -5458.256900        0.4171
System changes: positions 

Initializing position-dependent things.

Density initialized from wave functions
                                                 
                                                 
                                                 
                                                 
                            O                    
                Cd      Cd       Cd              
                                                 
                  Cd      Cd      Cd             
                     Cd     Cd      Cd           
            Cd      Cd     Cd                    
                                                 
              Cd      Cd      Cd                 
                Cd      Cd      Cd               
               Cd      Cd      Cd                
                                                 
                 Cd      Cd      Cd              
                   Cd      Cd      Cd            
           Cd      Cd     Cd                     
             Cd      Cd     Cd                   
                                                 
               Cd      Cd      Cd                
                                                 
                                                 
                                                 
                                                 

Positions:
   0 Cd     0.000000    0.000000   10.000000    ( 0.0000,  0.0000,  0.0000)
   1 Cd     1.600874    0.924265   12.614217    ( 0.0000,  0.0000,  0.0000)
   2 Cd     0.000745    1.844985   15.307051    ( 0.0000,  0.0000,  0.0000)
   3 Cd     1.600391    2.772061   18.065536    ( 0.0000,  0.0000,  0.0000)
   4 Cd    -1.600874    2.772795   10.000000    ( 0.0000,  0.0000,  0.0000)
   5 Cd    -0.000000    3.697060   12.614217    ( 0.0000,  0.0000,  0.0000)
   6 Cd    -1.599479    4.622131   15.279069    ( 0.0000,  0.0000,  0.0000)
   7 Cd    -0.045829    5.519132   18.028955    ( 0.0000,  0.0000,  0.0000)
   8 Cd    -3.201748    5.545591   10.000000    ( 0.0000,  0.0000,  0.0000)
   9 Cd    -1.600874    6.469856   12.614217    ( 0.0000,  0.0000,  0.0000)
  10 Cd    -3.204446    7.396538   15.307051    ( 0.0000,  0.0000,  0.0000)
  11 Cd    -1.601752    8.318335   18.065536    ( 0.0000,  0.0000,  0.0000)
  12 Cd     3.201748    0.000000   10.000000    ( 0.0000,  0.0000,  0.0000)
  13 Cd     4.802622    0.924265   12.614217    ( 0.0000,  0.0000,  0.0000)
  14 Cd     3.204757    1.850267   15.292330    ( 0.0000,  0.0000,  0.0000)
  15 Cd     4.803657    2.773392   18.070304    ( 0.0000,  0.0000,  0.0000)
  16 Cd     1.600874    2.772795   10.000000    ( 0.0000,  0.0000,  0.0000)
  17 Cd     3.201748    3.697060   12.614217    ( 0.0000,  0.0000,  0.0000)
  18 Cd     1.604888    4.623237   15.307023    ( 0.0000,  0.0000,  0.0000)
  19 Cd     3.198932    5.303833   18.162854    ( 0.0000,  0.0000,  0.0000)
  20 Cd     0.000000    5.545591   10.000000    ( 0.0000,  0.0000,  0.0000)
  21 Cd     1.600874    6.469856   12.614217    ( 0.0000,  0.0000,  0.0000)
  22 Cd     0.003663    7.396641   15.307023    ( 0.0000,  0.0000,  0.0000)
  23 Cd     1.390098    8.436826   18.162854    ( 0.0000,  0.0000,  0.0000)
  24 Cd     6.403497    0.000000   10.000000    ( 0.0000,  0.0000,  0.0000)
  25 Cd     8.004371    0.924265   12.614217    ( 0.0000,  0.0000,  0.0000)
  26 Cd     6.402163    1.845417   15.308864    ( 0.0000,  0.0000,  0.0000)
  27 Cd     8.003231    2.827118   18.036198    ( 0.0000,  0.0000,  0.0000)
  28 Cd     4.802622    2.772795   10.000000    ( 0.0000,  0.0000,  0.0000)
  29 Cd     6.403497    3.697060   12.614217    ( 0.0000,  0.0000,  0.0000)
  30 Cd     4.799259    4.621727   15.308864    ( 0.0000,  0.0000,  0.0000)
  31 Cd     6.449972    5.517443   18.036198    ( 0.0000,  0.0000,  0.0000)
  32 Cd     3.201748    5.545591   10.000000    ( 0.0000,  0.0000,  0.0000)
  33 Cd     4.802622    6.469856   12.614217    ( 0.0000,  0.0000,  0.0000)
  34 Cd     3.201331    7.393880   15.293469    ( 0.0000,  0.0000,  0.0000)
  35 Cd     5.015269    8.441158   18.155306    ( 0.0000,  0.0000,  0.0000)
  36 O      3.204886    7.395932   18.803284    ( 0.0000,  0.0000,  0.0000)

Unit cell:
           periodic     x           y           z      points  spacing
  1. axis:    yes    9.605245    0.000000    0.000000    48     0.1733
  2. axis:    yes   -4.802622    8.318386    0.000000    48     0.1733
  3. axis:    no     0.000000    0.000000   27.842650   156     0.1785

  Lengths:   9.605245   9.605245  27.842650
  Angles:   90.000000  90.000000 120.000000

Effective grid spacing dv^(1/3) = 0.1836

     iter     time        total  log10-change:
                         energy  eigst   dens
iter:   1 21:57:40 -5458.343959  -1.70
iter:   2 21:58:07 -5458.319047  -2.81  -2.76
iter:   3 21:58:35 -5458.305563c -3.24  -2.89
iter:   4 21:59:02 -5458.301954c -3.55  -3.02
iter:   5 21:59:30 -5458.299897c -4.13  -3.16
iter:   6 21:59:58 -5458.299036c -3.96  -3.27
iter:   7 22:00:25 -5458.298612c -4.54  -3.42
iter:   8 22:00:53 -5458.298566c -5.03  -3.69
iter:   9 22:01:20 -5458.298589c -5.07  -3.77
iter:  10 22:01:48 -5458.298624c -5.34  -4.01c
iter:  11 22:02:16 -5458.298600c -5.67  -4.00c
iter:  12 22:02:43 -5458.298594c -6.19  -4.23c
iter:  13 22:03:11 -5458.298589c -6.80  -4.34c
iter:  14 22:03:38 -5458.298582c -7.09  -4.42c
iter:  15 22:04:06 -5458.298582c -6.81  -4.52c
iter:  16 22:04:33 -5458.298579c -7.10  -4.67c
iter:  17 22:05:01 -5458.298581c -7.41c -4.81c

Converged after 17 iterations.

Dipole moment: (-13.003626, -20.557342, -0.100896) |e|*Ang

Energy contributions relative to reference atoms: (reference = -5480273.112413)

Kinetic:       +1042.902092
Potential:     -940.499824
External:        +0.000000
XC:            -5564.027322
Entropy (-ST):   -0.469300
Local:           +3.561123
--------------------------
Free energy:   -5458.533231
Extrapolated:  -5458.298581

Showing only first 2 kpts
 Kpt  Band  Eigenvalues  Occupancy
  0   217     -4.56048    1.86814
  0   218     -4.24072    0.73328
  0   219     -4.11966    0.29426
  0   220     -4.06919    0.18863

  1   217     -4.29701    1.00810
  1   218     -4.20481    0.57571
  1   219     -3.68477    0.00445
  1   220     -3.61334    0.00218


Fermi level: -4.29539

No gap

Forces in eV/Ang:
  0 Cd   -0.00711   -0.00410   -0.22688
  1 Cd   -0.00353   -0.00204    0.24078
  2 Cd   -0.00563   -0.00982    0.02365
  3 Cd   -0.00523    0.00543   -0.00296
  4 Cd   -0.02303    0.00446   -0.23728
  5 Cd   -0.00356    0.00214    0.22400
  6 Cd    0.00173    0.00100   -0.03163
  7 Cd    0.07200    0.04157    0.01368
  8 Cd   -0.00765   -0.02218   -0.23728
  9 Cd    0.00007   -0.00415    0.22400
 10 Cd   -0.01132    0.00003    0.02365
 11 Cd    0.00209   -0.00725   -0.00296
 12 Cd    0.01204    0.00240   -0.22526
 13 Cd    0.01091    0.00529    0.23567
 14 Cd    0.00320    0.00185    0.05413
 15 Cd    0.00453    0.00262    0.00069
 16 Cd    0.00810    0.00922   -0.22526
 17 Cd    0.01003    0.00681    0.23567
 18 Cd    0.00648    0.01018    0.02117
 19 Cd   -0.00248    0.15989    0.11604
 20 Cd   -0.00795   -0.00459   -0.22219
 21 Cd   -0.01766   -0.01019    0.18995
 22 Cd    0.01206    0.00052    0.02117
 23 Cd    0.13723   -0.08209    0.11604
 24 Cd   -0.00799    0.01914   -0.22973
 25 Cd   -0.00691    0.02663    0.18892
 26 Cd    0.00775   -0.00986    0.02301
 27 Cd    0.00305   -0.07760    0.01826
 28 Cd    0.01615    0.00932   -0.23371
 29 Cd   -0.00910   -0.00526    0.21008
 30 Cd   -0.00466    0.01164    0.02301
 31 Cd   -0.06568    0.04144    0.01826
 32 Cd    0.01258   -0.01649   -0.22973
 33 Cd    0.01961   -0.01930    0.18892
 34 Cd   -0.00033   -0.00019    0.11374
 35 Cd   -0.13776   -0.07953    0.12585
 36 O     0.00490    0.00283   -0.25232

BFGS:    8 22:05:12    -5458.298581        0.2524
System changes: positions 

Initializing position-dependent things.

Density initialized from wave functions
                                                 
                                                 
                                                 
                                                 
                        Cd  O    Cd              
                Cd                               
                          Cd                     
                  Cd              Cd             
                     Cd     Cd      Cd           
            Cd      Cd     Cd                    
                                                 
              Cd      Cd      Cd                 
                Cd      Cd      Cd               
               Cd      Cd      Cd                
                                                 
                 Cd      Cd      Cd              
                   Cd      Cd      Cd            
           Cd      Cd     Cd                     
             Cd      Cd     Cd                   
                                                 
               Cd      Cd      Cd                
                                                 
                                                 
                                                 
                                                 

Positions:
   0 Cd     0.000000    0.000000   10.000000    ( 0.0000,  0.0000,  0.0000)
   1 Cd     1.600874    0.924265   12.614217    ( 0.0000,  0.0000,  0.0000)
   2 Cd     0.000231    1.843997   15.305949    ( 0.0000,  0.0000,  0.0000)
   3 Cd     1.599428    2.772472   18.067308    ( 0.0000,  0.0000,  0.0000)
   4 Cd    -1.600874    2.772795   10.000000    ( 0.0000,  0.0000,  0.0000)
   5 Cd    -0.000000    3.697060   12.614217    ( 0.0000,  0.0000,  0.0000)
   6 Cd    -1.599060    4.622373   15.268503    ( 0.0000,  0.0000,  0.0000)
   7 Cd    -0.052229    5.515436   18.021813    ( 0.0000,  0.0000,  0.0000)
   8 Cd    -3.201748    5.545591   10.000000    ( 0.0000,  0.0000,  0.0000)
   9 Cd    -1.600874    6.469856   12.614217    ( 0.0000,  0.0000,  0.0000)
  10 Cd    -3.205559    7.396588   15.305949    ( 0.0000,  0.0000,  0.0000)
  11 Cd    -1.601877    8.317296   18.067308    ( 0.0000,  0.0000,  0.0000)
  12 Cd     3.201748    0.000000   10.000000    ( 0.0000,  0.0000,  0.0000)
  13 Cd     4.802622    0.924265   12.614217    ( 0.0000,  0.0000,  0.0000)
  14 Cd     3.205635    1.850774   15.289203    ( 0.0000,  0.0000,  0.0000)
  15 Cd     4.804685    2.773986   18.073499    ( 0.0000,  0.0000,  0.0000)
  16 Cd     1.600874    2.772795   10.000000    ( 0.0000,  0.0000,  0.0000)
  17 Cd     3.201748    3.697060   12.614217    ( 0.0000,  0.0000,  0.0000)
  18 Cd     1.605655    4.624413   15.305774    ( 0.0000,  0.0000,  0.0000)
  19 Cd     3.198048    5.290653   18.212981    ( 0.0000,  0.0000,  0.0000)
  20 Cd     0.000000    5.545591   10.000000    ( 0.0000,  0.0000,  0.0000)
[...]
  13 Cd     4.802622    0.924265   12.614217    ( 0.0000,  0.0000,  0.0000)
  14 Cd     3.207139    1.851643   15.322196    ( 0.0000,  0.0000,  0.0000)
  15 Cd     4.815171    2.780040   18.079954    ( 0.0000,  0.0000,  0.0000)
  16 Cd     1.600874    2.772795   10.000000    ( 0.0000,  0.0000,  0.0000)
  17 Cd     3.201748    3.697060   12.614217    ( 0.0000,  0.0000,  0.0000)
  18 Cd     1.611532    4.629519   15.316684    ( 0.0000,  0.0000,  0.0000)
  19 Cd     3.193742    5.253422   18.296879    ( 0.0000,  0.0000,  0.0000)
  20 Cd     0.000000    5.545591   10.000000    ( 0.0000,  0.0000,  0.0000)
  21 Cd     1.600874    6.469856   12.614217    ( 0.0000,  0.0000,  0.0000)
  22 Cd     0.012424    7.399254   15.316684    ( 0.0000,  0.0000,  0.0000)
  23 Cd     1.343846    8.457537   18.296879    ( 0.0000,  0.0000,  0.0000)
  24 Cd     6.403497    0.000000   10.000000    ( 0.0000,  0.0000,  0.0000)
  25 Cd     8.004371    0.924265   12.614217    ( 0.0000,  0.0000,  0.0000)
  26 Cd     6.406548    1.839193   15.322475    ( 0.0000,  0.0000,  0.0000)
  27 Cd     8.004618    2.801814   18.027334    ( 0.0000,  0.0000,  0.0000)
  28 Cd     4.802622    2.772795   10.000000    ( 0.0000,  0.0000,  0.0000)
  29 Cd     6.403497    3.697060   12.614217    ( 0.0000,  0.0000,  0.0000)
  30 Cd     4.796062    4.628637   15.322475    ( 0.0000,  0.0000,  0.0000)
  31 Cd     6.428751    5.531296   18.027334    ( 0.0000,  0.0000,  0.0000)
  32 Cd     3.201748    5.545591   10.000000    ( 0.0000,  0.0000,  0.0000)
  33 Cd     4.802622    6.469856   12.614217    ( 0.0000,  0.0000,  0.0000)
  34 Cd     3.201737    7.394114   15.390884    ( 0.0000,  0.0000,  0.0000)
  35 Cd     5.063294    8.468885   18.288596    ( 0.0000,  0.0000,  0.0000)
  36 O      3.204759    7.395859   18.579857    ( 0.0000,  0.0000,  0.0000)

Unit cell:
           periodic     x           y           z      points  spacing
  1. axis:    yes    9.605245    0.000000    0.000000    48     0.1733
  2. axis:    yes   -4.802622    8.318386    0.000000    48     0.1733
  3. axis:    no     0.000000    0.000000   27.842650   156     0.1785

  Lengths:   9.605245   9.605245  27.842650
  Angles:   90.000000  90.000000 120.000000

Effective grid spacing dv^(1/3) = 0.1836

     iter     time        total  log10-change:
                         energy  eigst   dens
iter:   1 23:43:36 -5458.347406  -3.26
iter:   2 23:44:03 -5458.346702  -4.32  -3.42
iter:   3 23:44:31 -5458.346591c -5.10  -3.66
iter:   4 23:44:58 -5458.346388c -5.08  -3.74
iter:   5 23:45:25 -5458.346360c -5.73  -3.99
iter:   6 23:45:53 -5458.346344c -5.85  -4.13c
iter:   7 23:46:20 -5458.346341c -6.08  -4.22c
iter:   8 23:46:48 -5458.346350c -6.31  -4.51c
iter:   9 23:47:15 -5458.346344c -6.77  -4.59c
iter:  10 23:47:43 -5458.346348c -7.41c -4.85c

Converged after 10 iterations.

Dipole moment: (-11.721856, -21.703325, 0.016402) |e|*Ang

Energy contributions relative to reference atoms: (reference = -5480273.112413)

Kinetic:       +1043.243746
Potential:     -940.960783
External:        +0.000000
XC:            -5563.954952
Entropy (-ST):   -0.463752
Local:           +3.557518
--------------------------
Free energy:   -5458.578224
Extrapolated:  -5458.346348

Showing only first 2 kpts
 Kpt  Band  Eigenvalues  Occupancy
  0   217     -4.48263    1.87656
  0   218     -4.14555    0.68628
  0   219     -4.04055    0.30910
  0   220     -4.00121    0.21961

  1   217     -4.19514    0.92342
  1   218     -4.11304    0.54800
  1   219     -3.58442    0.00381
  1   220     -3.51669    0.00194


Fermi level: -4.21048

No gap

Forces in eV/Ang:
  0 Cd   -0.00654   -0.00378   -0.23300
  1 Cd    0.00987    0.00570    0.25673
  2 Cd   -0.00096   -0.00333   -0.00291
  3 Cd    0.00090    0.00586   -0.00633
  4 Cd   -0.02351    0.01496   -0.23726
  5 Cd    0.01845   -0.01168    0.21985
  6 Cd    0.00207    0.00120   -0.00096
  7 Cd    0.01336    0.00771    0.00050
  8 Cd    0.00120   -0.02784   -0.23726
  9 Cd   -0.00089    0.02182    0.21985
 10 Cd   -0.00336    0.00083   -0.00291
 11 Cd    0.00552   -0.00214   -0.00633
 12 Cd    0.01107    0.01401   -0.22467
 13 Cd   -0.00039    0.01481    0.25291
 14 Cd    0.00082    0.00048    0.00347
 15 Cd    0.01514    0.00874    0.01821
 16 Cd    0.01767    0.00258   -0.22467
 17 Cd    0.01263   -0.00775    0.25291
 18 Cd    0.00044    0.00415    0.00093
 19 Cd   -0.00443    0.01166    0.00414
 20 Cd   -0.01803   -0.01041   -0.22121
 21 Cd    0.00466    0.00269    0.21373
 22 Cd    0.00381   -0.00170    0.00093
 23 Cd    0.00788   -0.00967    0.00414
 24 Cd   -0.00804    0.01979   -0.23359
 25 Cd   -0.00779    0.00284    0.21455
 26 Cd   -0.00089   -0.00309   -0.00263
 27 Cd    0.00176   -0.02162    0.00269
 28 Cd    0.00681    0.00393   -0.23240
 29 Cd   -0.03191   -0.01842    0.20712
 30 Cd   -0.00312    0.00078   -0.00263
 31 Cd   -0.01784    0.01233    0.00269
 32 Cd    0.01312   -0.01686   -0.23359
 33 Cd   -0.00144   -0.00816    0.21455
 34 Cd    0.00129    0.00075    0.04140
 35 Cd   -0.04387   -0.02533    0.02273
 36 O     0.02974    0.01717    0.03705

BFGS:   22 23:47:54    -5458.346348        0.0555
System changes: positions 

Initializing position-dependent things.

Density initialized from wave functions
                                                 
                                                 
                                                 
                                                 
                Cd      Cd O     Cd              
                                                 
                  Cd      Cd      Cd             
                                                 
            Cd      CCd    CCd      Cd           
                                                 
              Cd      Cd      Cd                 
                                                 
               CCd     CCd     CCd               
                                                 
                 Cd      Cd      Cd              
                                                 
           Cd      Cd     CCd      Cd            
                                                 
             Cd      Cd     Cd                   
               Cd      Cd      Cd                
                                                 
                                                 
                                                 
                                                 

Positions:
   0 Cd     0.000000    0.000000   10.000000    ( 0.0000,  0.0000,  0.0000)
   1 Cd     1.600874    0.924265   12.614217    ( 0.0000,  0.0000,  0.0000)
   2 Cd    -0.001173    1.837250   15.318621    ( 0.0000,  0.0000,  0.0000)
   3 Cd     1.592197    2.777413   18.064867    ( 0.0000,  0.0000,  0.0000)
   4 Cd    -1.600874    2.772795   10.000000    ( 0.0000,  0.0000,  0.0000)
   5 Cd    -0.000000    3.697060   12.614217    ( 0.0000,  0.0000,  0.0000)
   6 Cd    -1.597931    4.623025   15.228646    ( 0.0000,  0.0000,  0.0000)
   7 Cd    -0.025023    5.531144   18.027917    ( 0.0000,  0.0000,  0.0000)
   8 Cd    -3.201748    5.545591   10.000000    ( 0.0000,  0.0000,  0.0000)
   9 Cd    -1.600874    6.469856   12.614217    ( 0.0000,  0.0000,  0.0000)
  10 Cd    -3.212104    7.398745   15.318621    ( 0.0000,  0.0000,  0.0000)
  11 Cd    -1.601214    8.308562   18.064867    ( 0.0000,  0.0000,  0.0000)
  12 Cd     3.201748    0.000000   10.000000    ( 0.0000,  0.0000,  0.0000)
  13 Cd     4.802622    0.924265   12.614217    ( 0.0000,  0.0000,  0.0000)
  14 Cd     3.207099    1.851620   15.322812    ( 0.0000,  0.0000,  0.0000)
  15 Cd     4.816320    2.780703   18.080782    ( 0.0000,  0.0000,  0.0000)
  16 Cd     1.600874    2.772795   10.000000    ( 0.0000,  0.0000,  0.0000)
  17 Cd     3.201748    3.697060   12.614217    ( 0.0000,  0.0000,  0.0000)
  18 Cd     1.611579    4.629629   15.316516    ( 0.0000,  0.0000,  0.0000)
  19 Cd     3.193444    5.253225   18.299511    ( 0.0000,  0.0000,  0.0000)
  20 Cd     0.000000    5.545591   10.000000    ( 0.0000,  0.0000,  0.0000)
  21 Cd     1.600874    6.469856   12.614217    ( 0.0000,  0.0000,  0.0000)
  22 Cd     0.012543    7.399240   15.316516    ( 0.0000,  0.0000,  0.0000)
  23 Cd     1.343526    8.457377   18.299511    ( 0.0000,  0.0000,  0.0000)
  24 Cd     6.403497    0.000000   10.000000    ( 0.0000,  0.0000,  0.0000)
  25 Cd     8.004371    0.924265   12.614217    ( 0.0000,  0.0000,  0.0000)
  26 Cd     6.406638    1.839209   15.322432    ( 0.0000,  0.0000,  0.0000)
  27 Cd     8.004683    2.800813   18.026843    ( 0.0000,  0.0000,  0.0000)
  28 Cd     4.802622    2.772795   10.000000    ( 0.0000,  0.0000,  0.0000)
  29 Cd     6.403497    3.697060   12.614217    ( 0.0000,  0.0000,  0.0000)
  30 Cd     4.796120    4.628707   15.322432    ( 0.0000,  0.0000,  0.0000)
  31 Cd     6.427917    5.531852   18.026843    ( 0.0000,  0.0000,  0.0000)
  32 Cd     3.201748    5.545591   10.000000    ( 0.0000,  0.0000,  0.0000)
  33 Cd     4.802622    6.469856   12.614217    ( 0.0000,  0.0000,  0.0000)
  34 Cd     3.201817    7.394160   15.396029    ( 0.0000,  0.0000,  0.0000)
  35 Cd     5.063115    8.468782   18.292104    ( 0.0000,  0.0000,  0.0000)
  36 O      3.205008    7.396003   18.577677    ( 0.0000,  0.0000,  0.0000)

Unit cell:
           periodic     x           y           z      points  spacing
  1. axis:    yes    9.605245    0.000000    0.000000    48     0.1733
  2. axis:    yes   -4.802622    8.318386    0.000000    48     0.1733
  3. axis:    no     0.000000    0.000000   27.842650   156     0.1785

  Lengths:   9.605245   9.605245  27.842650
  Angles:   90.000000  90.000000 120.000000

Effective grid spacing dv^(1/3) = 0.1836

     iter     time        total  log10-change:
                         energy  eigst   dens
iter:   1 23:48:49 -5458.346785  -3.90
iter:   2 23:49:17 -5458.346709  -4.99  -3.85
iter:   3 23:49:45 -5458.346653c -5.53  -4.02c
iter:   4 23:50:12 -5458.346631c -6.11  -4.19c
iter:   5 23:50:40 -5458.346616c -6.27  -4.28c
iter:   6 23:51:07 -5458.346606c -6.14  -4.42c
iter:   7 23:51:35 -5458.346609c -7.00  -4.59c
iter:   8 23:52:02 -5458.346610c -7.44c -4.80c

Converged after 8 iterations.

Dipole moment: (-11.691233, -21.661259, 0.018275) |e|*Ang

Energy contributions relative to reference atoms: (reference = -5480273.112413)

Kinetic:       +1043.217449
Potential:     -940.944331
External:        +0.000000
XC:            -5563.947483
Entropy (-ST):   -0.463728
Local:           +3.559620
--------------------------
Free energy:   -5458.578475
Extrapolated:  -5458.346610

Showing only first 2 kpts
 Kpt  Band  Eigenvalues  Occupancy
  0   217     -4.48144    1.87679
  0   218     -4.14371    0.68422
  0   219     -4.03918    0.30914
  0   220     -4.00006    0.22008

  1   217     -4.19336    0.92146
  1   218     -4.11182    0.54865
  1   219     -3.58283    0.00380
  1   220     -3.51531    0.00194


Fermi level: -4.20910

No gap

Forces in eV/Ang:
  0 Cd   -0.00664   -0.00384   -0.23175
  1 Cd    0.00628    0.00363    0.25837
  2 Cd    0.00101   -0.00250   -0.00428
  3 Cd    0.00403    0.00182   -0.00542
  4 Cd   -0.02338    0.01645   -0.23850
  5 Cd    0.01892   -0.01199    0.21918
  6 Cd    0.00224    0.00129    0.00685
  7 Cd    0.00727    0.00419   -0.00420
  8 Cd    0.00255   -0.02847   -0.23850
  9 Cd   -0.00092    0.02238    0.21918
 10 Cd   -0.00166    0.00213   -0.00428
 11 Cd    0.00359    0.00257   -0.00542
 12 Cd    0.01081    0.01354   -0.22645
 13 Cd    0.00321    0.01310    0.25525
 14 Cd    0.00127    0.00073    0.00893
 15 Cd    0.01114    0.00643    0.01976
 16 Cd    0.01713    0.00259   -0.22645
 17 Cd    0.01295   -0.00377    0.25525
 18 Cd    0.00081    0.00268   -0.00043
 19 Cd   -0.00486    0.00632   -0.00379
 20 Cd   -0.01953   -0.01128   -0.22265
 21 Cd    0.00974    0.00563    0.21869
 22 Cd    0.00273   -0.00063   -0.00043
 23 Cd    0.00304   -0.00737   -0.00379
 24 Cd   -0.00764    0.01976   -0.23254
 25 Cd   -0.00766   -0.00307    0.21881
 26 Cd   -0.00312   -0.00311   -0.00484
 27 Cd    0.00188   -0.01157    0.00410
 28 Cd    0.00720    0.00415   -0.23393
 29 Cd   -0.03269   -0.01887    0.20643
 30 Cd   -0.00425   -0.00115   -0.00484
 31 Cd   -0.00908    0.00742    0.00410
 32 Cd    0.01329   -0.01650   -0.23254
 33 Cd   -0.00649   -0.00510    0.21881
 34 Cd    0.00026    0.00015    0.01418
 35 Cd   -0.03075   -0.01775    0.01006
 36 O     0.03027    0.01748    0.02094

BFGS:   23 23:52:13    -5458.346610        0.0407
Timing:                                      incl.     excl.
-------------------------------------------------------------------
Density initialized from wave functions:     6.431     5.490   0.0% |
 Symmetrize density:                         0.941     0.941   0.0% |
Forces:                                    264.564   264.564   2.4% ||
Hamiltonian:                                98.545     0.003   0.0% |
 Atomic:                                     0.005     0.005   0.0% |
  XC Correction:                             0.000     0.000   0.0% |
 Calculate atomic Hamiltonians:              0.007     0.007   0.0% |
 Communicate:                                3.528     3.528   0.0% |
 Hartree integrate/restrict:                 0.318     0.318   0.0% |
 Initialize Hamiltonian:                     0.000     0.000   0.0% |
 Poisson:                                    5.303     0.226   0.0% |
  Communicate from 1D:                       0.466     0.466   0.0% |
  Communicate from 2D:                       0.842     0.842   0.0% |
  Communicate to 1D:                         0.224     0.224   0.0% |
  Communicate to 2D:                         1.037     1.037   0.0% |
  FFT 1D:                                    1.134     1.134   0.0% |
  FFT 2D:                                    1.373     1.373   0.0% |
 XC 3D grid:                                89.151    22.251   0.2% |
  VdW-DF integral:                          66.900     0.866   0.0% |
   Convolution:                              8.887     8.887   0.1% |
   FFT:                                      4.932     4.932   0.0% |
   gather:                                  18.195    18.195   0.2% |
   hmm1:                                     1.351     1.351   0.0% |
   hmm2:                                     2.970     2.970   0.0% |
   iFFT:                                     5.188     5.188   0.0% |
   potential:                               20.769     0.508   0.0% |
    collect:                                 2.047     2.047   0.0% |
    p1:                                     12.214    12.214   0.1% |
    p2:                                      4.306     4.306   0.0% |
    sum:                                     1.695     1.695   0.0% |
   splines:                                  3.743     3.743   0.0% |
 vbar:                                       0.230     0.230   0.0% |
LCAO initialization:                        21.081     0.632   0.0% |
 LCAO eigensolver:                          10.485     0.002   0.0% |
  Calculate projections:                     0.000     0.000   0.0% |
  DenseAtomicCorrection:                     0.000     0.000   0.0% |
  Distribute overlap matrix:                10.088    10.088   0.1% |
  Orbital Layouts:                           0.304     0.304   0.0% |
  Potential matrix:                          0.025     0.025   0.0% |
  Sum over cells:                            0.065     0.065   0.0% |
 LCAO to grid:                               8.947     8.947   0.1% |
 Set positions (LCAO WFS):                   1.017     0.778   0.0% |
  Basic WFS set positions:                   0.002     0.002   0.0% |
  Basis functions set positions:             0.000     0.000   0.0% |
  P tci:                                     0.000     0.000   0.0% |
  ST tci:                                    0.179     0.179   0.0% |
  mktci:                                     0.058     0.058   0.0% |
Redistribute:                                0.010     0.010   0.0% |
SCF-cycle:                               10044.229    52.920   0.5% |
 Davidson:                                8539.637  2417.972  21.9% |--------|
  Apply hamiltonian:                       285.115   285.115   2.6% ||
  Subspace diag:                          1111.076     0.039   0.0% |
   calc_h_matrix:                          559.966   281.056   2.6% ||
    Apply hamiltonian:                     278.910   278.910   2.5% ||
   diagonalize:                              9.072     9.072   0.1% |
   rotate_psi:                             541.998   541.998   4.9% |-|
  calc. matrices:                         3585.359  1832.881  16.6% |------|
   Apply hamiltonian:                     1752.478  1752.478  15.9% |-----|
  diagonalize:                              77.451    77.451   0.7% |
  rotate_psi:                             1062.664  1062.664   9.6% |---|
 Density:                                   39.475     0.008   0.0% |
  Atomic density matrices:                   1.365     1.365   0.0% |
  Mix:                                       6.875     6.875   0.1% |
  Multipole moments:                         0.120     0.120   0.0% |
  Pseudo density:                           31.106    18.833   0.2% |
   Symmetrize density:                      12.273    12.273   0.1% |
 Hamiltonian:                             1347.167     0.040   0.0% |
  Atomic:                                    0.071     0.070   0.0% |
   XC Correction:                            0.001     0.001   0.0% |
  Calculate atomic Hamiltonians:             0.101     0.101   0.0% |
  Communicate:                              51.253    51.253   0.5% |
  Hartree integrate/restrict:                4.659     4.659   0.0% |
  Poisson:                                  75.264     3.025   0.0% |
   Communicate from 1D:                      6.647     6.647   0.1% |
   Communicate from 2D:                     12.053    12.053   0.1% |
   Communicate to 1D:                        3.225     3.225   0.0% |
   Communicate to 2D:                       14.690    14.690   0.1% |
   FFT 1D:                                  16.113    16.113   0.1% |
   FFT 2D:                                  19.510    19.510   0.2% |
  XC 3D grid:                             1215.001   312.314   2.8% ||
   VdW-DF integral:                        902.687    12.495   0.1% |
    Convolution:                           126.489   126.489   1.1% |
    FFT:                                    70.221    70.221   0.6% |
    gather:                                262.292   262.292   2.4% ||
    hmm1:                                   19.138    19.138   0.2% |
    hmm2:                                   42.072    42.072   0.4% |
    iFFT:                                   74.507    74.507   0.7% |
    potential:                             295.471     7.221   0.1% |
     collect:                               29.147    29.147   0.3% |
     p1:                                   173.799   173.799   1.6% ||
     p2:                                    61.442    61.442   0.6% |
     sum:                                   23.862    23.862   0.2% |
    splines:                                 0.002     0.002   0.0% |
  vbar:                                      0.777     0.777   0.0% |
 Orthonormalize:                            65.031     0.004   0.0% |
  calc_s_matrix:                             7.857     7.857   0.1% |
  inverse-cholesky:                         38.971    38.971   0.4% |
  projections:                               0.001     0.001   0.0% |
  rotate_psi_s:                             18.198    18.198   0.2% |
Set symmetry:                                0.002     0.002   0.0% |
Other:                                     582.526   582.526   5.3% |-|
-------------------------------------------------------------------
Total:                                             11017.388 100.0%

Memory usage: 1.86 GiB
Date: Wed Sep 27 23:52:13 2023
