
  ___ ___ ___ _ _ _  
 |   |   |_  | | | | 
 | | | | | . | | | | 
 |__ |  _|___|_____|  22.8.0
 |___|_|             

User:   s204775@a089.nifl.fysik.dtu.dk
Date:   Wed Sep 27 20:51:05 2023
Arch:   x86_64
Pid:    36922
CWD:    /home/cat/s204775/projects/Bachelor_project/O_missing_features
Python: 3.10.4
gpaw:   /home/modules/software/GPAW/22.8.0-intel-2022a/lib/python3.10/site-packages/gpaw
_gpaw:  /home/modules/software/GPAW/22.8.0-intel-2022a/lib/python3.10/site-packages/
        _gpaw.cpython-310-x86_64-linux-gnu.so
ase:    /home/modules/software/ASE/3.22.1-intel-2022a/lib/python3.10/site-packages/ase (version 3.22.1)
numpy:  /home/modules/software/SciPy-bundle/2022.05-intel-2022a/lib/python3.10/site-packages/numpy (version 1.22.3)
scipy:  /home/modules/software/SciPy-bundle/2022.05-intel-2022a/lib/python3.10/site-packages/scipy (version 1.8.1)
libxc:  5.2.3
units:  Angstrom and eV
cores: 40
OpenMP: False
OMP_NUM_THREADS: 1

Input parameters:
  basis: dzp
  h: 0.18
  kpts: {size: (4, 4, 1)}
  xc: BEEF-vdW

System changes: positions, numbers, cell, pbc, initial_charges, initial_magmoms 

Initialize ...

species:
  Cu:
    name: Copper
    id: f1c4d45d90492f1bbfdcb091e8418fdf
    Z: 29.0
    valence: 11
    core: 18
    charge: 0.0
    file: /home/modules/software/GPAW-setups/0.9.20000/Cu.PBE.gz
    compensation charges: {type: gauss,
                           rc: 0.33,
                           lmax: 2}
    cutoffs: {filter: 2.06,
              core: 2.43}
    valence states:
      #              energy  rcut
      - 4s(1.00)    -4.609   1.164
      - 4p(0.00)    -0.698   1.164
      - 3d(10.00)    -5.039   1.058
      -  s          22.603   1.164
      -  p          26.513   1.164
      -  d          22.172   1.058
  
    # LCAO basis set for Cu:
    #   Name: dzp
    #   File: /home/modules/software/GPAW-setups/0.9.20000/Cu.dzp.basis.gz
    #   Number of radial functions: 5
    #   Number of spherical harmonics: 15
    #     l=0, rc=8.9688 Bohr: 4s-sz confined orbital
    #     l=2, rc=5.1719 Bohr: 3d-sz confined orbital
    #     l=0, rc=5.3281 Bohr: 4s-dz split-valence wave
    #     l=2, rc=3.1406 Bohr: 3d-dz split-valence wave
    #     l=1, rc=8.9688 Bohr: p-type Gaussian polarization
    #   Number of RI-basis functions 0

  O:
    name: Oxygen
    id: 32ecd46bf208036f09c70b0ec9a88b78
    Z: 8.0
    valence: 6
    core: 2
    charge: 0.0
    file: /home/modules/software/GPAW-setups/0.9.20000/O.PBE.gz
    compensation charges: {type: gauss,
                           rc: 0.21,
                           lmax: 2}
    cutoffs: {filter: 1.17,
              core: 0.83}
    valence states:
      #              energy  rcut
      - 2s(2.00)   -23.961   0.688
      - 2p(4.00)    -9.029   0.598
      -  s           3.251   0.688
      -  p          18.182   0.598
      -  d           0.000   0.619
  
    # LCAO basis set for O:
    #   Name: dzp
    #   File: /home/modules/software/GPAW-setups/0.9.20000/O.dzp.basis.gz
    #   Number of radial functions: 5
    #   Number of spherical harmonics: 13
    #     l=0, rc=4.3438 Bohr: 2s-sz confined orbital
    #     l=1, rc=5.3906 Bohr: 2p-sz confined orbital
    #     l=0, rc=2.2969 Bohr: 2s-dz split-valence wave
    #     l=1, rc=2.8906 Bohr: 2p-dz split-valence wave
    #     l=2, rc=5.3906 Bohr: d-type Gaussian polarization
    #   Number of RI-basis functions 0

Reference energy: -1622813.118581  # eV

Spin-paired calculation

Convergence criteria:
 Maximum [total energy] change in last 3 cyles: 0.0005 eV / electron
 Maximum integral of absolute [dens]ity change: 0.0001 electrons / valence electron
 Maximum integral of absolute [eigenst]ate change: 4e-08 eV^2 / valence electron
 Maximum number of scf [iter]ations: 333
 (Square brackets indicate name in SCF output, whereas a 'c' in
 the SCF output indicates the quantity has converged.)

Symmetries present (total): 2

  ( 1  0  0)  ( 0 -1  0)
  ( 0  1  0)  (-1  0  0)
  ( 0  0  1)  ( 0  0  1)

16 k-points: 4 x 4 x 1 Monkhorst-Pack grid
6 k-points in the irreducible part of the Brillouin zone
       k-points in crystal coordinates                weights
   0:     0.12500000   -0.12500000    0.00000000          2/16
   1:     0.12500000    0.12500000    0.00000000          2/16
   2:     0.37500000   -0.37500000    0.00000000          2/16
   3:     0.37500000   -0.12500000    0.00000000          4/16
   4:     0.37500000    0.12500000    0.00000000          4/16
   5:     0.37500000    0.37500000    0.00000000          2/16

Wave functions: Uniform real-space grid
  Kinetic energy operator: 8*3+1=25 point O(h^6) finite-difference Laplacian
  ScaLapack parameters: grid=1x1, blocksize=None
  Wavefunction extrapolation:
    Improved wavefunction reuse through dual PAW basis 

Occupation numbers: Fermi-Dirac:
  width: 0.1000  # eV
 

Eigensolver
   Davidson(niter=2) 

Densities:
  Coarse grid: 36*36*148 grid
  Fine grid: 72*72*296 grid
  Total Charge: 0.000000 

Density mixing:
  Method: separate
  Backend: pulay
  Linear mixing parameter: 0.05
  old densities: 5
  Damping of long wavelength oscillations: 50 

Hamiltonian:
  XC and Coulomb potentials evaluated on a 72*72*296 grid
  Using the BEEF-vdW Exchange-Correlation functional
  Interpolation: tri-quintic (5. degree polynomial)
  Poisson solver: FastPoissonSolver using
    Stencil: 8*3+1=25 point O(h^6) finite-difference Laplacian
    FFT axes: [0, 1]
    FST axes: [2]
 

XC parameters: BEEF-vdW with 2 nearest neighbor stencil

Memory estimate:
  Process memory now: 165.99 MiB
  Calculator: 164.39 MiB
    Density: 9.95 MiB
      Arrays: 1.89 MiB
      Localized functions: 7.34 MiB
      Mixer: 0.72 MiB
    Hamiltonian: 1.79 MiB
      Arrays: 1.24 MiB
      XC: 0.00 MiB
      Poisson: 0.00 MiB
      vbar: 0.55 MiB
    Wavefunctions: 152.65 MiB
      Arrays psit_nG: 105.81 MiB
      Eigensolver: 45.23 MiB
      Projections: 0.37 MiB
      Projectors: 1.24 MiB

Total number of cores used: 40
Parallelization over k-points: 2
Domain decomposition: 2 x 2 x 5

Number of atoms: 37
Number of atomic orbitals: 553
Number of bands in calculation: 246
Number of valence electrons: 402
Bands to converge: occupied

... initialized

Initializing position-dependent things.

Density initialized from atomic densities
Creating initial wave functions:
  246 bands from LCAO basis set

                                          
                                          
                                          
                                          
                                          
                   O                      
          Cu    Cu    Cu                  
           CCu   CCu   CCu                
             Cu     Cu    Cu              
             Cu    Cu    Cu               
             CCu    CCu   CCu             
                                          
               Cu     Cu    Cu            
                 Cu    Cu     Cu          
          Cu    Cu    Cu                  
            Cu    Cu    Cu                
             Cu     Cu    Cu              
                                          
                                          
                                          
                                          

Positions:
   0 Cu     0.000000    0.000000    9.999999    ( 0.0000,  0.0000,  0.0000)
   1 Cu     1.303035    0.752307   12.127846    ( 0.0000,  0.0000,  0.0000)
   2 Cu    -0.000000    1.504615   14.261004    ( 0.0000,  0.0000,  0.0000)
   3 Cu     0.000000    0.000000   16.395505    ( 0.0000,  0.0000,  0.0000)
   4 Cu    -1.303035    2.256922    9.999999    ( 0.0000,  0.0000,  0.0000)
   5 Cu     0.000000    3.009230   12.127846    ( 0.0000,  0.0000,  0.0000)
   6 Cu    -1.303035    3.761537   14.261004    ( 0.0000,  0.0000,  0.0000)
   7 Cu    -1.303035    2.256922   16.395505    ( 0.0000,  0.0000,  0.0000)
   8 Cu    -2.606069    4.513845    9.999999    ( 0.0000,  0.0000,  0.0000)
   9 Cu    -1.303035    5.266152   12.127846    ( 0.0000,  0.0000,  0.0000)
  10 Cu    -2.606069    6.018460   14.261004    ( 0.0000,  0.0000,  0.0000)
  11 Cu    -2.606069    4.513845   16.395505    ( 0.0000,  0.0000,  0.0000)
  12 Cu     2.606069    0.000000    9.999999    ( 0.0000,  0.0000,  0.0000)
  13 Cu     3.909104    0.752307   12.127846    ( 0.0000,  0.0000,  0.0000)
  14 Cu     2.606069    1.504615   14.261004    ( 0.0000,  0.0000,  0.0000)
  15 Cu     2.606069   -0.000000   16.395505    ( 0.0000,  0.0000,  0.0000)
  16 Cu     1.303035    2.256922    9.999999    ( 0.0000,  0.0000,  0.0000)
  17 Cu     2.606069    3.009230   12.127846    ( 0.0000,  0.0000,  0.0000)
  18 Cu     1.303035    3.761537   14.261004    ( 0.0000,  0.0000,  0.0000)
  19 Cu     1.303035    2.256922   16.395505    ( 0.0000,  0.0000,  0.0000)
  20 Cu     0.000000    4.513845    9.999999    ( 0.0000,  0.0000,  0.0000)
  21 Cu     1.303035    5.266152   12.127846    ( 0.0000,  0.0000,  0.0000)
  22 Cu    -0.000000    6.018460   14.261004    ( 0.0000,  0.0000,  0.0000)
  23 Cu     0.000000    4.513845   16.395505    ( 0.0000,  0.0000,  0.0000)
  24 Cu     5.212139    0.000000    9.999999    ( 0.0000,  0.0000,  0.0000)
  25 Cu     6.515174    0.752307   12.127846    ( 0.0000,  0.0000,  0.0000)
  26 Cu     5.212139    1.504615   14.261004    ( 0.0000,  0.0000,  0.0000)
  27 Cu     5.212139   -0.000000   16.395505    ( 0.0000,  0.0000,  0.0000)
  28 Cu     3.909104    2.256922    9.999999    ( 0.0000,  0.0000,  0.0000)
  29 Cu     5.212139    3.009230   12.127846    ( 0.0000,  0.0000,  0.0000)
  30 Cu     3.909104    3.761537   14.261004    ( 0.0000,  0.0000,  0.0000)
  31 Cu     3.909104    2.256922   16.395505    ( 0.0000,  0.0000,  0.0000)
  32 Cu     2.606069    4.513845    9.999999    ( 0.0000,  0.0000,  0.0000)
  33 Cu     3.909104    5.266152   12.127846    ( 0.0000,  0.0000,  0.0000)
  34 Cu     2.606069    6.018460   14.261004    ( 0.0000,  0.0000,  0.0000)
  35 Cu     2.606069    4.513845   16.395505    ( 0.0000,  0.0000,  0.0000)
  36 O      1.303035    3.761537   17.147812    ( 0.0000,  0.0000,  0.0000)

Unit cell:
           periodic     x           y           z      points  spacing
  1. axis:    yes    7.818208    0.000000    0.000000    36     0.1881
  2. axis:    yes   -3.909104    6.770767    0.000000    36     0.1881
  3. axis:    no     0.000000    0.000000   26.383539   148     0.1783

  Lengths:   7.818208   7.818208  26.383539
  Angles:   90.000000  90.000000 120.000000

Effective grid spacing dv^(1/3) = 0.1938

     iter     time        total  log10-change:
                         energy  eigst   dens
iter:   1 20:51:28 -2770.579216
iter:   2 20:51:39 -2772.519537  -0.36  -1.19
iter:   3 20:51:51 -2753.887395  -0.91  -1.20
iter:   4 20:52:03 -2746.553862  -0.80  -1.34
iter:   5 20:52:15 -2745.745618  -0.98  -1.49
iter:   6 20:52:27 -2747.299838  -1.01  -1.61
iter:   7 20:52:39 -2744.927452  -1.93  -1.76
iter:   8 20:52:50 -2744.262916  -1.61  -1.84
iter:   9 20:53:02 -2744.323231  -1.85  -1.96
iter:  10 20:53:14 -2744.419549c -1.97  -2.37
iter:  11 20:53:26 -2744.199100  -2.84  -2.33
iter:  12 20:53:37 -2744.167228  -3.10  -2.68
iter:  13 20:53:49 -2744.164084c -3.55  -2.83
iter:  14 20:54:01 -2744.164775c -3.45  -2.91
iter:  15 20:54:13 -2744.161566c -4.18  -3.10
iter:  16 20:54:25 -2744.159414c -4.64  -3.13
iter:  17 20:54:36 -2744.159174c -3.40  -3.16
iter:  18 20:54:48 -2744.156261c -4.67  -3.33
iter:  19 20:55:00 -2744.155011c -4.80  -3.43
iter:  20 20:55:12 -2744.154617c -4.77  -3.52
iter:  21 20:55:24 -2744.154138c -4.95  -3.58
iter:  22 20:55:35 -2744.154344c -4.88  -3.76
iter:  23 20:55:47 -2744.154157c -5.26  -3.83
iter:  24 20:55:59 -2744.154130c -5.95  -3.94
iter:  25 20:56:11 -2744.154177c -5.33  -3.98
iter:  26 20:56:23 -2744.154054c -5.88  -4.11c
iter:  27 20:56:34 -2744.154074c -6.02  -4.40c
iter:  28 20:56:46 -2744.154082c -6.70  -4.47c
iter:  29 20:56:58 -2744.154094c -6.91  -4.45c
iter:  30 20:57:10 -2744.154084c -7.11  -4.59c
iter:  31 20:57:21 -2744.154086c -7.36  -4.70c
iter:  32 20:57:33 -2744.154095c -7.25  -4.90c
iter:  33 20:57:45 -2744.154093c -7.01  -5.01c
iter:  34 20:57:57 -2744.154094c -7.81c -5.02c

Converged after 34 iterations.

Dipole moment: (-3.637812, -6.018015, -0.021546) |e|*Ang

Energy contributions relative to reference atoms: (reference = -1622813.118581)

Kinetic:       +262.555523
Potential:     -296.231873
External:        +0.000000
XC:            -2712.376098
Entropy (-ST):   -0.402007
Local:           +2.099357
--------------------------
Free energy:   -2744.355098
Extrapolated:  -2744.154094

Showing only first 2 kpts
 Kpt  Band  Eigenvalues  Occupancy
  0   199     -5.63404    1.99766
  0   200     -5.50873    1.99184
  0   201     -5.29607    1.93356
  0   202     -5.00933    1.24652

  1   199     -5.59512    1.99655
  1   200     -5.37898    1.97045
  1   201     -5.27120    1.91560
  1   202     -4.83335    0.44319


Fermi level: -4.95899

No gap

Forces in eV/Ang:
  0 Cu   -0.00564    0.00326   -0.06146
  1 Cu   -0.00755   -0.01211   -0.02186
  2 Cu    0.03392   -0.03793   -0.00850
  3 Cu    0.06176   -0.03565   -0.10110
  4 Cu   -0.02718   -0.01001   -0.06639
  5 Cu   -0.00420    0.00156   -0.00766
  6 Cu   -0.02186    0.04698   -0.02917
  7 Cu   -0.34487   -0.19140   -0.09179
  8 Cu    0.00081   -0.00953   -0.08752
  9 Cu   -0.01316    0.00760   -0.01832
 10 Cu    0.00759   -0.00438    0.01907
 11 Cu   -0.00446    0.05779   -0.09486
 12 Cu    0.00866    0.00406   -0.08752
 13 Cu   -0.01674   -0.02077   -0.01385
 14 Cu   -0.02327   -0.04053   -0.01777
 15 Cu   -0.05227   -0.02503   -0.09486
 16 Cu    0.00401    0.00391   -0.06120
 17 Cu   -0.01528    0.00882    0.00663
 18 Cu    0.00526   -0.00303   -0.58860
 19 Cu   -0.00349   -5.05737   -1.92812
 20 Cu   -0.00396    0.00229   -0.06035
 21 Cu   -0.00345    0.00286   -0.00766
 22 Cu   -0.05162   -0.00456   -0.02917
 23 Cu   -4.36714    2.52137   -1.90794
 24 Cu   -0.00492    0.02855   -0.06639
 25 Cu    0.01292   -0.00746   -0.02407
 26 Cu   -0.00222    0.00128    0.03245
 27 Cu   -0.00668    0.39436   -0.09179
 28 Cu    0.02544   -0.01469   -0.09211
 29 Cu    0.00962    0.02488   -0.01385
 30 Cu    0.02346    0.04041   -0.01777
 31 Cu    0.35475   -0.20482   -0.07778
 32 Cu   -0.00138   -0.00543   -0.06120
 33 Cu    0.00671    0.01259   -0.02186
 34 Cu    0.04981   -0.01041   -0.00850
 35 Cu    4.37807    2.53171   -1.92812
 36 O    -0.00017    0.00010    7.26044

      Step     Time          Energy         fmax
BFGS:    0 20:58:04    -2744.154094        7.2604
System changes: positions 

Initializing position-dependent things.

Density initialized from wave functions
                                          
                                          
                                          
                                          
                                          
                   O                      
          Cu    Cu     Cu                 
           CCu   CCu   CCu                
             Cu     Cu    Cu              
             Cu    Cu    Cu               
              Cu     Cu    Cu             
             Cu     Cu    Cu              
               Cu     Cu    Cu            
                 Cu    Cu     Cu          
          Cu    Cu    Cu                  
            Cu    Cu    Cu                
             Cu     Cu    Cu              
                                          
                                          
                                          
                                          

Positions:
   0 Cu     0.000000    0.000000    9.999999    ( 0.0000,  0.0000,  0.0000)
   1 Cu     1.303035    0.752307   12.127846    ( 0.0000,  0.0000,  0.0000)
   2 Cu     0.000485    1.504073   14.260882    ( 0.0000,  0.0000,  0.0000)
   3 Cu     0.000882   -0.000509   16.394060    ( 0.0000,  0.0000,  0.0000)
   4 Cu    -1.303035    2.256922    9.999999    ( 0.0000,  0.0000,  0.0000)
   5 Cu     0.000000    3.009230   12.127846    ( 0.0000,  0.0000,  0.0000)
   6 Cu    -1.303347    3.762209   14.260587    ( 0.0000,  0.0000,  0.0000)
   7 Cu    -1.307961    2.254188   16.394193    ( 0.0000,  0.0000,  0.0000)
   8 Cu    -2.606069    4.513845    9.999999    ( 0.0000,  0.0000,  0.0000)
   9 Cu    -1.303035    5.266152   12.127846    ( 0.0000,  0.0000,  0.0000)
  10 Cu    -2.605961    6.018397   14.261276    ( 0.0000,  0.0000,  0.0000)
  11 Cu    -2.606133    4.514670   16.394150    ( 0.0000,  0.0000,  0.0000)
  12 Cu     2.606069    0.000000    9.999999    ( 0.0000,  0.0000,  0.0000)
  13 Cu     3.909104    0.752307   12.127846    ( 0.0000,  0.0000,  0.0000)
  14 Cu     2.605737    1.504036   14.260750    ( 0.0000,  0.0000,  0.0000)
  15 Cu     2.605323   -0.000358   16.394150    ( 0.0000,  0.0000,  0.0000)
  16 Cu     1.303035    2.256922    9.999999    ( 0.0000,  0.0000,  0.0000)
  17 Cu     2.606069    3.009230   12.127846    ( 0.0000,  0.0000,  0.0000)
  18 Cu     1.303110    3.761494   14.252595    ( 0.0000,  0.0000,  0.0000)
  19 Cu     1.302985    2.184674   16.367960    ( 0.0000,  0.0000,  0.0000)
  20 Cu     0.000000    4.513845    9.999999    ( 0.0000,  0.0000,  0.0000)
  21 Cu     1.303035    5.266152   12.127846    ( 0.0000,  0.0000,  0.0000)
  22 Cu    -0.000737    6.018395   14.260587    ( 0.0000,  0.0000,  0.0000)
  23 Cu    -0.062388    4.549864   16.368248    ( 0.0000,  0.0000,  0.0000)
  24 Cu     5.212139    0.000000    9.999999    ( 0.0000,  0.0000,  0.0000)
  25 Cu     6.515174    0.752307   12.127846    ( 0.0000,  0.0000,  0.0000)
  26 Cu     5.212107    1.504633   14.261467    ( 0.0000,  0.0000,  0.0000)
  27 Cu     5.212044    0.005634   16.394193    ( 0.0000,  0.0000,  0.0000)
  28 Cu     3.909104    2.256922    9.999999    ( 0.0000,  0.0000,  0.0000)
  29 Cu     5.212139    3.009230   12.127846    ( 0.0000,  0.0000,  0.0000)
  30 Cu     3.909439    3.762115   14.260750    ( 0.0000,  0.0000,  0.0000)
  31 Cu     3.914172    2.253996   16.394394    ( 0.0000,  0.0000,  0.0000)
  32 Cu     2.606069    4.513845    9.999999    ( 0.0000,  0.0000,  0.0000)
  33 Cu     3.909104    5.266152   12.127846    ( 0.0000,  0.0000,  0.0000)
  34 Cu     2.606781    6.018311   14.260882    ( 0.0000,  0.0000,  0.0000)
  35 Cu     2.668613    4.550012   16.367960    ( 0.0000,  0.0000,  0.0000)
  36 O      1.303032    3.761539   17.251533    ( 0.0000,  0.0000,  0.0000)

Unit cell:
           periodic     x           y           z      points  spacing
  1. axis:    yes    7.818208    0.000000    0.000000    36     0.1881
  2. axis:    yes   -3.909104    6.770767    0.000000    36     0.1881
  3. axis:    no     0.000000    0.000000   26.383539   148     0.1783

  Lengths:   7.818208   7.818208  26.383539
  Angles:   90.000000  90.000000 120.000000

Effective grid spacing dv^(1/3) = 0.1938

     iter     time        total  log10-change:
                         energy  eigst   dens
iter:   1 20:58:33 -2747.345721  -0.75
iter:   2 20:58:45 -2746.262984  -1.76  -2.19
iter:   3 20:58:57 -2745.752458  -1.89  -2.24
iter:   4 20:59:09 -2745.664033  -1.95  -2.43
iter:   5 20:59:21 -2745.553904c -2.49  -2.64
iter:   6 20:59:33 -2745.479932c -2.71  -2.66
iter:   7 20:59:45 -2745.441981c -2.67  -2.88
iter:   8 20:59:57 -2745.437811c -3.37  -3.09
iter:   9 21:00:09 -2745.425611c -3.64  -3.12
iter:  10 21:00:21 -2745.423537c -4.20  -3.24
iter:  11 21:00:33 -2745.424186c -3.53  -3.31
iter:  12 21:00:44 -2745.425092c -4.07  -3.50
iter:  13 21:00:57 -2745.421473c -4.36  -3.58
iter:  14 21:01:08 -2745.421126c -4.46  -3.72
iter:  15 21:01:20 -2745.421057c -5.52  -3.79
iter:  16 21:01:32 -2745.420944c -5.30  -3.87
iter:  17 21:01:44 -2745.420869c -5.55  -4.00
iter:  18 21:01:56 -2745.420888c -5.12  -4.10c
iter:  19 21:02:08 -2745.420792c -6.02  -4.34c
iter:  20 21:02:20 -2745.420809c -5.93  -4.38c
iter:  21 21:02:32 -2745.420828c -6.44  -4.58c
iter:  22 21:02:44 -2745.420835c -6.51  -4.61c
iter:  23 21:02:56 -2745.420829c -6.71  -4.63c
iter:  24 21:03:08 -2745.420826c -7.35  -4.80c
iter:  25 21:03:20 -2745.420827c -7.50c -5.09c

Converged after 25 iterations.

Dipole moment: (-3.336135, -6.193214, -0.100114) |e|*Ang

Energy contributions relative to reference atoms: (reference = -1622813.118581)

Kinetic:       +247.156420
Potential:     -283.805777
External:        +0.000000
XC:            -2710.631120
Entropy (-ST):   -0.400839
Local:           +2.060070
--------------------------
Free energy:   -2745.621246
Extrapolated:  -2745.420827

Showing only first 2 kpts
 Kpt  Band  Eigenvalues  Occupancy
  0   199     -5.70458    1.99744
  0   200     -5.60845    1.99332
  0   201     -5.37643    1.93404
  0   202     -5.08413    1.22382

  1   199     -5.68373    1.99685
  1   200     -5.48669    1.97761
  1   201     -5.35064    1.91545
  1   202     -4.91019    0.43370


Fermi level: -5.03860

No gap

Forces in eV/Ang:
  0 Cu   -0.00575    0.00332   -0.06008
  1 Cu   -0.00750   -0.01461   -0.02484
  2 Cu   -0.00863   -0.02206   -0.05022
  3 Cu    0.03294   -0.01902   -0.08703
  4 Cu   -0.02465   -0.00834   -0.06599
  5 Cu   -0.01185   -0.00403   -0.02289
  6 Cu   -0.02691    0.00195   -0.06629
  7 Cu   -0.17985   -0.09789   -0.06483
  8 Cu    0.00092   -0.00943   -0.08653
  9 Cu   -0.01628    0.00940   -0.02272
 10 Cu    0.00545   -0.00315    0.01311
 11 Cu   -0.00278    0.02796   -0.08033
 12 Cu    0.00863    0.00392   -0.08653
 13 Cu   -0.01753   -0.02154   -0.01643
 14 Cu    0.01605   -0.02373   -0.05754
 15 Cu   -0.02561   -0.01157   -0.08033
 16 Cu    0.00455    0.00722   -0.06084
 17 Cu   -0.00786    0.00454   -0.00698
 18 Cu    0.00411   -0.00237   -0.28103
 19 Cu   -0.00023   -1.57171   -0.55588
 20 Cu   -0.00132    0.00076   -0.05939
 21 Cu   -0.00243    0.01227   -0.02289
 22 Cu   -0.01515    0.02233   -0.06629
 23 Cu   -1.35589    0.78282   -0.53837
 24 Cu   -0.00510    0.02552   -0.06599
 25 Cu    0.01342   -0.00775   -0.02724
 26 Cu   -0.00140    0.00081    0.00857
 27 Cu   -0.00515    0.20470   -0.06483
 28 Cu    0.02218   -0.01280   -0.09237
 29 Cu    0.00989    0.02595   -0.01643
 30 Cu    0.02858   -0.00204   -0.05754
 31 Cu    0.18538   -0.10703   -0.05167
 32 Cu   -0.00398   -0.00755   -0.06084
 33 Cu    0.00890    0.01380   -0.02484
 34 Cu    0.01479    0.01850   -0.05022
 35 Cu    1.36102    0.78605   -0.55588
 36 O     0.00445   -0.00257    2.89930

BFGS:    1 21:03:27    -2745.420827        2.8993
System changes: positions 

Initializing position-dependent things.

Density initialized from wave functions
                                          
                                          
                                          
                                          
                                          
                   O                      
          Cu    Cu     Cu                 
           CCu   CCu   CCu                
             Cu     Cu    Cu              
             Cu    Cu    Cu               
              Cu     Cu    Cu             
             Cu     Cu    Cu              
               Cu     Cu    Cu            
                 Cu    Cu     Cu          
          Cu    Cu    Cu                  
            Cu    Cu    Cu                
             Cu     Cu    Cu              
                                          
                                          
                                          
                                          

Positions:
   0 Cu     0.000000    0.000000    9.999999    ( 0.0000,  0.0000,  0.0000)
   1 Cu     1.303035    0.752307   12.127846    ( 0.0000,  0.0000,  0.0000)
   2 Cu     0.000300    1.503590   14.259789    ( 0.0000,  0.0000,  0.0000)
   3 Cu     0.001604   -0.000926   16.392159    ( 0.0000,  0.0000,  0.0000)
   4 Cu    -1.303035    2.256922    9.999999    ( 0.0000,  0.0000,  0.0000)
   5 Cu     0.000000    3.009230   12.127846    ( 0.0000,  0.0000,  0.0000)
   6 Cu    -1.303934    3.762255   14.259143    ( 0.0000,  0.0000,  0.0000)
   7 Cu    -1.311900    2.252044   16.392776    ( 0.0000,  0.0000,  0.0000)
   8 Cu    -2.606069    4.513845    9.999999    ( 0.0000,  0.0000,  0.0000)
   9 Cu    -1.303035    5.266152   12.127846    ( 0.0000,  0.0000,  0.0000)
  10 Cu    -2.605842    6.018328   14.261563    ( 0.0000,  0.0000,  0.0000)
  11 Cu    -2.606194    4.515283   16.392395    ( 0.0000,  0.0000,  0.0000)
  12 Cu     2.606069    0.000000    9.999999    ( 0.0000,  0.0000,  0.0000)
  13 Cu     3.909104    0.752307   12.127846    ( 0.0000,  0.0000,  0.0000)
  14 Cu     2.606084    1.503517   14.259497    ( 0.0000,  0.0000,  0.0000)
  15 Cu     2.604762   -0.000611   16.392395    ( 0.0000,  0.0000,  0.0000)
  16 Cu     1.303035    2.256922    9.999999    ( 0.0000,  0.0000,  0.0000)
  17 Cu     2.606069    3.009230   12.127846    ( 0.0000,  0.0000,  0.0000)
  18 Cu     1.303200    3.761442   14.246437    ( 0.0000,  0.0000,  0.0000)
  19 Cu     1.302979    2.150093   16.355719    ( 0.0000,  0.0000,  0.0000)
  20 Cu     0.000000    4.513845    9.999999    ( 0.0000,  0.0000,  0.0000)
  21 Cu     1.303035    5.266152   12.127846    ( 0.0000,  0.0000,  0.0000)
  22 Cu    -0.001071    6.018880   14.259143    ( 0.0000,  0.0000,  0.0000)
  23 Cu    -0.092221    4.567088   16.356389    ( 0.0000,  0.0000,  0.0000)
  24 Cu     5.212139    0.000000    9.999999    ( 0.0000,  0.0000,  0.0000)
  25 Cu     6.515174    0.752307   12.127846    ( 0.0000,  0.0000,  0.0000)
  26 Cu     5.212077    1.504651   14.261656    ( 0.0000,  0.0000,  0.0000)
  27 Cu     5.211931    0.010117   16.392776    ( 0.0000,  0.0000,  0.0000)
  28 Cu     3.909104    2.256922    9.999999    ( 0.0000,  0.0000,  0.0000)
  29 Cu     5.212139    3.009230   12.127846    ( 0.0000,  0.0000,  0.0000)
  30 Cu     3.910063    3.762074   14.259497    ( 0.0000,  0.0000,  0.0000)
  31 Cu     3.918232    2.251653   16.393264    ( 0.0000,  0.0000,  0.0000)
  32 Cu     2.606069    4.513845    9.999999    ( 0.0000,  0.0000,  0.0000)
  33 Cu     3.909104    5.266152   12.127846    ( 0.0000,  0.0000,  0.0000)
  34 Cu     2.607107    6.018713   14.259789    ( 0.0000,  0.0000,  0.0000)
  35 Cu     2.698559    4.567307   16.355719    ( 0.0000,  0.0000,  0.0000)
  36 O      1.303129    3.761483   17.315162    ( 0.0000,  0.0000,  0.0000)

Unit cell:
           periodic     x           y           z      points  spacing
  1. axis:    yes    7.818208    0.000000    0.000000    36     0.1881
  2. axis:    yes   -3.909104    6.770767    0.000000    36     0.1881
  3. axis:    no     0.000000    0.000000   26.383539   148     0.1783

  Lengths:   7.818208   7.818208  26.383539
  Angles:   90.000000  90.000000 120.000000

Effective grid spacing dv^(1/3) = 0.1938

     iter     time        total  log10-change:
                         energy  eigst   dens
iter:   1 21:03:57 -2746.256643  -1.41
iter:   2 21:04:09 -2745.874503  -2.38  -2.39
iter:   3 21:04:21 -2745.768286  -2.63  -2.47
iter:   4 21:04:33 -2745.695262c -2.63  -2.66
iter:   5 21:04:45 -2745.692127c -3.23  -3.02
iter:   6 21:04:57 -2745.663056c -3.14  -2.97
iter:   7 21:05:09 -2745.660462c -3.46  -3.23
iter:   8 21:05:21 -2745.659537c -4.13  -3.40
iter:   9 21:05:33 -2745.658459c -4.40  -3.49
iter:  10 21:05:45 -2745.659457c -4.09  -3.55
iter:  11 21:05:56 -2745.658765c -5.03  -3.83
iter:  12 21:06:08 -2745.657895c -4.56  -3.90
iter:  13 21:06:20 -2745.657888c -5.88  -4.08c
iter:  14 21:06:32 -2745.657836c -5.23  -4.12c
iter:  15 21:06:44 -2745.657863c -5.73  -4.19c
iter:  16 21:06:56 -2745.657876c -5.85  -4.33c
iter:  17 21:07:08 -2745.657772c -6.24  -4.44c
iter:  18 21:07:20 -2745.657741c -5.91  -4.49c
iter:  19 21:07:32 -2745.657761c -6.73  -4.62c
iter:  20 21:07:44 -2745.657762c -7.16  -4.73c
iter:  21 21:07:56 -2745.657771c -7.35  -4.83c
iter:  22 21:08:08 -2745.657776c -7.34  -4.95c
iter:  23 21:08:20 -2745.657777c -7.64c -5.23c

Converged after 23 iterations.

Dipole moment: (-3.118707, -6.316352, -0.145206) |e|*Ang

Energy contributions relative to reference atoms: (reference = -1622813.118581)

Kinetic:       +242.042716
Potential:     -279.606469
External:        +0.000000
XC:            -2709.935629
Entropy (-ST):   -0.400302
Local:           +2.041756
--------------------------
Free energy:   -2745.857929
Extrapolated:  -2745.657777

Showing only first 2 kpts
 Kpt  Band  Eigenvalues  Occupancy
  0   199     -5.74533    1.99730
  0   200     -5.66519    1.99400
  0   201     -5.42126    1.93329
  0   202     -5.12744    1.21100

  1   199     -5.73650    1.99705
  1   200     -5.54376    1.97993
  1   201     -5.39632    1.91520
  1   202     -4.95410    0.42669


Fermi level: -5.08459

No gap

Forces in eV/Ang:
  0 Cu   -0.00575    0.00332   -0.05937
  1 Cu   -0.00759   -0.01625   -0.02772
  2 Cu   -0.02081   -0.00995   -0.06142
  3 Cu    0.01137   -0.00657   -0.07117
  4 Cu   -0.02332   -0.00747   -0.06595
  5 Cu   -0.01584   -0.00704   -0.03418
  6 Cu   -0.01996   -0.01428   -0.07203
  7 Cu   -0.06613   -0.03461   -0.04675
  8 Cu    0.00088   -0.00934   -0.08596
  9 Cu   -0.01824    0.01053   -0.02659
 10 Cu    0.00304   -0.00176    0.00620
 11 Cu   -0.00090    0.00718   -0.06500
 12 Cu    0.00853    0.00391   -0.08596
 13 Cu   -0.01677   -0.02101   -0.02089
 14 Cu    0.02507   -0.01064   -0.06646
 15 Cu   -0.00667   -0.00280   -0.06500
 16 Cu    0.00482    0.00858   -0.06035
 17 Cu   -0.00386    0.00223   -0.01757
 18 Cu    0.00244   -0.00141   -0.14036
 19 Cu    0.00048   -0.29594    0.12202
 20 Cu   -0.00021    0.00012   -0.05859
 21 Cu   -0.00183    0.01724   -0.03418
 22 Cu    0.00239    0.02443   -0.07203
 23 Cu   -0.25430    0.14682    0.13705
 24 Cu   -0.00519    0.02393   -0.06595
 25 Cu    0.01261   -0.00728   -0.03159
 26 Cu   -0.00058    0.00033   -0.00551
 27 Cu   -0.00309    0.07458   -0.04675
 28 Cu    0.02047   -0.01182   -0.09265
 29 Cu    0.00981    0.02502   -0.02089
 30 Cu    0.02175   -0.01639   -0.06646
 31 Cu    0.06907   -0.03988   -0.03505
 32 Cu   -0.00502   -0.00847   -0.06035
 33 Cu    0.01028    0.01470   -0.02772
 34 Cu   -0.00179    0.02300   -0.06142
 35 Cu    0.25653    0.14756    0.12202
 36 O     0.00336   -0.00194    1.31143

BFGS:    2 21:08:27    -2745.657777        1.3114
System changes: positions 

Initializing position-dependent things.

Density initialized from wave functions
                                          
                                          
                                          
                                          
                                          
                   O                      
          Cu    Cu     Cu                 
           CCu   CCu   CCu                
             Cu     Cu    Cu              
             Cu    Cu    Cu               
              Cu     Cu    Cu             
             Cu     Cu    Cu              
               Cu     Cu    Cu            
                 Cu    Cu     Cu          
          Cu    Cu    Cu                  
            Cu    Cu    Cu                
             Cu     Cu    Cu              
                                          
                                          
                                          
                                          

Positions:
   0 Cu     0.000000    0.000000    9.999999    ( 0.0000,  0.0000,  0.0000)
   1 Cu     1.303035    0.752307   12.127846    ( 0.0000,  0.0000,  0.0000)
   2 Cu    -0.000156    1.503295   14.258334    ( 0.0000,  0.0000,  0.0000)
   3 Cu     0.001973   -0.001139   16.390349    ( 0.0000,  0.0000,  0.0000)
   4 Cu    -1.303035    2.256922    9.999999    ( 0.0000,  0.0000,  0.0000)
   5 Cu     0.000000    3.009230   12.127846    ( 0.0000,  0.0000,  0.0000)
   6 Cu    -1.304451    3.761976   14.257405    ( 0.0000,  0.0000,  0.0000)
   7 Cu    -1.314003    2.250927   16.391553    ( 0.0000,  0.0000,  0.0000)
   8 Cu    -2.606069    4.513845    9.999999    ( 0.0000,  0.0000,  0.0000)
   9 Cu    -1.303035    5.266152   12.127846    ( 0.0000,  0.0000,  0.0000)
  10 Cu    -2.605757    6.018279   14.261743    ( 0.0000,  0.0000,  0.0000)
  11 Cu    -2.606224    4.515547   16.390737    ( 0.0000,  0.0000,  0.0000)
  12 Cu     2.606069    0.000000    9.999999    ( 0.0000,  0.0000,  0.0000)
  13 Cu     3.909104    0.752307   12.127846    ( 0.0000,  0.0000,  0.0000)
  14 Cu     2.606657    1.503201   14.257909    ( 0.0000,  0.0000,  0.0000)
  15 Cu     2.604518   -0.000717   16.390737    ( 0.0000,  0.0000,  0.0000)
  16 Cu     1.303035    2.256922    9.999999    ( 0.0000,  0.0000,  0.0000)
  17 Cu     2.606069    3.009230   12.127846    ( 0.0000,  0.0000,  0.0000)
  18 Cu     1.303266    3.761404   14.242387    ( 0.0000,  0.0000,  0.0000)
  19 Cu     1.302988    2.137226   16.355787    ( 0.0000,  0.0000,  0.0000)
  20 Cu     0.000000    4.513845    9.999999    ( 0.0000,  0.0000,  0.0000)
  21 Cu     1.303035    5.266152   12.127846    ( 0.0000,  0.0000,  0.0000)
  22 Cu    -0.001088    6.019467   14.257405    ( 0.0000,  0.0000,  0.0000)
  23 Cu    -0.103301    4.573486   16.356836    ( 0.0000,  0.0000,  0.0000)
  24 Cu     5.212139    0.000000    9.999999    ( 0.0000,  0.0000,  0.0000)
  25 Cu     6.515174    0.752307   12.127846    ( 0.0000,  0.0000,  0.0000)
  26 Cu     5.212059    1.504661   14.261581    ( 0.0000,  0.0000,  0.0000)
  27 Cu     5.211847    0.012497   16.391553    ( 0.0000,  0.0000,  0.0000)
  28 Cu     3.909104    2.256922    9.999999    ( 0.0000,  0.0000,  0.0000)
  29 Cu     5.212139    3.009230   12.127846    ( 0.0000,  0.0000,  0.0000)
  30 Cu     3.910623    3.761735   14.257909    ( 0.0000,  0.0000,  0.0000)
  31 Cu     3.920418    2.250390   16.392334    ( 0.0000,  0.0000,  0.0000)
  32 Cu     2.606069    4.513845    9.999999    ( 0.0000,  0.0000,  0.0000)
  33 Cu     3.909104    5.266152   12.127846    ( 0.0000,  0.0000,  0.0000)
  34 Cu     2.607134    6.019254   14.258334    ( 0.0000,  0.0000,  0.0000)
  35 Cu     2.709706    4.573734   16.355787    ( 0.0000,  0.0000,  0.0000)
  36 O      1.303215    3.761433   17.354298    ( 0.0000,  0.0000,  0.0000)

Unit cell:
           periodic     x           y           z      points  spacing
  1. axis:    yes    7.818208    0.000000    0.000000    36     0.1881
  2. axis:    yes   -3.909104    6.770767    0.000000    36     0.1881
  3. axis:    no     0.000000    0.000000   26.383539   148     0.1783

  Lengths:   7.818208   7.818208  26.383539
  Angles:   90.000000  90.000000 120.000000

Effective grid spacing dv^(1/3) = 0.1938

     iter     time        total  log10-change:
                         energy  eigst   dens
iter:   1 21:08:57 -2745.895061  -2.10
iter:   2 21:09:09 -2745.763154  -2.92  -2.58
iter:   3 21:09:21 -2745.729468c -3.44  -2.70
iter:   4 21:09:33 -2745.706774c -3.36  -2.95
iter:   5 21:09:45 -2745.705973c -3.99  -3.38
iter:   6 21:09:57 -2745.701443c -3.67  -3.32
iter:   7 21:10:09 -2745.700680c -4.29  -3.52
iter:   8 21:10:21 -2745.700528c -4.96  -3.71
iter:   9 21:10:33 -2745.700426c -4.99  -3.80
iter:  10 21:10:45 -2745.700496c -5.03  -3.94
iter:  11 21:10:57 -2745.700331c -5.74  -4.17c
iter:  12 21:11:09 -2745.700277c -5.69  -4.29c
iter:  13 21:11:21 -2745.700256c -6.09  -4.42c
iter:  14 21:11:33 -2745.700282c -5.81  -4.46c
iter:  15 21:11:45 -2745.700264c -6.74  -4.66c
iter:  16 21:11:57 -2745.700227c -6.41  -4.71c
iter:  17 21:12:09 -2745.700227c -6.82  -4.85c
iter:  18 21:12:21 -2745.700231c -7.25  -4.91c
iter:  19 21:12:33 -2745.700247c -7.11  -5.02c
iter:  20 21:12:45 -2745.700247c -7.32  -5.30c
iter:  21 21:12:57 -2745.700244c -8.51c -5.38c

Converged after 21 iterations.

Dipole moment: (-3.010845, -6.376183, -0.168358) |e|*Ang

Energy contributions relative to reference atoms: (reference = -1622813.118581)

Kinetic:       +240.032312
Potential:     -277.955715
External:        +0.000000
XC:            -2709.613764
Entropy (-ST):   -0.400336
Local:           +2.037091
--------------------------
Free energy:   -2745.900412
Extrapolated:  -2745.700244

Showing only first 2 kpts
 Kpt  Band  Eigenvalues  Occupancy
  0   199     -5.76724    1.99725
  0   200     -5.69415    1.99430
  0   201     -5.44462    1.93298
  0   202     -5.15068    1.20813

  1   199     -5.76431    1.99717
  1   200     -5.57208    1.98080
  1   201     -5.41979    1.91490
  1   202     -4.97799    0.42684


Fermi level: -5.10843

No gap

Forces in eV/Ang:
  0 Cu   -0.00577    0.00333   -0.05940
  1 Cu   -0.00769   -0.01677   -0.03101
  2 Cu   -0.01012    0.00259   -0.04573
  3 Cu   -0.00048    0.00027   -0.06231
  4 Cu   -0.02270   -0.00710   -0.06621
  5 Cu   -0.01748   -0.00838   -0.04179
  6 Cu   -0.00214   -0.01074   -0.05272
  7 Cu   -0.00902   -0.00336   -0.03913
  8 Cu    0.00086   -0.00928   -0.08601
  9 Cu   -0.01891    0.01092   -0.03058
 10 Cu    0.00135   -0.00078    0.00035
 11 Cu    0.00029   -0.00339   -0.05652
 12 Cu    0.00847    0.00390   -0.08601
 13 Cu   -0.01566   -0.02021   -0.02633
 14 Cu    0.01212    0.00262   -0.04918
 15 Cu    0.00308    0.00144   -0.05652
 16 Cu    0.00498    0.00894   -0.06037
 17 Cu   -0.00207    0.00119   -0.02493
 18 Cu    0.00103   -0.00059   -0.06599
 19 Cu    0.00077    0.10805    0.33005
 20 Cu    0.00003   -0.00002   -0.05848
 21 Cu   -0.00148    0.01933   -0.04179
 22 Cu    0.00823    0.00722   -0.05272
 23 Cu    0.09794   -0.05655    0.34594
 24 Cu   -0.00520    0.02321   -0.06621
 25 Cu    0.01155   -0.00667   -0.03678
 26 Cu   -0.00007    0.00004   -0.01100
 27 Cu   -0.00160    0.00949   -0.03913
 28 Cu    0.01963   -0.01133   -0.09302
 29 Cu    0.00967    0.02367   -0.02633
 30 Cu    0.00379   -0.01180   -0.04918
 31 Cu    0.01056   -0.00610   -0.02882
 32 Cu   -0.00525   -0.00878   -0.06037
 33 Cu    0.01068    0.01504   -0.03101
 34 Cu   -0.00730    0.00747   -0.04573
 35 Cu   -0.09319   -0.05469    0.33005
 36 O     0.00200   -0.00116    0.65816

BFGS:    3 21:13:04    -2745.700244        0.6582
System changes: positions 

Initializing position-dependent things.

Density initialized from wave functions
                                          
                                          
                                          
                                          
                                          
                   O                      
          Cu    Cu     Cu                 
           CCu    Cu    Cu                
             Cu  Cu Cu Cu Cu              
             Cu    Cu    Cu               
              Cu     Cu    Cu             
             Cu     Cu    Cu              
               Cu     Cu    Cu            
                 Cu    Cu     Cu          
          Cu    Cu    Cu                  
            Cu    Cu    Cu                
             Cu     Cu    Cu              
                                          
                                          
                                          
                                          

Positions:
   0 Cu     0.000000    0.000000    9.999999    ( 0.0000,  0.0000,  0.0000)
   1 Cu     1.303035    0.752307   12.127846    ( 0.0000,  0.0000,  0.0000)
   2 Cu    -0.000528    1.503224   14.256802    ( 0.0000,  0.0000,  0.0000)
   3 Cu     0.002134   -0.001232   16.388275    ( 0.0000,  0.0000,  0.0000)
   4 Cu    -1.303035    2.256922    9.999999    ( 0.0000,  0.0000,  0.0000)
   5 Cu     0.000000    3.009230   12.127846    ( 0.0000,  0.0000,  0.0000)
   6 Cu    -1.304700    3.761662   14.255605    ( 0.0000,  0.0000,  0.0000)
   7 Cu    -1.315160    2.250340   16.390206    ( 0.0000,  0.0000,  0.0000)
   8 Cu    -2.606069    4.513845    9.999999    ( 0.0000,  0.0000,  0.0000)
   9 Cu    -1.303035    5.266152   12.127846    ( 0.0000,  0.0000,  0.0000)
  10 Cu    -2.605692    6.018242   14.261828    ( 0.0000,  0.0000,  0.0000)
  11 Cu    -2.606232    4.515602   16.388849    ( 0.0000,  0.0000,  0.0000)
  12 Cu     2.606069    0.000000    9.999999    ( 0.0000,  0.0000,  0.0000)
  13 Cu     3.909104    0.752307   12.127846    ( 0.0000,  0.0000,  0.0000)
  14 Cu     2.607122    1.503121   14.256248    ( 0.0000,  0.0000,  0.0000)
  15 Cu     2.604466   -0.000738   16.388849    ( 0.0000,  0.0000,  0.0000)
  16 Cu     1.303035    2.256922    9.999999    ( 0.0000,  0.0000,  0.0000)
  17 Cu     2.606069    3.009230   12.127846    ( 0.0000,  0.0000,  0.0000)
  18 Cu     1.303316    3.761375   14.239194    ( 0.0000,  0.0000,  0.0000)
  19 Cu     1.303007    2.132689   16.362021    ( 0.0000,  0.0000,  0.0000)
  20 Cu     0.000000    4.513845    9.999999    ( 0.0000,  0.0000,  0.0000)
  21 Cu     1.303035    5.266152   12.127846    ( 0.0000,  0.0000,  0.0000)
  22 Cu    -0.000941    6.019839   14.255605    ( 0.0000,  0.0000,  0.0000)
  23 Cu    -0.107105    4.575682   16.363566    ( 0.0000,  0.0000,  0.0000)
  24 Cu     5.212139    0.000000    9.999999    ( 0.0000,  0.0000,  0.0000)
  25 Cu     6.515174    0.752307   12.127846    ( 0.0000,  0.0000,  0.0000)
  26 Cu     5.212050    1.504666   14.261332    ( 0.0000,  0.0000,  0.0000)
  27 Cu     5.211777    0.013792   16.390206    ( 0.0000,  0.0000,  0.0000)
  28 Cu     3.909104    2.256922    9.999999    ( 0.0000,  0.0000,  0.0000)
  29 Cu     5.212139    3.009230   12.127846    ( 0.0000,  0.0000,  0.0000)
  30 Cu     3.910924    3.761373   14.256248    ( 0.0000,  0.0000,  0.0000)
  31 Cu     3.921644    2.249682   16.391325    ( 0.0000,  0.0000,  0.0000)
  32 Cu     2.606069    4.513845    9.999999    ( 0.0000,  0.0000,  0.0000)
  33 Cu     3.909104    5.266152   12.127846    ( 0.0000,  0.0000,  0.0000)
  34 Cu     2.607010    6.019612   14.256802    ( 0.0000,  0.0000,  0.0000)
  35 Cu     2.713645    4.575986   16.362021    ( 0.0000,  0.0000,  0.0000)
  36 O      1.303292    3.761388   17.386065    ( 0.0000,  0.0000,  0.0000)

Unit cell:
           periodic     x           y           z      points  spacing
  1. axis:    yes    7.818208    0.000000    0.000000    36     0.1881
  2. axis:    yes   -3.909104    6.770767    0.000000    36     0.1881
  3. axis:    no     0.000000    0.000000   26.383539   148     0.1783

  Lengths:   7.818208   7.818208  26.383539
  Angles:   90.000000  90.000000 120.000000

Effective grid spacing dv^(1/3) = 0.1938

     iter     time        total  log10-change:
                         energy  eigst   dens
iter:   1 21:13:34 -2745.840466  -2.43
iter:   2 21:13:46 -2745.758762  -3.13  -2.64
iter:   3 21:13:58 -2745.732068c -3.91  -2.82
iter:   4 21:14:10 -2745.723178c -3.81  -3.14
iter:   5 21:14:22 -2745.722543c -4.42  -3.57
iter:   6 21:14:33 -2745.721033c -4.13  -3.52
iter:   7 21:14:45 -2745.720939c -4.73  -3.75
iter:   8 21:14:57 -2745.720906c -5.34  -3.89
iter:   9 21:15:09 -2745.720881c -5.36  -3.99
iter:  10 21:15:21 -2745.720845c -5.66  -4.19c
iter:  11 21:15:33 -2745.720833c -6.43  -4.37c
iter:  12 21:15:45 -2745.720825c -5.92  -4.44c
iter:  13 21:15:57 -2745.720806c -6.49  -4.68c
iter:  14 21:16:09 -2745.720803c -6.54  -4.70c
iter:  15 21:16:21 -2745.720801c -7.25  -4.83c
iter:  16 21:16:32 -2745.720789c -7.05  -4.91c
iter:  17 21:16:44 -2745.720792c -7.01  -5.04c
iter:  18 21:16:56 -2745.720796c -7.61c -5.19c

Converged after 18 iterations.

Dipole moment: (-2.948801, -6.410630, -0.183796) |e|*Ang

Energy contributions relative to reference atoms: (reference = -1622813.118581)

Kinetic:       +238.722166
Potential:     -276.886324
External:        +0.000000
XC:            -2709.388033
Entropy (-ST):   -0.400634
Local:           +2.031711
--------------------------
Free energy:   -2745.921113
Extrapolated:  -2745.720796

Showing only first 2 kpts
 Kpt  Band  Eigenvalues  Occupancy
  0   199     -5.78262    1.99724
  0   200     -5.71321    1.99447
  0   201     -5.46048    1.93294
  0   202     -5.16697    1.20996

  1   199     -5.78304    1.99725
  1   200     -5.59063    1.98130
  1   201     -5.43534    1.91460
  1   202     -4.99515    0.43103


Fermi level: -5.12435

No gap

Forces in eV/Ang:
  0 Cu   -0.00591    0.00341   -0.05932
  1 Cu   -0.00773   -0.01703   -0.03366
  2 Cu    0.00629    0.01052   -0.02059
  3 Cu   -0.00488    0.00282   -0.05645
  4 Cu   -0.02204   -0.00674   -0.06619
  5 Cu   -0.01791   -0.00891   -0.04841
  6 Cu    0.01363    0.00012   -0.02481
  7 Cu    0.02209    0.01330   -0.03391
  8 Cu    0.00086   -0.00935   -0.08588
  9 Cu   -0.01929    0.01114   -0.03384
 10 Cu    0.00010   -0.00006   -0.00596
 11 Cu    0.00111   -0.00625   -0.05067
 12 Cu    0.00853    0.00393   -0.08588
 13 Cu   -0.01492   -0.01950   -0.03085
 14 Cu   -0.00579    0.01098   -0.02280
 15 Cu    0.00596    0.00216   -0.05067
 16 Cu    0.00509    0.00940   -0.05997
 17 Cu   -0.00138    0.00080   -0.03146
 18 Cu   -0.00009    0.00005   -0.00511
 19 Cu    0.00131    0.27269    0.40702
 20 Cu    0.00036   -0.00021   -0.05807
 21 Cu   -0.00124    0.01997   -0.04841
 22 Cu    0.00671   -0.01186   -0.02481
 23 Cu    0.23967   -0.13838    0.41916
 24 Cu   -0.00519    0.02246   -0.06619
 25 Cu    0.01083   -0.00625   -0.04101
 26 Cu    0.00018   -0.00010   -0.01253
 27 Cu   -0.00047   -0.02578   -0.03391
 28 Cu    0.01879   -0.01085   -0.09296
 29 Cu    0.00943    0.02267   -0.03085
 30 Cu   -0.01240   -0.00048   -0.02280
 31 Cu   -0.02159    0.01246   -0.02499
 32 Cu   -0.00560   -0.00911   -0.05997
 33 Cu    0.01088    0.01521   -0.03366
 34 Cu   -0.00597   -0.01071   -0.02059
 35 Cu   -0.23550   -0.13749    0.40702
 36 O     0.00560   -0.00323    0.36678

BFGS:    4 21:17:03    -2745.720796        0.5023
System changes: positions 

Initializing position-dependent things.

Density initialized from wave functions
                                          
                                          
                                          
                                          
                                          
                   O                      
          Cu    Cu     Cu                 
            Cu    Cu    Cu                
           Cu    Cu    Cu                 
             Cu    CCu   CCu              
              Cu     Cu    Cu             
             Cu     Cu    Cu              
               Cu     Cu    Cu            
                 Cu    Cu     Cu          
          Cu    Cu    Cu                  
            Cu    Cu    Cu                
             Cu     Cu    Cu              
                                          
                                          
                                          
                                          

Positions:
   0 Cu     0.000000    0.000000    9.999999    ( 0.0000,  0.0000,  0.0000)
   1 Cu     1.303035    0.752307   12.127846    ( 0.0000,  0.0000,  0.0000)
   2 Cu    -0.000885    1.503397   14.253770    ( 0.0000,  0.0000,  0.0000)
   3 Cu     0.002302   -0.001329   16.383171    ( 0.0000,  0.0000,  0.0000)
   4 Cu    -1.303035    2.256922    9.999999    ( 0.0000,  0.0000,  0.0000)
   5 Cu     0.000000    3.009230   12.127846    ( 0.0000,  0.0000,  0.0000)
   6 Cu    -1.304696    3.761220   14.252003    ( 0.0000,  0.0000,  0.0000)
   7 Cu    -1.316596    2.249662   16.386964    ( 0.0000,  0.0000,  0.0000)
   8 Cu    -2.606069    4.513845    9.999999    ( 0.0000,  0.0000,  0.0000)
   9 Cu    -1.303035    5.266152   12.127846    ( 0.0000,  0.0000,  0.0000)
  10 Cu    -2.605580    6.018177   14.261786    ( 0.0000,  0.0000,  0.0000)
  11 Cu    -2.606213    4.515561   16.384224    ( 0.0000,  0.0000,  0.0000)
  12 Cu     2.606069    0.000000    9.999999    ( 0.0000,  0.0000,  0.0000)
  13 Cu     3.909104    0.752307   12.127846    ( 0.0000,  0.0000,  0.0000)
  14 Cu     2.607651    1.503291   14.252936    ( 0.0000,  0.0000,  0.0000)
  15 Cu     2.604511   -0.000734   16.384224    ( 0.0000,  0.0000,  0.0000)
  16 Cu     1.303035    2.256922    9.999999    ( 0.0000,  0.0000,  0.0000)
  17 Cu     2.606069    3.009230   12.127846    ( 0.0000,  0.0000,  0.0000)
  18 Cu     1.303397    3.761328   14.233673    ( 0.0000,  0.0000,  0.0000)
  19 Cu     1.303078    2.130979   16.383133    ( 0.0000,  0.0000,  0.0000)
  20 Cu     0.000000    4.513845    9.999999    ( 0.0000,  0.0000,  0.0000)
  21 Cu     1.303035    5.266152   12.127846    ( 0.0000,  0.0000,  0.0000)
  22 Cu    -0.000556    6.020057   14.252003    ( 0.0000,  0.0000,  0.0000)
  23 Cu    -0.108290    4.576366   16.385827    ( 0.0000,  0.0000,  0.0000)
  24 Cu     5.212139    0.000000    9.999999    ( 0.0000,  0.0000,  0.0000)
  25 Cu     6.515174    0.752307   12.127846    ( 0.0000,  0.0000,  0.0000)
  26 Cu     5.212038    1.504673   14.260582    ( 0.0000,  0.0000,  0.0000)
  27 Cu     5.211647    0.015374   16.386964    ( 0.0000,  0.0000,  0.0000)
  28 Cu     3.909104    2.256922    9.999999    ( 0.0000,  0.0000,  0.0000)
  29 Cu     5.212139    3.009230   12.127846    ( 0.0000,  0.0000,  0.0000)
  30 Cu     3.911041    3.760829   14.252936    ( 0.0000,  0.0000,  0.0000)
  31 Cu     3.923211    2.248778   16.388904    ( 0.0000,  0.0000,  0.0000)
  32 Cu     2.606069    4.513845    9.999999    ( 0.0000,  0.0000,  0.0000)
  33 Cu     3.909104    5.266152   12.127846    ( 0.0000,  0.0000,  0.0000)
  34 Cu     2.606682    6.019835   14.253770    ( 0.0000,  0.0000,  0.0000)
  35 Cu     2.715161    4.576779   16.383133    ( 0.0000,  0.0000,  0.0000)
  36 O      1.303616    3.761202   17.452288    ( 0.0000,  0.0000,  0.0000)

Unit cell:
           periodic     x           y           z      points  spacing
  1. axis:    yes    7.818208    0.000000    0.000000    36     0.1881
  2. axis:    yes   -3.909104    6.770767    0.000000    36     0.1881
  3. axis:    no     0.000000    0.000000   26.383539   148     0.1783

  Lengths:   7.818208   7.818208  26.383539
  Angles:   90.000000  90.000000 120.000000

Effective grid spacing dv^(1/3) = 0.1938

     iter     time        total  log10-change:
                         energy  eigst   dens
iter:   1 21:17:33 -2746.201109  -1.81
iter:   2 21:17:45 -2745.886171  -2.51  -2.33
iter:   3 21:17:57 -2745.779232  -3.45  -2.55
iter:   4 21:18:09 -2745.758137c -3.23  -2.90
iter:   5 21:18:21 -2745.757522c -3.98  -3.31
iter:   6 21:18:33 -2745.751045c -3.72  -3.20
iter:   7 21:18:45 -2745.750827c -4.03  -3.52
iter:   8 21:18:57 -2745.750751c -4.71  -3.60
iter:   9 21:19:09 -2745.750707c -5.17  -3.76
iter:  10 21:19:21 -2745.750509c -5.13  -3.88
iter:  11 21:19:33 -2745.750521c -5.45  -4.01c
iter:  12 21:19:45 -2745.750507c -5.56  -4.17c
iter:  13 21:19:57 -2745.750494c -5.76  -4.24c
iter:  14 21:20:09 -2745.750440c -6.01  -4.44c
iter:  15 21:20:21 -2745.750438c -6.45  -4.55c
iter:  16 21:20:33 -2745.750434c -6.58  -4.69c
iter:  17 21:20:45 -2745.750445c -7.03  -4.79c
iter:  18 21:20:57 -2745.750444c -7.38  -4.89c
iter:  19 21:21:09 -2745.750446c -7.54c -4.94c

Converged after 19 iterations.

Dipole moment: (-2.858794, -6.461707, -0.211701) |e|*Ang

Energy contributions relative to reference atoms: (reference = -1622813.118581)

Kinetic:       +236.320390
Potential:     -274.933806
External:        +0.000000
XC:            -2708.958405
Entropy (-ST):   -0.401613
Local:           +2.022181
--------------------------
Free energy:   -2745.951252
Extrapolated:  -2745.750446

Showing only first 2 kpts
 Kpt  Band  Eigenvalues  Occupancy
  0   199     -5.81199    1.99724
  0   200     -5.74766    1.99476
  0   201     -5.48997    1.93313
  0   202     -5.19829    1.22001

  1   199     -5.81727    1.99738
  1   200     -5.62448    1.98214
  1   201     -5.46397    1.91412
  1   202     -5.02868    0.44584


Fermi level: -5.15356

No gap

Forces in eV/Ang:
  0 Cu   -0.00613    0.00354   -0.05990
  1 Cu   -0.00783   -0.01874   -0.03974
  2 Cu    0.03892    0.02253    0.03838
  3 Cu   -0.01082    0.00625   -0.04789
  4 Cu   -0.02097   -0.00633   -0.06676
  5 Cu   -0.01920   -0.01019   -0.06121
  6 Cu    0.04098    0.02335    0.03842
  7 Cu    0.06342    0.03486   -0.02428
  8 Cu    0.00090   -0.00922   -0.08626
  9 Cu   -0.02108    0.01217   -0.04112
 10 Cu   -0.00191    0.00111   -0.02006
 11 Cu    0.00235   -0.00853   -0.04356
 12 Cu    0.00843    0.00383   -0.08626
 13 Cu   -0.01381   -0.01823   -0.03954
 14 Cu   -0.04088    0.02355    0.03830
 15 Cu    0.00856    0.00223   -0.04356
 16 Cu    0.00519    0.00961   -0.06042
 17 Cu    0.00061   -0.00036   -0.04425
 18 Cu   -0.00181    0.00104    0.11899
 19 Cu    0.00195    0.49523    0.37911
 20 Cu    0.00040   -0.00023   -0.05852
 21 Cu   -0.00077    0.02172   -0.06121
 22 Cu    0.00027   -0.04716    0.03842
 23 Cu    0.42725   -0.24667    0.37621
 24 Cu   -0.00500    0.02133   -0.06676
 25 Cu    0.00987   -0.00570   -0.04908
 26 Cu    0.00044   -0.00026   -0.01031
 27 Cu    0.00152   -0.07235   -0.02428
 28 Cu    0.01750   -0.01010   -0.09326
 29 Cu    0.00889    0.02107   -0.03954
 30 Cu   -0.04083    0.02362    0.03830
 31 Cu   -0.06450    0.03724   -0.01778
 32 Cu   -0.00573   -0.00929   -0.06042
 33 Cu    0.01231    0.01615   -0.03974
 34 Cu   -0.00005   -0.04498    0.03838
 35 Cu   -0.42791   -0.24930    0.37911
 36 O     0.00284   -0.00164   -0.20838

BFGS:    5 21:21:16    -2745.750446        0.6237
System changes: positions 

Initializing position-dependent things.

Density initialized from wave functions
                                          
                                          
                                          
                                          
                                          
                   O                      
          Cu    Cu     Cu                 
            Cu    Cu    Cu                
           Cu    Cu    Cu                 
             Cu    CCu   CCu              
              Cu     Cu    Cu             
             Cu     Cu    Cu              
               Cu     Cu    Cu            
                 Cu    Cu     Cu          
          Cu    Cu    Cu                  
            Cu    Cu    Cu                
             Cu     Cu    Cu              
                                          
                                          
                                          
                                          

Positions:
   0 Cu     0.000000    0.000000    9.999999    ( 0.0000,  0.0000,  0.0000)
   1 Cu     1.303035    0.752307   12.127846    ( 0.0000,  0.0000,  0.0000)
   2 Cu    -0.000474    1.503779   14.253266    ( 0.0000,  0.0000,  0.0000)
   3 Cu     0.002192   -0.001265   16.380729    ( 0.0000,  0.0000,  0.0000)
   4 Cu    -1.303035    2.256922    9.999999    ( 0.0000,  0.0000,  0.0000)
   5 Cu     0.000000    3.009230   12.127846    ( 0.0000,  0.0000,  0.0000)
   6 Cu    -1.304119    3.761382   14.251303    ( 0.0000,  0.0000,  0.0000)
   7 Cu    -1.316135    2.249953   16.385510    ( 0.0000,  0.0000,  0.0000)
   8 Cu    -2.606069    4.513845    9.999999    ( 0.0000,  0.0000,  0.0000)
   9 Cu    -1.303035    5.266152   12.127846    ( 0.0000,  0.0000,  0.0000)
  10 Cu    -2.605570    6.018171   14.261478    ( 0.0000,  0.0000,  0.0000)
  11 Cu    -2.606173    4.515412   16.382005    ( 0.0000,  0.0000,  0.0000)
  12 Cu     2.606069    0.000000    9.999999    ( 0.0000,  0.0000,  0.0000)
  13 Cu     3.909104    0.752307   12.127846    ( 0.0000,  0.0000,  0.0000)
  14 Cu     2.607270    1.503687   14.252335    ( 0.0000,  0.0000,  0.0000)
  15 Cu     2.604660   -0.000694   16.382005    ( 0.0000,  0.0000,  0.0000)
  16 Cu     1.303035    2.256922    9.999999    ( 0.0000,  0.0000,  0.0000)
  17 Cu     2.606069    3.009230   12.127846    ( 0.0000,  0.0000,  0.0000)
  18 Cu     1.303399    3.761327   14.233569    ( 0.0000,  0.0000,  0.0000)
  19 Cu     1.303129    2.138323   16.396029    ( 0.0000,  0.0000,  0.0000)
  20 Cu     0.000000    4.513845    9.999999    ( 0.0000,  0.0000,  0.0000)
  21 Cu     1.303035    5.266152   12.127846    ( 0.0000,  0.0000,  0.0000)
  22 Cu    -0.000407    6.019477   14.251303    ( 0.0000,  0.0000,  0.0000)
  23 Cu    -0.101861    4.572654   16.399062    ( 0.0000,  0.0000,  0.0000)
  24 Cu     5.212139    0.000000    9.999999    ( 0.0000,  0.0000,  0.0000)
  25 Cu     6.515174    0.752307   12.127846    ( 0.0000,  0.0000,  0.0000)
  26 Cu     5.212041    1.504672   14.260175    ( 0.0000,  0.0000,  0.0000)
  27 Cu     5.211624    0.014830   16.385510    ( 0.0000,  0.0000,  0.0000)
  28 Cu     3.909104    2.256922    9.999999    ( 0.0000,  0.0000,  0.0000)
  29 Cu     5.212139    3.009230   12.127846    ( 0.0000,  0.0000,  0.0000)
  30 Cu     3.910508    3.760962   14.252335    ( 0.0000,  0.0000,  0.0000)
  31 Cu     3.922780    2.249027   16.387826    ( 0.0000,  0.0000,  0.0000)
  32 Cu     2.606069    4.513845    9.999999    ( 0.0000,  0.0000,  0.0000)
  33 Cu     3.909104    5.266152   12.127846    ( 0.0000,  0.0000,  0.0000)
  34 Cu     2.606557    6.019288   14.253266    ( 0.0000,  0.0000,  0.0000)
  35 Cu     2.708827    4.573063   16.396029    ( 0.0000,  0.0000,  0.0000)
  36 O      1.303739    3.761131   17.470832    ( 0.0000,  0.0000,  0.0000)

Unit cell:
           periodic     x           y           z      points  spacing
  1. axis:    yes    7.818208    0.000000    0.000000    36     0.1881
  2. axis:    yes   -3.909104    6.770767    0.000000    36     0.1881
  3. axis:    no     0.000000    0.000000   26.383539   148     0.1783

  Lengths:   7.818208   7.818208  26.383539
  Angles:   90.000000  90.000000 120.000000

Effective grid spacing dv^(1/3) = 0.1938

     iter     time        total  log10-change:
                         energy  eigst   dens
iter:   1 21:21:46 -2745.802993  -2.66
iter:   2 21:21:58 -2745.780962  -3.43  -2.84
iter:   3 21:22:10 -2745.770063c -4.45  -3.11
iter:   4 21:22:22 -2745.769650c -4.72  -3.56
iter:   5 21:22:34 -2745.769569c -4.79  -3.73
iter:   6 21:22:46 -2745.769490c -5.37  -4.03c
iter:   7 21:22:58 -2745.769573c -5.17  -4.12c
iter:   8 21:23:10 -2745.769560c -5.99  -4.19c
iter:   9 21:23:22 -2745.769503c -6.32  -4.39c
iter:  10 21:23:34 -2745.769493c -5.58  -4.50c
iter:  11 21:23:46 -2745.769478c -6.45  -4.62c
iter:  12 21:23:58 -2745.769477c -7.13  -4.84c
iter:  13 21:24:10 -2745.769477c -7.82c -4.91c

Converged after 13 iterations.

Dipole moment: (-2.863762, -6.460966, -0.215190) |e|*Ang

Energy contributions relative to reference atoms: (reference = -1622813.118581)

Kinetic:       +235.875785
Potential:     -274.595088
External:        +0.000000
XC:            -2708.872548
Entropy (-ST):   -0.402060
Local:           +2.023404
--------------------------
Free energy:   -2745.970507
Extrapolated:  -2745.769477

Showing only first 2 kpts
 Kpt  Band  Eigenvalues  Occupancy
  0   199     -5.81678    1.99727
  0   200     -5.75203    1.99479
  0   201     -5.49401    1.93339
  0   202     -5.20342    1.22715

  1   199     -5.82205    1.99741
  1   200     -5.62920    1.98233
  1   201     -5.46727    1.91386
  1   202     -5.03488    0.45481


Fermi level: -5.15718

No gap

Forces in eV/Ang:
  0 Cu   -0.00624    0.00360   -0.05937
  1 Cu   -0.00787   -0.01884   -0.04219
  2 Cu    0.04256    0.01982    0.05770
  3 Cu   -0.00745    0.00430   -0.03921
  4 Cu   -0.02052   -0.00622   -0.06618
  5 Cu   -0.01898   -0.01015   -0.06330
  6 Cu    0.03967    0.02822    0.05899
  7 Cu    0.05554    0.03010   -0.01924
  8 Cu    0.00098   -0.00915   -0.08564
  9 Cu   -0.02125    0.01227   -0.04399
 10 Cu   -0.00205    0.00118   -0.02342
 11 Cu    0.00191   -0.00387   -0.03679
 12 Cu    0.00841    0.00373   -0.08564
 13 Cu   -0.01385   -0.01800   -0.04033
 14 Cu   -0.04468    0.02045    0.05865
 15 Cu    0.00431    0.00028   -0.03679
 16 Cu    0.00516    0.00964   -0.06003
 17 Cu    0.00065   -0.00038   -0.04642
 18 Cu   -0.00187    0.00108    0.13991
 19 Cu    0.00189    0.38764    0.27297
 20 Cu    0.00037   -0.00021   -0.05825
 21 Cu   -0.00070    0.02151   -0.06330
 22 Cu   -0.00461   -0.04847    0.05899
 23 Cu    0.32939   -0.19018    0.27051
 24 Cu   -0.00487    0.02089   -0.06618
 25 Cu    0.00996   -0.00575   -0.04966
 26 Cu    0.00027   -0.00016   -0.00809
 27 Cu    0.00171   -0.06315   -0.01924
 28 Cu    0.01702   -0.00982   -0.09252
 29 Cu    0.00867    0.02099   -0.04033
 30 Cu   -0.04005    0.02847    0.05865
 31 Cu   -0.05687    0.03283   -0.01356
 32 Cu   -0.00577   -0.00929   -0.06003
 33 Cu    0.01238    0.01624   -0.04219
 34 Cu    0.00412   -0.04677    0.05770
 35 Cu   -0.33476   -0.19546    0.27297
 36 O     0.01512   -0.00873   -0.08459

BFGS:    6 21:24:16    -2745.769477        0.4741
System changes: positions 

Initializing position-dependent things.

Density initialized from wave functions
                                          
                                          
                                          
                                          
                                          
                   O                      
          Cu    Cu     Cu                 
            Cu    Cu    Cu                
           Cu    Cu    Cu                 
             Cu    CCu   CCu              
              Cu     Cu    Cu             
             Cu     Cu    Cu              
               Cu     Cu    Cu            
                 Cu    Cu     Cu          
          Cu    Cu    Cu                  
            Cu    Cu    Cu                
             Cu     Cu    Cu              
                                          
                                          
                                          
                                          

Positions:
   0 Cu     0.000000    0.000000    9.999999    ( 0.0000,  0.0000,  0.0000)
   1 Cu     1.303035    0.752307   12.127846    ( 0.0000,  0.0000,  0.0000)
   2 Cu     0.002248    1.505736   14.252281    ( 0.0000,  0.0000,  0.0000)
   3 Cu     0.001809   -0.001045   16.368124    ( 0.0000,  0.0000,  0.0000)
   4 Cu    -1.303035    2.256922    9.999999    ( 0.0000,  0.0000,  0.0000)
   5 Cu     0.000000    3.009230   12.127846    ( 0.0000,  0.0000,  0.0000)
   6 Cu    -1.300895    3.762774   14.249373    ( 0.0000,  0.0000,  0.0000)
   7 Cu    -1.313985    2.251307   16.378012    ( 0.0000,  0.0000,  0.0000)
   8 Cu    -2.606069    4.513845    9.999999    ( 0.0000,  0.0000,  0.0000)
   9 Cu    -1.303035    5.266152   12.127846    ( 0.0000,  0.0000,  0.0000)
  10 Cu    -2.605533    6.018150   14.259482    ( 0.0000,  0.0000,  0.0000)
  11 Cu    -2.605977    4.514935   16.370473    ( 0.0000,  0.0000,  0.0000)
  12 Cu     2.606069    0.000000    9.999999    ( 0.0000,  0.0000,  0.0000)
  13 Cu     3.909104    0.752307   12.127846    ( 0.0000,  0.0000,  0.0000)
  14 Cu     2.604685    1.505695   14.250910    ( 0.0000,  0.0000,  0.0000)
  15 Cu     2.605171   -0.000625   16.370473    ( 0.0000,  0.0000,  0.0000)
  16 Cu     1.303035    2.256922    9.999999    ( 0.0000,  0.0000,  0.0000)
  17 Cu     2.606069    3.009230   12.127846    ( 0.0000,  0.0000,  0.0000)
  18 Cu     1.303396    3.761329   14.235179    ( 0.0000,  0.0000,  0.0000)
  19 Cu     1.303410    2.171088   16.458240    ( 0.0000,  0.0000,  0.0000)
  20 Cu     0.000000    4.513845    9.999999    ( 0.0000,  0.0000,  0.0000)
  21 Cu     1.303035    5.266152   12.127846    ( 0.0000,  0.0000,  0.0000)
  22 Cu    -0.000001    6.015988   14.249373    ( 0.0000,  0.0000,  0.0000)
  23 Cu    -0.073462    4.556258   16.463079    ( 0.0000,  0.0000,  0.0000)
  24 Cu     5.212139    0.000000    9.999999    ( 0.0000,  0.0000,  0.0000)
  25 Cu     6.515174    0.752307   12.127846    ( 0.0000,  0.0000,  0.0000)
  26 Cu     5.212043    1.504670   14.258130    ( 0.0000,  0.0000,  0.0000)
  27 Cu     5.211527    0.012290   16.378012    ( 0.0000,  0.0000,  0.0000)
  28 Cu     3.909104    2.256922    9.999999    ( 0.0000,  0.0000,  0.0000)
  29 Cu     5.212139    3.009230   12.127846    ( 0.0000,  0.0000,  0.0000)
  30 Cu     3.907477    3.762196   14.250910    ( 0.0000,  0.0000,  0.0000)
  31 Cu     3.920760    2.250193   16.382302    ( 0.0000,  0.0000,  0.0000)
  32 Cu     2.606069    4.513845    9.999999    ( 0.0000,  0.0000,  0.0000)
  33 Cu     3.909104    5.266152   12.127846    ( 0.0000,  0.0000,  0.0000)
  34 Cu     2.606223    6.015953   14.252281    ( 0.0000,  0.0000,  0.0000)
  35 Cu     2.680592    4.556437   16.458240    ( 0.0000,  0.0000,  0.0000)
  36 O      1.305314    3.760221   17.578387    ( 0.0000,  0.0000,  0.0000)

Unit cell:
           periodic     x           y           z      points  spacing
  1. axis:    yes    7.818208    0.000000    0.000000    36     0.1881
  2. axis:    yes   -3.909104    6.770767    0.000000    36     0.1881
  3. axis:    no     0.000000    0.000000   26.383539   148     0.1783

  Lengths:   7.818208   7.818208  26.383539
  Angles:   90.000000  90.000000 120.000000

Effective grid spacing dv^(1/3) = 0.1938

     iter     time        total  log10-change:
                         energy  eigst   dens
iter:   1 21:24:46 -2746.540442  -1.28
iter:   2 21:24:58 -2746.046221  -2.08  -2.18
iter:   3 21:25:10 -2745.822020  -3.07  -2.44
iter:   4 21:25:22 -2745.815598  -3.61  -2.88
iter:   5 21:25:34 -2745.813605c -3.12  -2.96
iter:   6 21:25:46 -2745.808587c -3.85  -3.31
iter:   7 21:25:58 -2745.812580c -3.76  -3.49
iter:   8 21:26:10 -2745.810689c -4.67  -3.51
iter:   9 21:26:22 -2745.809251c -4.64  -3.65
iter:  10 21:26:34 -2745.808868c -4.69  -3.84
iter:  11 21:26:46 -2745.808782c -5.50  -3.84
iter:  12 21:26:58 -2745.808688c -5.24  -3.99
iter:  13 21:27:10 -2745.808782c -5.17  -4.11c
iter:  14 21:27:22 -2745.808627c -5.86  -4.19c
iter:  15 21:27:34 -2745.808598c -5.88  -4.37c
iter:  16 21:27:46 -2745.808651c -6.16  -4.46c
iter:  17 21:27:58 -2745.808647c -6.18  -4.57c
iter:  18 21:28:10 -2745.808643c -6.75  -4.88c
iter:  19 21:28:22 -2745.808641c -7.80c -4.87c

Converged after 19 iterations.

Dipole moment: (-2.872123, -6.468509, -0.240722) |e|*Ang

Energy contributions relative to reference atoms: (reference = -1622813.118581)

Kinetic:       +233.274265
Potential:     -272.540240
External:        +0.000000
XC:            -2708.352409
Entropy (-ST):   -0.404412
Local:           +2.011949
--------------------------
Free energy:   -2746.010847
Extrapolated:  -2745.808641

Showing only first 2 kpts
 Kpt  Band  Eigenvalues  Occupancy
  0   199     -5.84899    1.99739
  0   200     -5.78396    1.99500
  0   201     -5.52260    1.93383
  0   202     -5.23883    1.26236

  1   199     -5.85577    1.99756
  1   200     -5.66363    1.98344
  1   201     -5.49345    1.91242
  1   202     -5.07504    0.49927


Fermi level: -5.18510

No gap

Forces in eV/Ang:
  0 Cu   -0.00708    0.00409   -0.06231
  1 Cu   -0.00787   -0.01745   -0.04720
  2 Cu    0.03776    0.00636    0.13147
  3 Cu    0.00337   -0.00195    0.03083
  4 Cu   -0.01885   -0.00583   -0.06803
  5 Cu   -0.01422   -0.00811   -0.06378
  6 Cu    0.02240    0.02984    0.13867
  7 Cu    0.03253    0.01567   -0.00266
  8 Cu    0.00109   -0.00931   -0.08798
  9 Cu   -0.02068    0.01194   -0.05065
 10 Cu   -0.00245    0.00141   -0.04216
 11 Cu   -0.00042    0.00876    0.02277
 12 Cu    0.00860    0.00371   -0.08798
 13 Cu   -0.01690   -0.01832   -0.03935
 14 Cu   -0.04021    0.00673    0.13705
 15 Cu   -0.00779   -0.00402    0.02277
 16 Cu    0.00519    0.00915   -0.06140
 17 Cu   -0.00250    0.00144   -0.04720
 18 Cu   -0.00192    0.00111    0.22933
 19 Cu    0.00436    0.24172    0.05367
 20 Cu   -0.00028    0.00016   -0.06008
 21 Cu   -0.00009    0.01637   -0.06378
 22 Cu   -0.01464   -0.03432    0.13867
 23 Cu    0.22573   -0.13033    0.06284
 24 Cu   -0.00438    0.01924   -0.06803
 25 Cu    0.01303   -0.00752   -0.04779
 26 Cu   -0.00053    0.00031    0.01145
 27 Cu    0.00270   -0.03601   -0.00266
 28 Cu    0.01510   -0.00872   -0.09345
 29 Cu    0.00742    0.02380   -0.03935
 30 Cu   -0.02593    0.03146    0.13705
 31 Cu   -0.03354    0.01936   -0.00509
 32 Cu   -0.00533   -0.00907   -0.06140
 33 Cu    0.01118    0.01554   -0.04720
 34 Cu    0.01337   -0.03588    0.13147
 35 Cu   -0.20715   -0.12463    0.05367
 36 O    -0.01350    0.00780   -0.19308

BFGS:    7 21:28:28    -2745.808641        0.2681
System changes: positions 

Initializing position-dependent things.

Density initialized from wave functions
                                          
                                          
                                          
                                          
                                          
                   O                      
          Cu    Cu     Cu                 
            Cu    Cu    Cu                
           Cu    Cu    Cu                 
             Cu    CCu   CCu              
              Cu     Cu    Cu             
             Cu     Cu    Cu              
               Cu     Cu    Cu            
                 Cu    Cu     Cu          
          Cu    Cu    Cu                  
            Cu    Cu    Cu                
             Cu     Cu    Cu              
                                          
                                          
                                          
                                          

Positions:
   0 Cu     0.000000    0.000000    9.999999    ( 0.0000,  0.0000,  0.0000)
   1 Cu     1.303035    0.752307   12.127846    ( 0.0000,  0.0000,  0.0000)
   2 Cu     0.003626    1.506294   14.254910    ( 0.0000,  0.0000,  0.0000)
   3 Cu     0.001736   -0.001002   16.366530    ( 0.0000,  0.0000,  0.0000)
   4 Cu    -1.303035    2.256922    9.999999    ( 0.0000,  0.0000,  0.0000)
   5 Cu     0.000000    3.009230   12.127846    ( 0.0000,  0.0000,  0.0000)
   6 Cu    -1.299722    3.763708   14.252007    ( 0.0000,  0.0000,  0.0000)
   7 Cu    -1.312565    2.252071   16.376747    ( 0.0000,  0.0000,  0.0000)
   8 Cu    -2.606069    4.513845    9.999999    ( 0.0000,  0.0000,  0.0000)
   9 Cu    -1.303035    5.266152   12.127846    ( 0.0000,  0.0000,  0.0000)
  10 Cu    -2.605589    6.018182   14.258255    ( 0.0000,  0.0000,  0.0000)
  11 Cu    -2.605940    4.514975   16.368907    ( 0.0000,  0.0000,  0.0000)
  12 Cu     2.606069    0.000000    9.999999    ( 0.0000,  0.0000,  0.0000)
  13 Cu     3.909104    0.752307   12.127846    ( 0.0000,  0.0000,  0.0000)
  14 Cu     2.603264    1.506272   14.253585    ( 0.0000,  0.0000,  0.0000)
  15 Cu     2.605155   -0.000677   16.368907    ( 0.0000,  0.0000,  0.0000)
  16 Cu     1.303035    2.256922    9.999999    ( 0.0000,  0.0000,  0.0000)
  17 Cu     2.606069    3.009230   12.127846    ( 0.0000,  0.0000,  0.0000)
  18 Cu     1.303346    3.761358   14.240717    ( 0.0000,  0.0000,  0.0000)
  19 Cu     1.303541    2.184283   16.470832    ( 0.0000,  0.0000,  0.0000)
  20 Cu     0.000000    4.513845    9.999999    ( 0.0000,  0.0000,  0.0000)
  21 Cu     1.303035    5.266152   12.127846    ( 0.0000,  0.0000,  0.0000)
  22 Cu    -0.000224    6.014505   14.252007    ( 0.0000,  0.0000,  0.0000)
  23 Cu    -0.061826    4.549540   16.476080    ( 0.0000,  0.0000,  0.0000)
  24 Cu     5.212139    0.000000    9.999999    ( 0.0000,  0.0000,  0.0000)
  25 Cu     6.515174    0.752307   12.127846    ( 0.0000,  0.0000,  0.0000)
  26 Cu     5.212037    1.504674   14.257952    ( 0.0000,  0.0000,  0.0000)
  27 Cu     5.211575    0.010679   16.376747    ( 0.0000,  0.0000,  0.0000)
  28 Cu     3.909104    2.256922    9.999999    ( 0.0000,  0.0000,  0.0000)
  29 Cu     5.212139    3.009230   12.127846    ( 0.0000,  0.0000,  0.0000)
  30 Cu     3.906267    3.763139   14.253585    ( 0.0000,  0.0000,  0.0000)
  31 Cu     3.919328    2.251020   16.381329    ( 0.0000,  0.0000,  0.0000)
  32 Cu     2.606069    4.513845    9.999999    ( 0.0000,  0.0000,  0.0000)
  33 Cu     3.909104    5.266152   12.127846    ( 0.0000,  0.0000,  0.0000)
  34 Cu     2.606428    6.014480   14.254910    ( 0.0000,  0.0000,  0.0000)
  35 Cu     2.669230    4.549726   16.470832    ( 0.0000,  0.0000,  0.0000)
  36 O      1.305482    3.760124   17.588791    ( 0.0000,  0.0000,  0.0000)

Unit cell:
           periodic     x           y           z      points  spacing
  1. axis:    yes    7.818208    0.000000    0.000000    36     0.1881
  2. axis:    yes   -3.909104    6.770767    0.000000    36     0.1881
  3. axis:    no     0.000000    0.000000   26.383539   148     0.1783

  Lengths:   7.818208   7.818208  26.383539
  Angles:   90.000000  90.000000 120.000000

Effective grid spacing dv^(1/3) = 0.1938

     iter     time        total  log10-change:
                         energy  eigst   dens
iter:   1 21:28:58 -2745.834213  -2.50
iter:   2 21:29:10 -2745.822217  -3.49  -3.10
iter:   3 21:29:22 -2745.819495c -4.10  -3.24
iter:   4 21:29:34 -2745.818246c -4.48  -3.42
iter:   5 21:29:46 -2745.818151c -4.36  -3.58
iter:   6 21:29:58 -2745.817791c -4.86  -3.82
iter:   7 21:30:10 -2745.817667c -5.59  -3.96
iter:   8 21:30:22 -2745.817652c -5.82  -4.03c
iter:   9 21:30:34 -2745.817691c -6.23  -4.12c
iter:  10 21:30:46 -2745.817664c -6.14  -4.24c
iter:  11 21:30:57 -2745.817636c -6.64  -4.47c
iter:  12 21:31:09 -2745.817629c -7.05  -4.61c
iter:  13 21:31:21 -2745.817662c -6.18  -4.66c
iter:  14 21:31:33 -2745.817658c -7.08  -4.93c
iter:  15 21:31:45 -2745.817641c -6.88  -4.96c
iter:  16 21:31:57 -2745.817638c -7.30  -5.07c
iter:  17 21:32:09 -2745.817637c -7.81c -5.15c

Converged after 17 iterations.

Dipole moment: (-2.918220, -6.446752, -0.237160) |e|*Ang

Energy contributions relative to reference atoms: (reference = -1622813.118581)

Kinetic:       +233.391325
Potential:     -272.657634
External:        +0.000000
XC:            -2708.362117
Entropy (-ST):   -0.404660
Local:           +2.013119
--------------------------
Free energy:   -2746.019968
Extrapolated:  -2745.817637

Showing only first 2 kpts
 Kpt  Band  Eigenvalues  Occupancy
  0   199     -5.84633    1.99742
  0   200     -5.77966    1.99498
  0   201     -5.51855    1.93373
  0   202     -5.23612    1.26790

  1   199     -5.85272    1.99758
  1   200     -5.66055    1.98357
  1   201     -5.48889    1.91186
  1   202     -5.07319    0.50699


Fermi level: -5.18120

No gap

Forces in eV/Ang:
  0 Cu   -0.00722    0.00417   -0.06023
  1 Cu   -0.00776   -0.01473   -0.04431
  2 Cu    0.01519   -0.00332    0.11585
  3 Cu    0.00798   -0.00461    0.04784
  4 Cu   -0.01860   -0.00581   -0.06561
  5 Cu   -0.01221   -0.00687   -0.05225
  6 Cu    0.00265    0.01482    0.12747
  7 Cu    0.00390    0.00008    0.00480
  8 Cu    0.00116   -0.00932   -0.08582
  9 Cu   -0.01834    0.01059   -0.04770
 10 Cu   -0.00141    0.00081   -0.03612
 11 Cu   -0.00048    0.01184    0.03879
 12 Cu    0.00865    0.00366   -0.08582
 13 Cu   -0.01891   -0.01924   -0.03096
 14 Cu   -0.01646   -0.00312    0.12341
 15 Cu   -0.01050   -0.00550    0.03879
 16 Cu    0.00514    0.00898   -0.05921
 17 Cu   -0.00435    0.00251   -0.03569
 18 Cu   -0.00109    0.00063    0.19403
 19 Cu    0.00376    0.02609    0.00141
 20 Cu   -0.00047    0.00027   -0.05802
 21 Cu   -0.00015    0.01401   -0.05225
 22 Cu   -0.01151   -0.00971    0.12747
 23 Cu    0.02428   -0.01402    0.00727
 24 Cu   -0.00427    0.01901   -0.06561
 25 Cu    0.01495   -0.00863   -0.03962
 26 Cu   -0.00071    0.00041    0.01276
 27 Cu    0.00187   -0.00342    0.00480
 28 Cu    0.01489   -0.00859   -0.09089
 29 Cu    0.00721    0.02600   -0.03096
 30 Cu   -0.00553    0.01582    0.12341
 31 Cu   -0.00458    0.00265    0.00007
 32 Cu   -0.00520   -0.00894   -0.05921
 33 Cu    0.00888    0.01409   -0.04431
 34 Cu    0.01046   -0.01149    0.11585
 35 Cu   -0.02071   -0.01630    0.00141
 36 O    -0.02207    0.01274   -0.00513

BFGS:    8 21:32:16    -2745.817637        0.1940
System changes: positions 

Initializing position-dependent things.

Density initialized from wave functions
                                          
                                          
                                          
                                          
                                          
                   O                      
          Cu    Cu     Cu                 
            Cu    Cu    Cu                
           Cu    Cu    Cu                 
             Cu    CCu   CCu              
              Cu     Cu    Cu             
             Cu     Cu    Cu              
               Cu     Cu    Cu            
                 Cu    Cu     Cu          
          Cu    Cu    Cu                  
            Cu    Cu    Cu                
             Cu     Cu    Cu              
                                          
                                          
                                          
                                          

Positions:
   0 Cu     0.000000    0.000000    9.999999    ( 0.0000,  0.0000,  0.0000)
   1 Cu     1.303035    0.752307   12.127846    ( 0.0000,  0.0000,  0.0000)
   2 Cu     0.004328    1.506413   14.257864    ( 0.0000,  0.0000,  0.0000)
   3 Cu     0.001847   -0.001067   16.366948    ( 0.0000,  0.0000,  0.0000)
   4 Cu    -1.303035    2.256922    9.999999    ( 0.0000,  0.0000,  0.0000)
   5 Cu     0.000000    3.009230   12.127846    ( 0.0000,  0.0000,  0.0000)
   6 Cu    -1.299303    3.764264   14.255191    ( 0.0000,  0.0000,  0.0000)
   7 Cu    -1.312002    2.252337   16.376481    ( 0.0000,  0.0000,  0.0000)
   8 Cu    -2.606069    4.513845    9.999999    ( 0.0000,  0.0000,  0.0000)
   9 Cu    -1.303035    5.266152   12.127846    ( 0.0000,  0.0000,  0.0000)
  10 Cu    -2.605634    6.018208   14.257214    ( 0.0000,  0.0000,  0.0000)
  11 Cu    -2.605935    4.515194   16.369168    ( 0.0000,  0.0000,  0.0000)
  12 Cu     2.606069    0.000000    9.999999    ( 0.0000,  0.0000,  0.0000)
  13 Cu     3.909104    0.752307   12.127846    ( 0.0000,  0.0000,  0.0000)
  14 Cu     2.602523    1.506401   14.256698    ( 0.0000,  0.0000,  0.0000)
  15 Cu     2.604968   -0.000792   16.369168    ( 0.0000,  0.0000,  0.0000)
  16 Cu     1.303035    2.256922    9.999999    ( 0.0000,  0.0000,  0.0000)
  17 Cu     2.606069    3.009230   12.127846    ( 0.0000,  0.0000,  0.0000)
  18 Cu     1.303309    3.761379   14.246097    ( 0.0000,  0.0000,  0.0000)
  19 Cu     1.303649    2.189178   16.474878    ( 0.0000,  0.0000,  0.0000)
  20 Cu     0.000000    4.513845    9.999999    ( 0.0000,  0.0000,  0.0000)
  21 Cu     1.303035    5.266152   12.127846    ( 0.0000,  0.0000,  0.0000)
  22 Cu    -0.000495    6.013864   14.255191    ( 0.0000,  0.0000,  0.0000)
  23 Cu    -0.057540    4.547065   16.480328    ( 0.0000,  0.0000,  0.0000)
  24 Cu     5.212139    0.000000    9.999999    ( 0.0000,  0.0000,  0.0000)
  25 Cu     6.515174    0.752307   12.127846    ( 0.0000,  0.0000,  0.0000)
  26 Cu     5.212023    1.504682   14.258123    ( 0.0000,  0.0000,  0.0000)
  27 Cu     5.211626    0.010058   16.376481    ( 0.0000,  0.0000,  0.0000)
  28 Cu     3.909104    2.256922    9.999999    ( 0.0000,  0.0000,  0.0000)
  29 Cu     5.212139    3.009230   12.127846    ( 0.0000,  0.0000,  0.0000)
  30 Cu     3.905784    3.763716   14.256698    ( 0.0000,  0.0000,  0.0000)
  31 Cu     3.918745    2.251356   16.381059    ( 0.0000,  0.0000,  0.0000)
  32 Cu     2.606069    4.513845    9.999999    ( 0.0000,  0.0000,  0.0000)
  33 Cu     3.909104    5.266152   12.127846    ( 0.0000,  0.0000,  0.0000)
  34 Cu     2.606676    6.013813   14.257864    ( 0.0000,  0.0000,  0.0000)
  35 Cu     2.665045    4.547185   16.474878    ( 0.0000,  0.0000,  0.0000)
  36 O      1.305128    3.760329   17.590904    ( 0.0000,  0.0000,  0.0000)

Unit cell:
           periodic     x           y           z      points  spacing
  1. axis:    yes    7.818208    0.000000    0.000000    36     0.1881
  2. axis:    yes   -3.909104    6.770767    0.000000    36     0.1881
  3. axis:    no     0.000000    0.000000   26.383539   148     0.1783

  Lengths:   7.818208   7.818208  26.383539
  Angles:   90.000000  90.000000 120.000000

Effective grid spacing dv^(1/3) = 0.1938

     iter     time        total  log10-change:
                         energy  eigst   dens
iter:   1 21:32:46 -2745.853581  -3.13
iter:   2 21:32:58 -2745.831691  -3.65  -2.87
iter:   3 21:33:10 -2745.821349c -4.61  -3.10
iter:   4 21:33:22 -2745.820609c -4.97  -3.57
iter:   5 21:33:34 -2745.820325c -4.91  -3.75
iter:   6 21:33:45 -2745.820363c -5.17  -4.07c
iter:   7 21:33:57 -2745.820370c -5.54  -4.20c
iter:   8 21:34:09 -2745.820345c -6.37  -4.39c
iter:   9 21:34:21 -2745.820315c -6.13  -4.50c
[...]
  12 Cu     2.606069    0.000000    9.999999    ( 0.0000,  0.0000,  0.0000)
  13 Cu     3.909104    0.752307   12.127846    ( 0.0000,  0.0000,  0.0000)
  14 Cu     2.601703    1.506240   14.265717    ( 0.0000,  0.0000,  0.0000)
  15 Cu     2.604192   -0.001195   16.372855    ( 0.0000,  0.0000,  0.0000)
  16 Cu     1.303035    2.256922    9.999999    ( 0.0000,  0.0000,  0.0000)
  17 Cu     2.606069    3.009230   12.127846    ( 0.0000,  0.0000,  0.0000)
  18 Cu     1.303236    3.761421   14.262083    ( 0.0000,  0.0000,  0.0000)
  19 Cu     1.303994    2.189316   16.475510    ( 0.0000,  0.0000,  0.0000)
  20 Cu     0.000000    4.513845    9.999999    ( 0.0000,  0.0000,  0.0000)
  21 Cu     1.303035    5.266152   12.127846    ( 0.0000,  0.0000,  0.0000)
  22 Cu    -0.001084    6.013411   14.264723    ( 0.0000,  0.0000,  0.0000)
  23 Cu    -0.057622    4.547113   16.481168    ( 0.0000,  0.0000,  0.0000)
  24 Cu     5.212139    0.000000    9.999999    ( 0.0000,  0.0000,  0.0000)
  25 Cu     6.515174    0.752307   12.127846    ( 0.0000,  0.0000,  0.0000)
  26 Cu     5.211981    1.504706   14.259000    ( 0.0000,  0.0000,  0.0000)
  27 Cu     5.211762    0.010225   16.377349    ( 0.0000,  0.0000,  0.0000)
  28 Cu     3.909104    2.256922    9.999999    ( 0.0000,  0.0000,  0.0000)
  29 Cu     5.212139    3.009230   12.127846    ( 0.0000,  0.0000,  0.0000)
  30 Cu     3.905513    3.764506   14.265717    ( 0.0000,  0.0000,  0.0000)
  31 Cu     3.918784    2.251334   16.381525    ( 0.0000,  0.0000,  0.0000)
  32 Cu     2.606069    4.513845    9.999999    ( 0.0000,  0.0000,  0.0000)
  33 Cu     3.909104    5.266152   12.127846    ( 0.0000,  0.0000,  0.0000)
  34 Cu     2.607201    6.013255   14.266234    ( 0.0000,  0.0000,  0.0000)
  35 Cu     2.665098    4.546818   16.475510    ( 0.0000,  0.0000,  0.0000)
  36 O      1.303766    3.761115   17.593348    ( 0.0000,  0.0000,  0.0000)

Unit cell:
           periodic     x           y           z      points  spacing
  1. axis:    yes    7.818208    0.000000    0.000000    36     0.1881
  2. axis:    yes   -3.909104    6.770767    0.000000    36     0.1881
  3. axis:    no     0.000000    0.000000   26.383539   148     0.1783

  Lengths:   7.818208   7.818208  26.383539
  Angles:   90.000000  90.000000 120.000000

Effective grid spacing dv^(1/3) = 0.1938

     iter     time        total  log10-change:
                         energy  eigst   dens
iter:   1 21:38:46 -2745.892243  -3.07
iter:   2 21:38:58 -2745.848708  -3.41  -2.69
iter:   3 21:39:10 -2745.827533c -4.62  -2.98
iter:   4 21:39:22 -2745.825371c -4.35  -3.34
iter:   5 21:39:34 -2745.825133c -4.90  -3.75
iter:   6 21:39:46 -2745.825118c -5.20  -3.91
iter:   7 21:39:58 -2745.825150c -5.37  -4.12c
iter:   8 21:40:10 -2745.825137c -6.33  -4.24c
iter:   9 21:40:22 -2745.825113c -6.11  -4.36c
iter:  10 21:40:34 -2745.825100c -6.16  -4.55c
iter:  11 21:40:45 -2745.825090c -7.04  -4.61c
iter:  12 21:40:57 -2745.825083c -7.43c -4.67c

Converged after 12 iterations.

Dipole moment: (-2.961373, -6.425273, -0.235850) |e|*Ang

Energy contributions relative to reference atoms: (reference = -1622813.118581)

Kinetic:       +233.262707
Potential:     -272.571671
External:        +0.000000
XC:            -2708.323609
Entropy (-ST):   -0.404567
Local:           +2.009774
--------------------------
Free energy:   -2746.027367
Extrapolated:  -2745.825083

Showing only first 2 kpts
 Kpt  Band  Eigenvalues  Occupancy
  0   199     -5.84349    1.99738
  0   200     -5.77660    1.99489
  0   201     -5.51654    1.93333
  0   202     -5.23369    1.26303

  1   199     -5.85277    1.99761
  1   200     -5.66001    1.98371
  1   201     -5.48617    1.91072
  1   202     -5.07161    0.50622


Fermi level: -5.17982

No gap

Forces in eV/Ang:
  0 Cu   -0.00726    0.00419   -0.06011
  1 Cu   -0.00681   -0.00093   -0.02238
  2 Cu   -0.01346   -0.00203   -0.01209
  3 Cu    0.00156   -0.00090    0.03734
  4 Cu   -0.01860   -0.00586   -0.06408
  5 Cu   -0.00417   -0.00078    0.00068
  6 Cu   -0.00779   -0.01058   -0.01079
  7 Cu   -0.01237   -0.00727    0.02653
  8 Cu    0.00116   -0.00933   -0.08532
  9 Cu   -0.00585    0.00338   -0.02320
 10 Cu    0.00065   -0.00037    0.00478
 11 Cu   -0.00072    0.00047    0.03732
 12 Cu    0.00866    0.00366   -0.08532
 13 Cu   -0.02606   -0.02379    0.00117
 14 Cu    0.01423   -0.00217   -0.01303
 15 Cu   -0.00077    0.00038    0.03732
 16 Cu    0.00511    0.00821   -0.05649
 17 Cu   -0.01270    0.00733    0.01761
 18 Cu   -0.00001    0.00000    0.01914
 19 Cu    0.00298   -0.06055    0.00715
 20 Cu   -0.00109    0.00063   -0.05515
 21 Cu   -0.00142    0.00400    0.00068
 22 Cu    0.00526    0.01203   -0.01079
 23 Cu   -0.06407    0.03699    0.00076
 24 Cu   -0.00423    0.01904   -0.06408
 25 Cu    0.02117   -0.01222   -0.01023
 26 Cu    0.00049   -0.00028   -0.00469
 27 Cu    0.00012    0.01435    0.02653
 28 Cu    0.01496   -0.00864   -0.08942
 29 Cu    0.00757    0.03447    0.00117
 30 Cu    0.00899   -0.01124   -0.01303
 31 Cu    0.01372   -0.00792    0.02395
 32 Cu   -0.00456   -0.00853   -0.05649
 33 Cu   -0.00260    0.00637   -0.02238
 34 Cu   -0.00498    0.01267   -0.01209
 35 Cu    0.05393    0.02770    0.00715
 36 O     0.00612   -0.00353    0.07675

BFGS:   11 21:41:04    -2745.825083        0.0771
System changes: positions 

Initializing position-dependent things.

Density initialized from wave functions
                                          
                                          
                                          
                                          
                                          
                   O                      
          Cu    Cu     Cu                 
            Cu    Cu    Cu                
           Cu    Cu    Cu                 
             Cu    CCu   CCu              
              Cu     Cu    Cu             
             Cu     Cu    Cu              
               Cu     Cu    Cu            
                 Cu    Cu     Cu          
          Cu    Cu    Cu                  
            Cu    Cu    Cu                
             Cu     Cu    Cu              
                                          
                                          
                                          
                                          

Positions:
   0 Cu     0.000000    0.000000    9.999999    ( 0.0000,  0.0000,  0.0000)
   1 Cu     1.303035    0.752307   12.127846    ( 0.0000,  0.0000,  0.0000)
   2 Cu     0.004941    1.506211   14.266768    ( 0.0000,  0.0000,  0.0000)
   3 Cu     0.002588   -0.001494   16.371956    ( 0.0000,  0.0000,  0.0000)
   4 Cu    -1.303035    2.256922    9.999999    ( 0.0000,  0.0000,  0.0000)
   5 Cu     0.000000    3.009230   12.127846    ( 0.0000,  0.0000,  0.0000)
   6 Cu    -1.299292    3.764896   14.265356    ( 0.0000,  0.0000,  0.0000)
   7 Cu    -1.312370    2.251959   16.377614    ( 0.0000,  0.0000,  0.0000)
   8 Cu    -2.606069    4.513845    9.999999    ( 0.0000,  0.0000,  0.0000)
   9 Cu    -1.303035    5.266152   12.127846    ( 0.0000,  0.0000,  0.0000)
  10 Cu    -2.605709    6.018251   14.254580    ( 0.0000,  0.0000,  0.0000)
  11 Cu    -2.605987    4.516165   16.373499    ( 0.0000,  0.0000,  0.0000)
  12 Cu     2.606069    0.000000    9.999999    ( 0.0000,  0.0000,  0.0000)
  13 Cu     3.909104    0.752307   12.127846    ( 0.0000,  0.0000,  0.0000)
  14 Cu     2.601853    1.506214   14.266281    ( 0.0000,  0.0000,  0.0000)
  15 Cu     2.604101   -0.001231   16.373499    ( 0.0000,  0.0000,  0.0000)
  16 Cu     1.303035    2.256922    9.999999    ( 0.0000,  0.0000,  0.0000)
  17 Cu     2.606069    3.009230   12.127846    ( 0.0000,  0.0000,  0.0000)
  18 Cu     1.303232    3.761423   14.263857    ( 0.0000,  0.0000,  0.0000)
  19 Cu     1.304093    2.188544   16.477642    ( 0.0000,  0.0000,  0.0000)
  20 Cu     0.000000    4.513845    9.999999    ( 0.0000,  0.0000,  0.0000)
  21 Cu     1.303035    5.266152   12.127846    ( 0.0000,  0.0000,  0.0000)
  22 Cu    -0.001037    6.013540   14.265356    ( 0.0000,  0.0000,  0.0000)
  23 Cu    -0.058470    4.547603   16.483307    ( 0.0000,  0.0000,  0.0000)
  24 Cu     5.212139    0.000000    9.999999    ( 0.0000,  0.0000,  0.0000)
  25 Cu     6.515174    0.752307   12.127846    ( 0.0000,  0.0000,  0.0000)
  26 Cu     5.211984    1.504704   14.258954    ( 0.0000,  0.0000,  0.0000)
  27 Cu     5.211770    0.010566   16.377614    ( 0.0000,  0.0000,  0.0000)
  28 Cu     3.909104    2.256922    9.999999    ( 0.0000,  0.0000,  0.0000)
  29 Cu     5.212139    3.009230   12.127846    ( 0.0000,  0.0000,  0.0000)
  30 Cu     3.905611    3.764389   14.266281    ( 0.0000,  0.0000,  0.0000)
  31 Cu     3.919106    2.251148   16.381771    ( 0.0000,  0.0000,  0.0000)
  32 Cu     2.606069    4.513845    9.999999    ( 0.0000,  0.0000,  0.0000)
  33 Cu     3.909104    5.266152   12.127846    ( 0.0000,  0.0000,  0.0000)
  34 Cu     2.607157    6.013383   14.266768    ( 0.0000,  0.0000,  0.0000)
  35 Cu     2.665816    4.547118   16.477642    ( 0.0000,  0.0000,  0.0000)
  36 O      1.303720    3.761142   17.600092    ( 0.0000,  0.0000,  0.0000)

Unit cell:
           periodic     x           y           z      points  spacing
  1. axis:    yes    7.818208    0.000000    0.000000    36     0.1881
  2. axis:    yes   -3.909104    6.770767    0.000000    36     0.1881
  3. axis:    no     0.000000    0.000000   26.383539   148     0.1783

  Lengths:   7.818208   7.818208  26.383539
  Angles:   90.000000  90.000000 120.000000

Effective grid spacing dv^(1/3) = 0.1938

     iter     time        total  log10-change:
                         energy  eigst   dens
iter:   1 21:41:34 -2745.831212  -3.70
iter:   2 21:41:46 -2745.827589  -4.56  -3.33
iter:   3 21:41:58 -2745.826468c -5.03  -3.51
iter:   4 21:42:10 -2745.825722c -4.87  -3.72
iter:   5 21:42:22 -2745.825744c -5.95  -4.19c
iter:   6 21:42:34 -2745.825725c -5.50  -4.27c
iter:   7 21:42:46 -2745.825683c -6.35  -4.46c
iter:   8 21:42:58 -2745.825680c -6.90  -4.54c
iter:   9 21:43:10 -2745.825682c -7.12  -4.65c
iter:  10 21:43:22 -2745.825689c -6.92  -4.72c
iter:  11 21:43:34 -2745.825686c -7.29  -4.91c
iter:  12 21:43:46 -2745.825682c -7.78c -5.17c

Converged after 12 iterations.

Dipole moment: (-2.950078, -6.431251, -0.238412) |e|*Ang

Energy contributions relative to reference atoms: (reference = -1622813.118581)

Kinetic:       +232.855398
Potential:     -272.231051
External:        +0.000000
XC:            -2708.255385
Entropy (-ST):   -0.404759
Local:           +2.007735
--------------------------
Free energy:   -2746.028062
Extrapolated:  -2745.825682

Showing only first 2 kpts
 Kpt  Band  Eigenvalues  Occupancy
  0   199     -5.84677    1.99738
  0   200     -5.78035    1.99492
  0   201     -5.52001    1.93347
  0   202     -5.23730    1.26470

  1   199     -5.85645    1.99762
  1   200     -5.66381    1.98379
  1   201     -5.48959    1.91087
  1   202     -5.07530    0.50790


Fermi level: -5.18307

No gap

Forces in eV/Ang:
  0 Cu   -0.00733    0.00423   -0.06027
  1 Cu   -0.00688   -0.00169   -0.02352
  2 Cu   -0.00880   -0.00076   -0.01377
  3 Cu    0.00002   -0.00001    0.03120
  4 Cu   -0.01844   -0.00582   -0.06422
  5 Cu   -0.00408   -0.00073    0.00044
  6 Cu   -0.00449   -0.00720   -0.01391
  7 Cu   -0.00411   -0.00221    0.02478
  8 Cu    0.00122   -0.00942   -0.08547
  9 Cu   -0.00645    0.00372   -0.02448
 10 Cu    0.00035   -0.00020    0.00833
 11 Cu   -0.00067   -0.00102    0.03169
 12 Cu    0.00876    0.00366   -0.08547
 13 Cu   -0.02653   -0.02408   -0.00025
 14 Cu    0.00932   -0.00086   -0.01502
 15 Cu    0.00056    0.00109    0.03169
 16 Cu    0.00511    0.00852   -0.05672
 17 Cu   -0.01285    0.00742    0.01733
 18 Cu    0.00010   -0.00006    0.01104
 19 Cu    0.00255   -0.02102    0.01658
 20 Cu   -0.00077    0.00044   -0.05538
 21 Cu   -0.00141    0.00390    0.00044
 22 Cu    0.00399    0.00749   -0.01391
 23 Cu   -0.02671    0.01542    0.01167
 24 Cu   -0.00418    0.01888   -0.06422
 25 Cu    0.02166   -0.01251   -0.01162
 26 Cu    0.00049   -0.00028   -0.00304
 27 Cu   -0.00014    0.00466    0.02478
 28 Cu    0.01487   -0.00859   -0.08954
 29 Cu    0.00759    0.03502   -0.00025
 30 Cu    0.00541   -0.00764   -0.01502
 31 Cu    0.00565   -0.00326    0.02194
 32 Cu   -0.00483   -0.00869   -0.05672
 33 Cu   -0.00198    0.00680   -0.02352
 34 Cu   -0.00375    0.00800   -0.01377
 35 Cu    0.01948    0.00830    0.01658
 36 O     0.00368   -0.00213    0.02126

BFGS:   12 21:43:53    -2745.825682        0.0330
Timing:                                      incl.     excl.
-------------------------------------------------------------------
Density initialized from wave functions:     0.561     0.318   0.0% |
 Symmetrize density:                         0.244     0.244   0.0% |
Forces:                                     88.237    88.237   2.8% ||
Hamiltonian:                                26.041     0.001   0.0% |
 Atomic:                                     0.003     0.003   0.0% |
  XC Correction:                             0.000     0.000   0.0% |
 Calculate atomic Hamiltonians:              0.003     0.003   0.0% |
 Communicate:                                1.317     1.317   0.0% |
 Hartree integrate/restrict:                 0.025     0.025   0.0% |
 Initialize Hamiltonian:                     0.000     0.000   0.0% |
 Poisson:                                    0.568     0.013   0.0% |
  Communicate from 1D:                       0.097     0.097   0.0% |
  Communicate from 2D:                       0.093     0.093   0.0% |
  Communicate to 1D:                         0.082     0.082   0.0% |
  Communicate to 2D:                         0.109     0.109   0.0% |
  FFT 1D:                                    0.105     0.105   0.0% |
  FFT 2D:                                    0.070     0.070   0.0% |
 XC 3D grid:                                23.989     1.987   0.1% |
  VdW-DF integral:                          22.003     1.252   0.0% |
   Convolution:                              2.027     2.027   0.1% |
   FFT:                                      1.336     1.336   0.0% |
   gather:                                   5.519     5.519   0.2% |
   hmm1:                                     0.394     0.394   0.0% |
   hmm2:                                     0.849     0.849   0.0% |
   iFFT:                                     1.247     1.247   0.0% |
   potential:                                5.903     0.111   0.0% |
    collect:                                 0.493     0.493   0.0% |
    p1:                                      3.584     3.584   0.1% |
    p2:                                      1.230     1.230   0.0% |
    sum:                                     0.485     0.485   0.0% |
   splines:                                  3.475     3.475   0.1% |
 vbar:                                       0.136     0.136   0.0% |
LCAO initialization:                         4.558     0.477   0.0% |
 LCAO eigensolver:                           1.200     0.003   0.0% |
  Calculate projections:                     0.000     0.000   0.0% |
  DenseAtomicCorrection:                     0.000     0.000   0.0% |
  Distribute overlap matrix:                 0.776     0.776   0.0% |
  Orbital Layouts:                           0.407     0.407   0.0% |
  Potential matrix:                          0.001     0.001   0.0% |
  Sum over cells:                            0.013     0.013   0.0% |
 LCAO to grid:                               2.448     2.448   0.1% |
 Set positions (LCAO WFS):                   0.433     0.327   0.0% |
  Basic WFS set positions:                   0.002     0.002   0.0% |
  Basis functions set positions:             0.000     0.000   0.0% |
  P tci:                                     0.001     0.001   0.0% |
  ST tci:                                    0.054     0.054   0.0% |
  mktci:                                     0.050     0.050   0.0% |
Redistribute:                                0.007     0.007   0.0% |
SCF-cycle:                                2849.951     2.345   0.1% |
 Davidson:                                2423.016   665.864  21.0% |-------|
  Apply hamiltonian:                        72.448    72.448   2.3% ||
  Subspace diag:                           259.255     0.084   0.0% |
   calc_h_matrix:                          131.148    60.424   1.9% ||
    Apply hamiltonian:                      70.724    70.724   2.2% ||
   diagonalize:                             15.372    15.372   0.5% |
   rotate_psi:                             112.651   112.651   3.6% ||
  calc. matrices:                         1087.949   424.064  13.4% |----|
   Apply hamiltonian:                      663.885   663.885  21.0% |-------|
  diagonalize:                             110.809   110.809   3.5% ||
  rotate_psi:                              226.691   226.691   7.2% |--|
 Density:                                   10.553     0.005   0.0% |
  Atomic density matrices:                   0.710     0.710   0.0% |
  Mix:                                       0.619     0.619   0.0% |
  Multipole moments:                         0.036     0.036   0.0% |
  Pseudo density:                            9.183     4.053   0.1% |
   Symmetrize density:                       5.131     5.131   0.2% |
 Hamiltonian:                              394.851     0.019   0.0% |
  Atomic:                                    0.040     0.040   0.0% |
   XC Correction:                            0.001     0.001   0.0% |
  Calculate atomic Hamiltonians:             0.052     0.052   0.0% |
  Communicate:                              22.824    22.824   0.7% |
  Hartree integrate/restrict:                0.409     0.409   0.0% |
  Poisson:                                   9.838     0.213   0.0% |
   Communicate from 1D:                      1.647     1.647   0.1% |
   Communicate from 2D:                      1.577     1.577   0.0% |
   Communicate to 1D:                        1.419     1.419   0.0% |
   Communicate to 2D:                        1.897     1.897   0.1% |
   FFT 1D:                                   1.841     1.841   0.1% |
   FFT 2D:                                   1.244     1.244   0.0% |
  XC 3D grid:                              361.572    34.518   1.1% |
   VdW-DF integral:                        327.054    22.133   0.7% |
    Convolution:                            36.490    36.490   1.2% |
    FFT:                                    23.141    23.141   0.7% |
    gather:                                 99.245    99.245   3.1% ||
    hmm1:                                    6.794     6.794   0.2% |
    hmm2:                                   14.781    14.781   0.5% |
    iFFT:                                   21.916    21.916   0.7% |
    potential:                             102.553     2.099   0.1% |
     collect:                                8.508     8.508   0.3% |
     p1:                                    61.552    61.552   1.9% ||
     p2:                                    21.951    21.951   0.7% |
     sum:                                    8.444     8.444   0.3% |
    splines:                                 0.001     0.001   0.0% |
  vbar:                                      0.095     0.095   0.0% |
 Orthonormalize:                            19.186     0.005   0.0% |
  calc_s_matrix:                             1.429     1.429   0.0% |
  inverse-cholesky:                         14.414    14.414   0.5% |
  projections:                               0.001     0.001   0.0% |
  rotate_psi_s:                              3.337     3.337   0.1% |
Set symmetry:                                0.002     0.002   0.0% |
Other:                                     198.096   198.096   6.3% |--|
-------------------------------------------------------------------
Total:                                              3167.453 100.0%

Memory usage: 976.81 MiB
Date: Wed Sep 27 21:43:53 2023
