
  ___ ___ ___ _ _ _  
 |   |   |_  | | | | 
 | | | | | . | | | | 
 |__ |  _|___|_____|  22.8.0
 |___|_|             

User:   s204775@c145.nifl.fysik.dtu.dk
Date:   Wed Sep 27 20:57:15 2023
Arch:   x86_64
Pid:    3376
CWD:    /home/cat/s204775/projects/Bachelor_project/O_missing_features
Python: 3.10.4
gpaw:   /home/modules/software/GPAW/22.8.0-intel-2022a/lib/python3.10/site-packages/gpaw
_gpaw:  /home/modules/software/GPAW/22.8.0-intel-2022a/lib/python3.10/site-packages/
        _gpaw.cpython-310-x86_64-linux-gnu.so
ase:    /home/modules/software/ASE/3.22.1-intel-2022a/lib/python3.10/site-packages/ase (version 3.22.1)
numpy:  /home/modules/software/SciPy-bundle/2022.05-intel-2022a/lib/python3.10/site-packages/numpy (version 1.22.3)
scipy:  /home/modules/software/SciPy-bundle/2022.05-intel-2022a/lib/python3.10/site-packages/scipy (version 1.8.1)
libxc:  5.2.3
units:  Angstrom and eV
cores: 40
OpenMP: False
OMP_NUM_THREADS: 1

Input parameters:
  basis: dzp
  h: 0.18
  kpts: {size: (4, 4, 1)}
  xc: BEEF-vdW

System changes: positions, numbers, cell, pbc, initial_charges, initial_magmoms 

Initialize ...

species:
  Fe:
    name: Iron
    id: 37abbd8d6c3c35915a9b583b742da910
    Z: 26.0
    valence: 8
    core: 18
    charge: 0.0
    file: /home/modules/software/GPAW-setups/0.9.20000/Fe.PBE.gz
    compensation charges: {type: gauss,
                           rc: 0.33,
                           lmax: 2}
    cutoffs: {filter: 2.06,
              core: 2.67}
    valence states:
      #              energy  rcut
      - 4s(2.00)    -5.291   1.164
      - 4p(0.00)    -1.326   1.058
      - 3d(6.00)    -7.505   1.058
      -  s          21.920   1.164
      -  p          25.885   1.058
      -  d          19.706   1.058
  
    # LCAO basis set for Fe:
    #   Name: dzp
    #   File: /home/modules/software/GPAW-setups/0.9.20000/Fe.dzp.basis.gz
    #   Number of radial functions: 5
    #   Number of spherical harmonics: 15
    #     l=0, rc=8.9688 Bohr: 4s-sz confined orbital
    #     l=2, rc=5.1719 Bohr: 3d-sz confined orbital
    #     l=0, rc=5.3281 Bohr: 4s-dz split-valence wave
    #     l=2, rc=3.0938 Bohr: 3d-dz split-valence wave
    #     l=1, rc=8.9688 Bohr: p-type Gaussian polarization
    #   Number of RI-basis functions 0

  O:
    name: Oxygen
    id: 32ecd46bf208036f09c70b0ec9a88b78
    Z: 8.0
    valence: 6
    core: 2
    charge: 0.0
    file: /home/modules/software/GPAW-setups/0.9.20000/O.PBE.gz
    compensation charges: {type: gauss,
                           rc: 0.21,
                           lmax: 2}
    cutoffs: {filter: 1.17,
              core: 0.83}
    valence states:
      #              energy  rcut
      - 2s(2.00)   -23.961   0.688
      - 2p(4.00)    -9.029   0.598
      -  s           3.251   0.688
      -  p          18.182   0.598
      -  d           0.000   0.619
  
    # LCAO basis set for O:
    #   Name: dzp
    #   File: /home/modules/software/GPAW-setups/0.9.20000/O.dzp.basis.gz
    #   Number of radial functions: 5
    #   Number of spherical harmonics: 13
    #     l=0, rc=4.3438 Bohr: 2s-sz confined orbital
    #     l=1, rc=5.3906 Bohr: 2p-sz confined orbital
    #     l=0, rc=2.2969 Bohr: 2s-dz split-valence wave
    #     l=1, rc=2.8906 Bohr: 2p-dz split-valence wave
    #     l=2, rc=5.3906 Bohr: d-type Gaussian polarization
    #   Number of RI-basis functions 0

Reference energy: -1248341.217899  # eV

Spin-polarized calculation.
Magnetic moment: 97.664047

Convergence criteria:
 Maximum [total energy] change in last 3 cyles: 0.0005 eV / electron
 Maximum integral of absolute [dens]ity change: 0.0001 electrons / valence electron
 Maximum integral of absolute [eigenst]ate change: 4e-08 eV^2 / valence electron
 Maximum number of scf [iter]ations: 333
 (Square brackets indicate name in SCF output, whereas a 'c' in
 the SCF output indicates the quantity has converged.)

Symmetries present (total): 1

  ( 1  0  0)
  ( 0  1  0)
  ( 0  0  1)

16 k-points: 4 x 4 x 1 Monkhorst-Pack grid
8 k-points in the irreducible part of the Brillouin zone
       k-points in crystal coordinates                weights
   0:     0.12500000   -0.37500000    0.00000000          2/16
   1:     0.12500000   -0.12500000    0.00000000          2/16
   2:     0.12500000    0.12500000    0.00000000          2/16
   3:     0.12500000    0.37500000    0.00000000          2/16
   4:     0.37500000   -0.37500000    0.00000000          2/16
   5:     0.37500000   -0.12500000    0.00000000          2/16
   6:     0.37500000    0.12500000    0.00000000          2/16
   7:     0.37500000    0.37500000    0.00000000          2/16

Wave functions: Uniform real-space grid
  Kinetic energy operator: 8*3+1=25 point O(h^6) finite-difference Laplacian
  ScaLapack parameters: grid=1x1, blocksize=None
  Wavefunction extrapolation:
    Improved wavefunction reuse through dual PAW basis 

Occupation numbers: Fermi-Dirac:
  width: 0.1000  # eV
 

Eigensolver
   Davidson(niter=2) 

Densities:
  Coarse grid: 36*36*148 grid
  Fine grid: 72*72*296 grid
  Total Charge: 0.000000 

Density mixing:
  Method: difference
  Backend: pulay
  Linear mixing parameter: 0.05
  old densities: 5
  Damping of long wavelength oscillations: 50 

Hamiltonian:
  XC and Coulomb potentials evaluated on a 72*72*296 grid
  Using the BEEF-vdW Exchange-Correlation functional
  Interpolation: tri-quintic (5. degree polynomial)
  Poisson solver: FastPoissonSolver using
    Stencil: 8*3+1=25 point O(h^6) finite-difference Laplacian
    FFT axes: [0, 1]
    FST axes: [2]
 

XC parameters: BEEF-vdW with 2 nearest neighbor stencil

Memory estimate:
  Process memory now: 206.49 MiB
  Calculator: 482.50 MiB
    Density: 43.95 MiB
      Arrays: 10.19 MiB
      Localized functions: 29.74 MiB
      Mixer: 4.01 MiB
    Hamiltonian: 9.80 MiB
      Arrays: 7.57 MiB
      XC: 0.00 MiB
      Poisson: 0.00 MiB
      vbar: 2.23 MiB
    Wavefunctions: 428.75 MiB
      Arrays psit_nG: 274.13 MiB
      Eigensolver: 148.65 MiB
      Projections: 0.96 MiB
      Projectors: 5.01 MiB

Total number of cores used: 40
Parallelization over k-points: 8
Domain decomposition: 1 x 1 x 5

Number of atoms: 37
Number of atomic orbitals: 553
Number of bands in calculation: 239
Number of valence electrons: 294
Bands to converge: occupied

... initialized

Initializing position-dependent things.

Density initialized from atomic densities
Creating initial wave functions:
  239 bands from LCAO basis set

                                          
                                          
                                          
                                          
                                          
                   O                      
          Fe    Fe    Fe                  
           FFe   FFe   FFe                
             Fe     Fe    Fe              
             Fe    Fe    Fe               
             FFe    FFe   FFe             
                                          
               Fe     Fe    Fe            
                 Fe    Fe     Fe          
          Fe    Fe    Fe                  
            Fe    Fe    Fe                
             Fe     Fe    Fe              
                                          
                                          
                                          
                                          

Positions:
   0 Fe     0.000000    0.000000   10.000000    ( 0.0000,  0.0000,  2.7500)
   1 Fe     1.298117    0.749468   12.119817    ( 0.0000,  0.0000,  2.6728)
   2 Fe    -0.000000    1.498938   14.260075    ( 0.0000,  0.0000,  2.6756)
   3 Fe     0.000000    0.000000   16.395073    ( 0.0000,  0.0000,  2.7532)
   4 Fe    -1.298117    2.248405   10.000000    ( 0.0000,  0.0000,  2.7500)
   5 Fe     0.000000    2.997873   12.119817    ( 0.0000,  0.0000,  2.6728)
   6 Fe    -1.298117    3.747342   14.260076    ( 0.0000,  0.0000,  2.6756)
   7 Fe    -1.298117    2.248406   16.395074    ( 0.0000,  0.0000,  2.7532)
   8 Fe    -2.596234    4.496810   10.000000    ( 0.0000,  0.0000,  2.7500)
   9 Fe    -1.298117    5.246278   12.119817    ( 0.0000,  0.0000,  2.6728)
  10 Fe    -2.596234    5.995746   14.260075    ( 0.0000,  0.0000,  2.6756)
  11 Fe    -2.596234    4.496809   16.395074    ( 0.0000,  0.0000,  2.7532)
  12 Fe     2.596234    0.000000   10.000000    ( 0.0000,  0.0000,  2.7500)
  13 Fe     3.894352    0.749468   12.119817    ( 0.0000,  0.0000,  2.6728)
  14 Fe     2.596235    1.498937   14.260075    ( 0.0000,  0.0000,  2.6756)
  15 Fe     2.596235   -0.000000   16.395074    ( 0.0000,  0.0000,  2.7532)
  16 Fe     1.298117    2.248405   10.000000    ( 0.0000,  0.0000,  2.7500)
  17 Fe     2.596234    2.997873   12.119817    ( 0.0000,  0.0000,  2.6728)
  18 Fe     1.298117    3.747342   14.260076    ( 0.0000,  0.0000,  2.6756)
  19 Fe     1.298117    2.248406   16.395074    ( 0.0000,  0.0000,  2.7532)
  20 Fe     0.000000    4.496810   10.000000    ( 0.0000,  0.0000,  2.7500)
  21 Fe     1.298117    5.246278   12.119817    ( 0.0000,  0.0000,  2.6728)
  22 Fe    -0.000000    5.995746   14.260076    ( 0.0000,  0.0000,  2.6756)
  23 Fe     0.000000    4.496810   16.395074    ( 0.0000,  0.0000,  2.7532)
  24 Fe     5.192469    0.000000   10.000000    ( 0.0000,  0.0000,  2.7500)
  25 Fe     6.490586    0.749468   12.119817    ( 0.0000,  0.0000,  2.6728)
  26 Fe     5.192468    1.498937   14.260075    ( 0.0000,  0.0000,  2.6756)
  27 Fe     5.192468   -0.000000   16.395074    ( 0.0000,  0.0000,  2.7532)
  28 Fe     3.894352    2.248405   10.000000    ( 0.0000,  0.0000,  2.7500)
  29 Fe     5.192469    2.997873   12.119817    ( 0.0000,  0.0000,  2.6728)
  30 Fe     3.894352    3.747341   14.260075    ( 0.0000,  0.0000,  2.6756)
  31 Fe     3.894352    2.248405   16.395074    ( 0.0000,  0.0000,  2.7532)
  32 Fe     2.596234    4.496810   10.000000    ( 0.0000,  0.0000,  2.7500)
  33 Fe     3.894352    5.246278   12.119817    ( 0.0000,  0.0000,  2.6728)
  34 Fe     2.596234    5.995746   14.260075    ( 0.0000,  0.0000,  2.6756)
  35 Fe     2.596234    4.496809   16.395074    ( 0.0000,  0.0000,  2.7532)
  36 O      1.298117    3.747342   17.144542    ( 0.0000,  0.0000,  0.0000)

Unit cell:
           periodic     x           y           z      points  spacing
  1. axis:    yes    7.788703    0.000000    0.000000    36     0.1874
  2. axis:    yes   -3.894352    6.745215    0.000000    36     0.1874
  3. axis:    no     0.000000    0.000000   26.359450   148     0.1781

  Lengths:   7.788703   7.788703  26.359450
  Angles:   90.000000  90.000000 120.000000

Effective grid spacing dv^(1/3) = 0.1933

     iter     time        total  log10-change:  magmom
                         energy  eigst   dens
iter:   1 20:58:25 -2538.565016                  +96.7568
iter:   2 20:59:04 -2605.063611  -0.17  -1.29    +93.2371
iter:   3 20:59:44 -2547.615580  -0.49  -0.97    +88.0315
iter:   4 21:00:23 -2533.384836  -0.83  -1.21    +81.7578
iter:   5 21:01:02 -2533.561114  -1.08  -1.42    +87.3582
iter:   6 21:01:41 -2533.473494  -0.92  -1.46    +93.4719
iter:   7 21:02:20 -2533.376013  -1.23  -1.55    +91.8057
iter:   8 21:02:59 -2535.561556  -1.38  -1.60    +93.2898
iter:   9 21:03:40 -2540.742414  -1.53  -1.64    +93.7725
iter:  10 21:04:19 -2533.852362  -1.72  -1.39    +94.2421
iter:  11 21:04:58 -2534.134277  -2.01  -1.75    +94.4193
iter:  12 21:05:37 -2534.082322  -2.12  -1.94    +94.4997
iter:  13 21:06:16 -2534.161573c -2.25  -2.09    +94.7993
iter:  14 21:06:56 -2534.105629c -2.95  -2.14    +94.8092
iter:  15 21:07:35 -2534.112593c -2.68  -2.20    +94.8784
iter:  16 21:08:14 -2534.266570  -2.76  -2.26    +94.8340
iter:  17 21:08:53 -2533.982690  -3.03  -2.08    +94.9361
iter:  18 21:09:33 -2533.983888  -3.53  -2.68    +95.0956
iter:  19 21:10:12 -2533.987088c -3.58  -2.75    +95.1557
iter:  20 21:10:51 -2533.990737c -3.84  -2.87    +95.1708
iter:  21 21:11:30 -2533.991309c -4.22  -2.92    +95.1317
iter:  22 21:12:10 -2534.010171c -4.21  -2.94    +95.1173
iter:  23 21:12:49 -2533.992868c -4.49  -2.64    +95.1026
iter:  24 21:13:28 -2533.991012c -4.04  -3.02    +95.0928
iter:  25 21:14:07 -2533.991335c -4.70  -3.11    +95.0943
iter:  26 21:14:46 -2533.991348c -4.95  -3.21    +95.0996
iter:  27 21:15:26 -2533.992664c -4.93  -3.32    +95.0855
iter:  28 21:16:05 -2533.991768c -5.35  -3.43    +95.0846
iter:  29 21:16:44 -2533.993067c -5.19  -3.46    +95.0738
iter:  30 21:17:23 -2533.992326c -5.26  -3.19    +95.0791
iter:  31 21:18:03 -2533.992000c -5.42  -3.58    +95.0763
iter:  32 21:18:42 -2533.991873c -5.85  -4.04c   +95.0733
iter:  33 21:19:21 -2533.991853c -6.19  -4.13c   +95.0704
iter:  34 21:20:00 -2533.991983c -6.26  -4.17c   +95.0690
iter:  35 21:20:39 -2533.991880c -6.62  -4.26c   +95.0691
iter:  36 21:21:18 -2533.991995c -6.42  -4.33c   +95.0686
iter:  37 21:21:57 -2533.992006c -6.73  -4.42c   +95.0683
iter:  38 21:22:37 -2533.991983c -6.89  -4.31c   +95.0687
iter:  39 21:23:16 -2533.992000c -7.23  -4.54c   +95.0678
iter:  40 21:23:55 -2533.991975c -7.52c -4.61c   +95.0674

Converged after 40 iterations.

Dipole moment: (-4.059986, -6.777250, 0.028981) |e|*Ang

Total magnetic moment: (0.000000, 0.000000, 95.067440)
Local magnetic moments:
   0 Fe ( 0.000000,  0.000000,  2.830831)
   1 Fe ( 0.000000,  0.000000,  2.748300)
   2 Fe ( 0.000000,  0.000000,  2.744262)
   3 Fe ( 0.000000,  0.000000,  2.821788)
   4 Fe ( 0.000000,  0.000000,  2.831823)
   5 Fe ( 0.000000,  0.000000,  2.756387)
   6 Fe ( 0.000000,  0.000000,  2.748753)
   7 Fe ( 0.000000,  0.000000,  2.873491)
   8 Fe ( 0.000000,  0.000000,  2.830002)
   9 Fe ( 0.000000,  0.000000,  2.748678)
  10 Fe ( 0.000000,  0.000000,  2.745395)
  11 Fe ( 0.000000,  0.000000,  2.827790)
  12 Fe ( 0.000000,  0.000000,  2.830011)
  13 Fe ( 0.000000,  0.000000,  2.750159)
  14 Fe ( 0.000000,  0.000000,  2.744960)
  15 Fe ( 0.000000,  0.000000,  2.827822)
  16 Fe ( 0.000000,  0.000000,  2.831399)
  17 Fe ( 0.000000,  0.000000,  2.757225)
  18 Fe ( 0.000000,  0.000000,  2.784303)
  19 Fe ( 0.000000,  0.000000,  1.901983)
  20 Fe ( 0.000000,  0.000000,  2.828171)
  21 Fe ( 0.000000,  0.000000,  2.756391)
  22 Fe ( 0.000000,  0.000000,  2.748785)
  23 Fe ( 0.000000,  0.000000,  1.889027)
  24 Fe ( 0.000000,  0.000000,  2.831809)
  25 Fe ( 0.000000,  0.000000,  2.748833)
  26 Fe ( 0.000000,  0.000000,  2.759639)
  27 Fe ( 0.000000,  0.000000,  2.873527)
  28 Fe ( 0.000000,  0.000000,  2.832716)
  29 Fe ( 0.000000,  0.000000,  2.750141)
  30 Fe ( 0.000000,  0.000000,  2.744947)
  31 Fe ( 0.000000,  0.000000,  2.875556)
  32 Fe ( 0.000000,  0.000000,  2.831397)
  33 Fe ( 0.000000,  0.000000,  2.748288)
  34 Fe ( 0.000000,  0.000000,  2.744285)
  35 Fe ( 0.000000,  0.000000,  1.902726)
  36 O  ( 0.000000,  0.000000, -0.006386)

Energy contributions relative to reference atoms: (reference = -1248341.217899)

Kinetic:       +842.598722
Potential:     -737.060311
External:        +0.000000
XC:            -2641.196029
Entropy (-ST):   -1.665626
Local:           +2.498456
--------------------------
Free energy:   -2534.824787
Extrapolated:  -2533.991975

Spin contamination: 2.598083 electrons
Showing only first 2 kpts
                      Up                     Down
 Kpt  Band  Eigenvalues  Occupancy  Eigenvalues  Occupancy
  0   145     -6.38842    1.00000     -3.57817    0.00000
  0   146     -6.36629    1.00000     -3.56583    0.00000
  0   147     -6.34505    1.00000     -3.54903    0.00000
  0   148     -6.32719    1.00000     -3.52424    0.00000

  1   145     -6.31193    1.00000     -3.49942    0.00000
  1   146     -6.27582    1.00000     -3.48926    0.00000
  1   147     -6.26503    1.00000     -3.47077    0.00000
  1   148     -6.23757    1.00000     -3.46197    0.00000


Fermi level: -4.85754

No gap

Forces in eV/Ang:
  0 Fe   -0.00199    0.00131   -0.15682
  1 Fe    0.00110    0.00593    0.04219
  2 Fe    0.02065   -0.00207    0.00970
  3 Fe    0.09396   -0.05550    0.02796
  4 Fe    0.00579    0.00687   -0.15785
  5 Fe    0.00292    0.00198    0.04753
  6 Fe    0.00792    0.01454    0.00796
  7 Fe   -0.16402   -0.09513   -0.16808
  8 Fe   -0.00218   -0.00053   -0.15496
  9 Fe    0.00439   -0.00253    0.04365
 10 Fe    0.00082   -0.00067    0.08226
 11 Fe   -0.00099    0.10838    0.02434
 12 Fe   -0.00054    0.00237   -0.15495
 13 Fe    0.00663    0.00246    0.04831
 14 Fe   -0.01433   -0.00063    0.00712
 15 Fe   -0.09357   -0.05412    0.02528
 16 Fe   -0.00300    0.00882   -0.16210
 17 Fe   -0.00273    0.00164    0.04612
 18 Fe    0.00127   -0.00067   -0.36658
 19 Fe   -0.01219   -4.00385   -1.88065
 20 Fe    0.00429   -0.00235   -0.15945
 21 Fe   -0.00021   -0.00351    0.04760
 22 Fe   -0.00863   -0.01407    0.00796
 23 Fe   -3.44345    1.98785   -1.87714
 24 Fe   -0.00293   -0.00831   -0.15780
 25 Fe   -0.00713    0.00413    0.05205
 26 Fe    0.00064   -0.00027   -0.03109
 27 Fe    0.00129    0.18768   -0.16736
 28 Fe   -0.00742    0.00442   -0.15891
 29 Fe    0.00121   -0.00702    0.04829
 30 Fe   -0.00644    0.01259    0.00697
 31 Fe    0.16821   -0.09606   -0.16939
 32 Fe   -0.00902   -0.00161   -0.16207
 33 Fe   -0.00456   -0.00390    0.04225
 34 Fe    0.01208   -0.01656    0.00955
 35 Fe    3.46343    2.01347   -1.88097
 36 O    -0.01059    0.00444    6.35292

      Step     Time          Energy         fmax
BFGS:    0 21:24:21    -2533.991975        6.3529
System changes: positions 

Initializing position-dependent things.

Density initialized from wave functions
                                          
                                          
                                          
                                          
                                          
                   O                      
          Fe    Fe     Fe                 
           FFe   FFe   FFe                
             Fe     Fe    Fe              
             Fe    Fe    Fe               
              Fe     Fe    Fe             
             Fe     Fe    Fe              
               Fe     Fe    Fe            
                 Fe    Fe     Fe          
          Fe    Fe    Fe                  
            Fe    Fe    Fe                
             Fe     Fe    Fe              
                                          
                                          
                                          
                                          

Positions:
   0 Fe     0.000000    0.000000   10.000000    ( 0.0000,  0.0000,  2.7500)
   1 Fe     1.298117    0.749468   12.119817    ( 0.0000,  0.0000,  2.6728)
   2 Fe     0.000295    1.498908   14.260214    ( 0.0000,  0.0000,  2.6756)
   3 Fe     0.001342   -0.000793   16.395472    ( 0.0000,  0.0000,  2.7532)
   4 Fe    -1.298117    2.248405   10.000000    ( 0.0000,  0.0000,  2.7500)
   5 Fe     0.000000    2.997873   12.119817    ( 0.0000,  0.0000,  2.6728)
   6 Fe    -1.298004    3.747549   14.260189    ( 0.0000,  0.0000,  2.6756)
   7 Fe    -1.300461    2.247047   16.392673    ( 0.0000,  0.0000,  2.7532)
   8 Fe    -2.596234    4.496810   10.000000    ( 0.0000,  0.0000,  2.7500)
   9 Fe    -1.298117    5.246278   12.119817    ( 0.0000,  0.0000,  2.6728)
  10 Fe    -2.596222    5.995736   14.261250    ( 0.0000,  0.0000,  2.6756)
  11 Fe    -2.596248    4.498358   16.395421    ( 0.0000,  0.0000,  2.7532)
  12 Fe     2.596234    0.000000   10.000000    ( 0.0000,  0.0000,  2.7500)
  13 Fe     3.894352    0.749468   12.119817    ( 0.0000,  0.0000,  2.6728)
  14 Fe     2.596030    1.498928   14.260177    ( 0.0000,  0.0000,  2.6756)
  15 Fe     2.594898   -0.000773   16.395435    ( 0.0000,  0.0000,  2.7532)
  16 Fe     1.298117    2.248405   10.000000    ( 0.0000,  0.0000,  2.7500)
  17 Fe     2.596234    2.997873   12.119817    ( 0.0000,  0.0000,  2.6728)
  18 Fe     1.298135    3.747332   14.254839    ( 0.0000,  0.0000,  2.6756)
  19 Fe     1.297943    2.191208   16.368207    ( 0.0000,  0.0000,  2.7532)
  20 Fe     0.000000    4.496810   10.000000    ( 0.0000,  0.0000,  2.7500)
  21 Fe     1.298117    5.246278   12.119817    ( 0.0000,  0.0000,  2.6728)
  22 Fe    -0.000123    5.995545   14.260189    ( 0.0000,  0.0000,  2.6756)
  23 Fe    -0.049192    4.525208   16.368258    ( 0.0000,  0.0000,  2.7532)
  24 Fe     5.192469    0.000000   10.000000    ( 0.0000,  0.0000,  2.7500)
  25 Fe     6.490586    0.749468   12.119817    ( 0.0000,  0.0000,  2.6728)
  26 Fe     5.192477    1.498933   14.259631    ( 0.0000,  0.0000,  2.6756)
  27 Fe     5.192486    0.002681   16.392683    ( 0.0000,  0.0000,  2.7532)
  28 Fe     3.894352    2.248405   10.000000    ( 0.0000,  0.0000,  2.7500)
  29 Fe     5.192469    2.997873   12.119817    ( 0.0000,  0.0000,  2.6728)
  30 Fe     3.894260    3.747521   14.260175    ( 0.0000,  0.0000,  2.6756)
  31 Fe     3.896755    2.247033   16.392654    ( 0.0000,  0.0000,  2.7532)
  32 Fe     2.596234    4.496810   10.000000    ( 0.0000,  0.0000,  2.7500)
  33 Fe     3.894352    5.246278   12.119817    ( 0.0000,  0.0000,  2.6728)
  34 Fe     2.596406    5.995509   14.260211    ( 0.0000,  0.0000,  2.6756)
  35 Fe     2.645711    4.525573   16.368203    ( 0.0000,  0.0000,  2.7532)
  36 O      1.297966    3.747405   17.235298    ( 0.0000,  0.0000,  0.0000)

Unit cell:
           periodic     x           y           z      points  spacing
  1. axis:    yes    7.788703    0.000000    0.000000    36     0.1874
  2. axis:    yes   -3.894352    6.745215    0.000000    36     0.1874
  3. axis:    no     0.000000    0.000000   26.359450   148     0.1781

  Lengths:   7.788703   7.788703  26.359450
  Angles:   90.000000  90.000000 120.000000

Effective grid spacing dv^(1/3) = 0.1933

     iter     time        total  log10-change:  magmom
                         energy  eigst   dens
iter:   1 21:26:02 -2540.646648  -0.73           +95.0911
iter:   2 21:26:41 -2595.933283  -0.88  -1.59    +96.8340
iter:   3 21:27:21 -2541.771001  -1.06  -0.98    +93.4238
iter:   4 21:28:01 -2535.624078  -1.80  -1.42    +89.8880
iter:   5 21:28:41 -2534.728838  -2.00  -1.84    +93.5208
iter:   6 21:29:21 -2534.844889  -2.51  -2.18    +93.6873
iter:   7 21:30:01 -2534.909668  -2.65  -2.15    +94.0979
iter:   8 21:30:40 -2534.871575c -2.39  -2.24    +95.0486
iter:   9 21:31:20 -2534.887105c -2.89  -2.69    +95.0378
iter:  10 21:32:00 -2534.908390c -2.99  -2.71    +95.2857
iter:  11 21:32:40 -2534.917181c -3.19  -2.72    +95.4040
iter:  12 21:33:20 -2534.910089c -3.54  -2.70    +95.6101
iter:  13 21:34:00 -2534.916152c -3.75  -2.89    +95.7843
iter:  14 21:34:39 -2534.921202c -4.00  -2.92    +95.9056
iter:  15 21:35:19 -2534.919156c -4.35  -2.82    +95.9269
iter:  16 21:35:59 -2534.920534c -4.15  -2.99    +96.0045
iter:  17 21:36:39 -2534.920709c -4.31  -3.04    +96.0759
iter:  18 21:37:19 -2534.919484c -4.44  -3.03    +96.0625
iter:  19 21:37:58 -2534.923515c -4.35  -3.09    +96.0840
iter:  20 21:38:38 -2534.948387c -4.15  -2.98    +96.0851
iter:  21 21:39:18 -2534.923863c -4.16  -2.59    +96.1055
iter:  22 21:39:58 -2534.921239c -4.81  -2.92    +96.1023
iter:  23 21:40:38 -2534.920227c -4.73  -3.14    +96.1099
iter:  24 21:41:18 -2534.920321c -4.87  -3.45    +96.1065
iter:  25 21:41:58 -2534.920844c -5.29  -3.58    +96.1130
iter:  26 21:42:38 -2534.920049c -5.62  -3.52    +96.1365
iter:  27 21:43:18 -2534.920280c -6.18  -3.78    +96.1382
iter:  28 21:43:58 -2534.920276c -5.95  -3.90    +96.1426
iter:  29 21:44:37 -2534.920289c -6.12  -4.03c   +96.1446
iter:  30 21:45:17 -2534.920373c -6.22  -4.04c   +96.1464
iter:  31 21:45:57 -2534.920312c -6.48  -4.08c   +96.1508
iter:  32 21:46:37 -2534.920282c -6.73  -4.43c   +96.1532
iter:  33 21:47:17 -2534.920408c -6.78  -4.42c   +96.1571
iter:  34 21:47:57 -2534.920278c -6.97  -4.46c   +96.1587
iter:  35 21:48:37 -2534.920358c -6.97  -4.50c   +96.1606
iter:  36 21:49:16 -2534.920348c -7.50c -4.49c   +96.1615

Converged after 36 iterations.

Dipole moment: (-3.986240, -6.820364, -0.009642) |e|*Ang

Total magnetic moment: (0.000000, 0.000000, 96.161547)
Local magnetic moments:
   0 Fe ( 0.000000,  0.000000,  2.828847)
   1 Fe ( 0.000000,  0.000000,  2.748622)
   2 Fe ( 0.000000,  0.000000,  2.744036)
   3 Fe ( 0.000000,  0.000000,  2.821157)
   4 Fe ( 0.000000,  0.000000,  2.832327)
   5 Fe ( 0.000000,  0.000000,  2.751878)
   6 Fe ( 0.000000,  0.000000,  2.747147)
   7 Fe ( 0.000000,  0.000000,  2.873916)
   8 Fe ( 0.000000,  0.000000,  2.828673)
   9 Fe ( 0.000000,  0.000000,  2.749167)
  10 Fe ( 0.000000,  0.000000,  2.748238)
  11 Fe ( 0.000000,  0.000000,  2.824647)
  12 Fe ( 0.000000,  0.000000,  2.828682)
  13 Fe ( 0.000000,  0.000000,  2.752026)
  14 Fe ( 0.000000,  0.000000,  2.744129)
  15 Fe ( 0.000000,  0.000000,  2.824605)
  16 Fe ( 0.000000,  0.000000,  2.830456)
  17 Fe ( 0.000000,  0.000000,  2.753034)
  18 Fe ( 0.000000,  0.000000,  2.790361)
  19 Fe ( 0.000000,  0.000000,  2.253865)
  20 Fe ( 0.000000,  0.000000,  2.827194)
  21 Fe ( 0.000000,  0.000000,  2.751889)
  22 Fe ( 0.000000,  0.000000,  2.747167)
  23 Fe ( 0.000000,  0.000000,  2.236382)
  24 Fe ( 0.000000,  0.000000,  2.832317)
  25 Fe ( 0.000000,  0.000000,  2.750314)
  26 Fe ( 0.000000,  0.000000,  2.749084)
  27 Fe ( 0.000000,  0.000000,  2.874076)
  28 Fe ( 0.000000,  0.000000,  2.833315)
  29 Fe ( 0.000000,  0.000000,  2.752008)
  30 Fe ( 0.000000,  0.000000,  2.744076)
  31 Fe ( 0.000000,  0.000000,  2.874548)
  32 Fe ( 0.000000,  0.000000,  2.830447)
  33 Fe ( 0.000000,  0.000000,  2.748606)
  34 Fe ( 0.000000,  0.000000,  2.744003)
  35 Fe ( 0.000000,  0.000000,  2.254732)
  36 O  ( 0.000000,  0.000000,  0.025674)

Energy contributions relative to reference atoms: (reference = -1248341.217899)

Kinetic:       +837.122493
Potential:     -732.458046
External:        +0.000000
XC:            -2641.176722
Entropy (-ST):   -1.663772
Local:           +2.423813
--------------------------
Free energy:   -2535.752234
Extrapolated:  -2534.920348

Spin contamination: 2.565005 electrons
Showing only first 2 kpts
                      Up                     Down
 Kpt  Band  Eigenvalues  Occupancy  Eigenvalues  Occupancy
  0   145     -6.43519    1.00000     -3.60764    0.00000
  0   146     -6.41378    1.00000     -3.58895    0.00000
  0   147     -6.39578    1.00000     -3.57710    0.00000
  0   148     -6.37848    1.00000     -3.55321    0.00000

  1   145     -6.35450    1.00000     -3.52119    0.00000
  1   146     -6.31869    1.00000     -3.51370    0.00000
  1   147     -6.31128    1.00000     -3.50240    0.00000
  1   148     -6.27963    1.00000     -3.49214    0.00000


Fermi level: -4.89719

No gap

Forces in eV/Ang:
  0 Fe   -0.00094    0.00069   -0.15176
  1 Fe    0.00069    0.00407    0.04424
  2 Fe   -0.03012   -0.01835   -0.09470
  3 Fe    0.06195   -0.03700    0.03965
  4 Fe    0.00566    0.00757   -0.15877
  5 Fe   -0.01552   -0.00834    0.03506
  6 Fe   -0.02951   -0.01955   -0.09574
  7 Fe   -0.15881   -0.09297   -0.13266
  8 Fe   -0.00290    0.00081   -0.14974
  9 Fe    0.00233   -0.00134    0.04550
 10 Fe    0.00085   -0.00058    0.08217
 11 Fe   -0.00007    0.07191    0.03667
 12 Fe   -0.00205    0.00232   -0.14975
 13 Fe    0.01675    0.00855    0.06065
 14 Fe    0.03568   -0.01673   -0.09797
 15 Fe   -0.06198   -0.03694    0.03745
 16 Fe   -0.00370    0.00523   -0.15976
 17 Fe    0.01520   -0.00870    0.03415
 18 Fe   -0.00008    0.00029   -0.33153
 19 Fe   -0.00692   -1.28405   -0.59293
 20 Fe    0.00107   -0.00050   -0.15796
 21 Fe   -0.00048    0.01757    0.03514
 22 Fe    0.00232    0.03541   -0.09552
 23 Fe   -1.09514    0.63203   -0.59238
 24 Fe   -0.00361   -0.00854   -0.15871
 25 Fe   -0.01771    0.01023    0.06458
 26 Fe    0.00179   -0.00092   -0.07234
 27 Fe    0.00283    0.18201   -0.13080
 28 Fe   -0.00702    0.00419   -0.15865
 29 Fe    0.00098   -0.01885    0.06063
 30 Fe    0.03259   -0.02266   -0.09846
 31 Fe    0.16288   -0.09207   -0.13509
 32 Fe   -0.00624    0.00081   -0.15974
 33 Fe   -0.00314   -0.00261    0.04431
 34 Fe    0.00071    0.03562   -0.09497
 35 Fe    1.11038    0.64884   -0.59182
 36 O    -0.00490    0.00100    2.98372

BFGS:    1 21:49:42    -2534.920348        2.9837
System changes: positions 

Initializing position-dependent things.

Density initialized from wave functions
                                          
                                          
                                          
                                          
                                          
                   O                      
          Fe    Fe     Fe                 
           FFe   FFe   FFe                
             Fe     Fe    Fe              
             Fe    Fe    Fe               
              Fe     Fe    Fe             
             Fe     Fe    Fe              
               Fe     Fe    Fe            
                 Fe    Fe     Fe          
          Fe    Fe    Fe                  
            Fe    Fe    Fe                
             Fe     Fe    Fe              
                                          
                                          
                                          
                                          

Positions:
   0 Fe     0.000000    0.000000   10.000000    ( 0.0000,  0.0000,  2.7500)
   1 Fe     1.298117    0.749468   12.119817    ( 0.0000,  0.0000,  2.6728)
   2 Fe    -0.000396    1.498483   14.258026    ( 0.0000,  0.0000,  2.6756)
   3 Fe     0.002801   -0.001664   16.396397    ( 0.0000,  0.0000,  2.7532)
   4 Fe    -1.298117    2.248405   10.000000    ( 0.0000,  0.0000,  2.7500)
   5 Fe     0.000000    2.997873   12.119817    ( 0.0000,  0.0000,  2.6728)
   6 Fe    -1.298684    3.747101   14.257977    ( 0.0000,  0.0000,  2.6756)
   7 Fe    -1.304178    2.244871   16.389559    ( 0.0000,  0.0000,  2.7532)
   8 Fe    -2.596234    4.496810   10.000000    ( 0.0000,  0.0000,  2.7500)
   9 Fe    -1.298117    5.246278   12.119817    ( 0.0000,  0.0000,  2.6728)
  10 Fe    -2.596202    5.995723   14.263173    ( 0.0000,  0.0000,  2.6756)
  11 Fe    -2.596250    4.500050   16.396276    ( 0.0000,  0.0000,  2.7532)
  12 Fe     2.596234    0.000000   10.000000    ( 0.0000,  0.0000,  2.7500)
  13 Fe     3.894352    0.749468   12.119817    ( 0.0000,  0.0000,  2.6728)
  14 Fe     2.596852    1.498541   14.257913    ( 0.0000,  0.0000,  2.6756)
  15 Fe     2.593440   -0.001642   16.396308    ( 0.0000,  0.0000,  2.7532)
  16 Fe     1.298117    2.248405   10.000000    ( 0.0000,  0.0000,  2.7500)
  17 Fe     2.596234    2.997873   12.119817    ( 0.0000,  0.0000,  2.6728)
  18 Fe     1.298134    3.747339   14.247072    ( 0.0000,  0.0000,  2.6756)
  19 Fe     1.297780    2.160433   16.353988    ( 0.0000,  0.0000,  2.7532)
  20 Fe     0.000000    4.496810   10.000000    ( 0.0000,  0.0000,  2.7500)
  21 Fe     1.298117    5.246278   12.119817    ( 0.0000,  0.0000,  2.6728)
  22 Fe    -0.000072    5.996360   14.257982    ( 0.0000,  0.0000,  2.6756)
  23 Fe    -0.075447    4.540360   16.354052    ( 0.0000,  0.0000,  2.7532)
  24 Fe     5.192469    0.000000   10.000000    ( 0.0000,  0.0000,  2.7500)
  25 Fe     6.490586    0.749468   12.119817    ( 0.0000,  0.0000,  2.6728)
  26 Fe     5.192519    1.498912   14.257950    ( 0.0000,  0.0000,  2.6756)
  27 Fe     5.192552    0.006941   16.389613    ( 0.0000,  0.0000,  2.7532)
  28 Fe     3.894352    2.248405   10.000000    ( 0.0000,  0.0000,  2.7500)
  29 Fe     5.192469    2.997873   12.119817    ( 0.0000,  0.0000,  2.6728)
  30 Fe     3.895012    3.747000   14.257899    ( 0.0000,  0.0000,  2.6756)
  31 Fe     3.900567    2.244877   16.389484    ( 0.0000,  0.0000,  2.7532)
  32 Fe     2.596234    4.496810   10.000000    ( 0.0000,  0.0000,  2.7500)
  33 Fe     3.894352    5.246278   12.119817    ( 0.0000,  0.0000,  2.6728)
  34 Fe     2.596426    5.996329   14.258017    ( 0.0000,  0.0000,  2.6756)
  35 Fe     2.672324    4.541121   16.354009    ( 0.0000,  0.0000,  2.7532)
  36 O      1.297850    3.747430   17.306015    ( 0.0000,  0.0000,  0.0000)

Unit cell:
           periodic     x           y           z      points  spacing
  1. axis:    yes    7.788703    0.000000    0.000000    36     0.1874
  2. axis:    yes   -3.894352    6.745215    0.000000    36     0.1874
  3. axis:    no     0.000000    0.000000   26.359450   148     0.1781

  Lengths:   7.788703   7.788703  26.359450
  Angles:   90.000000  90.000000 120.000000

Effective grid spacing dv^(1/3) = 0.1933

     iter     time        total  log10-change:  magmom
                         energy  eigst   dens
iter:   1 21:51:21 -2537.911296  -1.20           +96.1791
iter:   2 21:52:01 -2572.100847  -1.11  -1.72    +97.2631
iter:   3 21:52:42 -2537.853465  -1.34  -1.09    +94.9641
iter:   4 21:53:21 -2535.514248  -2.20  -1.61    +93.4590
iter:   5 21:54:01 -2535.020055  -2.50  -2.02    +95.4625
iter:   6 21:54:42 -2535.098822  -3.12  -2.61    +95.5241
iter:   7 21:55:21 -2535.130075c -3.10  -2.41    +95.6934
iter:   8 21:56:01 -2535.197208c -2.86  -2.59    +96.1281
iter:   9 21:56:42 -2535.146118c -3.37  -2.48    +96.1459
iter:  10 21:57:21 -2535.151459c -3.43  -2.97    +96.3233
iter:  11 21:58:01 -2535.152918c -3.88  -2.97    +96.3514
iter:  12 21:58:42 -2535.157770c -3.93  -3.07    +96.5064
iter:  13 21:59:21 -2535.166303c -3.51  -3.08    +96.8410
iter:  14 22:00:01 -2535.170306c -4.45  -2.89    +96.6384
iter:  15 22:00:42 -2535.169281c -3.92  -2.80    +96.8591
iter:  16 22:01:21 -2535.170282c -4.46  -2.85    +96.7983
iter:  17 22:02:01 -2535.164212c -4.19  -2.85    +96.8661
iter:  18 22:02:42 -2535.163273c -4.31  -2.87    +96.8262
iter:  19 22:03:21 -2535.166431c -4.69  -2.84    +96.8344
iter:  20 22:04:01 -2535.161191c -4.68  -2.80    +96.8184
iter:  21 22:04:42 -2535.163602c -4.35  -3.06    +96.8001
iter:  22 22:05:21 -2535.160348c -5.13  -3.16    +96.8037
iter:  23 22:06:02 -2535.162263c -5.00  -3.26    +96.8142
iter:  24 22:06:42 -2535.161950c -5.27  -3.44    +96.8015
iter:  25 22:07:22 -2535.162924c -4.95  -3.48    +96.7676
iter:  26 22:08:02 -2535.163743c -5.56  -3.47    +96.7930
iter:  27 22:08:42 -2535.163478c -4.73  -3.60    +96.8249
iter:  28 22:09:22 -2535.163779c -5.63  -3.43    +96.7929
iter:  29 22:10:02 -2535.165530c -5.17  -3.73    +96.7458
iter:  30 22:10:42 -2535.164695c -4.97  -3.22    +96.7192
iter:  31 22:11:22 -2535.165373c -5.76  -3.18    +96.7340
iter:  32 22:12:02 -2535.166600c -5.90  -3.17    +96.7292
iter:  33 22:12:42 -2535.169718c -5.54  -3.10    +96.7294
iter:  34 22:13:22 -2535.164467c -5.39  -2.95    +96.7320
iter:  35 22:14:02 -2535.162471c -4.78  -3.25    +96.7242
iter:  36 22:14:42 -2535.162086c -5.40  -3.51    +96.7268
iter:  37 22:15:22 -2535.163185c -5.05  -3.55    +96.7424
iter:  38 22:16:02 -2535.162805c -4.75  -3.43    +96.7559
iter:  39 22:16:42 -2535.162216c -5.07  -3.29    +96.7514
iter:  40 22:17:22 -2535.162163c -5.31  -3.76    +96.7521
iter:  41 22:18:02 -2535.163254c -5.53  -4.06c   +96.7413
iter:  42 22:18:42 -2535.160727c -5.32  -3.48    +96.7880
iter:  43 22:19:22 -2535.160223c -5.48  -3.52    +96.7978
iter:  44 22:20:02 -2535.161245c -5.72  -3.39    +96.7764
iter:  45 22:20:42 -2535.155821c -5.05  -3.63    +96.8231
iter:  46 22:21:22 -2535.167427c -4.20  -3.40    +96.7112
iter:  47 22:22:02 -2535.168824c -4.82  -3.03    +96.7124
iter:  48 22:22:42 -2535.172218c -4.95  -2.97    +96.7179
iter:  49 22:23:22 -2535.170341c -6.00  -2.86    +96.7173
iter:  50 22:24:02 -2535.172375c -6.02  -2.92    +96.7104
iter:  51 22:24:42 -2535.161694c -4.63  -2.87    +96.7126
iter:  52 22:25:22 -2535.161431c -5.23  -3.33    +96.7102
iter:  53 22:26:02 -2535.161987c -5.29  -3.34    +96.7165
iter:  54 22:26:42 -2535.163216c -5.07  -3.78    +96.7255
iter:  55 22:27:22 -2535.162740c -5.83  -3.48    +96.7256
iter:  56 22:28:02 -2535.162660c -6.18  -3.68    +96.7272
iter:  57 22:28:42 -2535.162703c -6.44  -3.87    +96.7230
iter:  58 22:29:22 -2535.162694c -6.62  -3.65    +96.7272
iter:  59 22:30:02 -2535.162574c -5.20  -3.74    +96.7557
iter:  60 22:30:42 -2535.162723c -5.77  -3.80    +96.7559
iter:  61 22:31:22 -2535.162659c -6.64  -3.61    +96.7539
iter:  62 22:32:02 -2535.163092c -5.92  -3.64    +96.7616
iter:  63 22:32:42 -2535.162679c -6.62  -3.43    +96.7539
iter:  64 22:33:22 -2535.163026c -5.28  -3.66    +96.7512
iter:  65 22:34:02 -2535.162892c -6.42  -3.98    +96.7540
iter:  66 22:34:42 -2535.162911c -6.38  -4.18c   +96.7613
iter:  67 22:35:22 -2535.162996c -6.53  -3.82    +96.7631
iter:  68 22:36:02 -2535.162770c -6.39  -3.77    +96.7612
iter:  69 22:36:42 -2535.162802c -7.18  -4.21c   +96.7621
iter:  70 22:37:22 -2535.162783c -7.50c -4.17c   +96.7608

Converged after 70 iterations.

Dipole moment: (-3.849136, -6.894913, -0.043578) |e|*Ang

Total magnetic moment: (0.000000, 0.000000, 96.760772)
Local magnetic moments:
   0 Fe ( 0.000000,  0.000000,  2.832865)
   1 Fe ( 0.000000,  0.000000,  2.748813)
   2 Fe ( 0.000000,  0.000000,  2.740682)
   3 Fe ( 0.000000,  0.000000,  2.820641)
   4 Fe ( 0.000000,  0.000000,  2.837418)
   5 Fe ( 0.000000,  0.000000,  2.748323)
   6 Fe ( 0.000000,  0.000000,  2.742600)
   7 Fe ( 0.000000,  0.000000,  2.872788)
   8 Fe ( 0.000000,  0.000000,  2.833030)
   9 Fe ( 0.000000,  0.000000,  2.749676)
  10 Fe ( 0.000000,  0.000000,  2.748924)
  11 Fe ( 0.000000,  0.000000,  2.823124)
  12 Fe ( 0.000000,  0.000000,  2.833043)
  13 Fe ( 0.000000,  0.000000,  2.750803)
  14 Fe ( 0.000000,  0.000000,  2.740055)
  15 Fe ( 0.000000,  0.000000,  2.823038)
  16 Fe ( 0.000000,  0.000000,  2.833585)
  17 Fe ( 0.000000,  0.000000,  2.749712)
  18 Fe ( 0.000000,  0.000000,  2.789350)
  19 Fe ( 0.000000,  0.000000,  2.443742)
  20 Fe ( 0.000000,  0.000000,  2.830542)
  21 Fe ( 0.000000,  0.000000,  2.748340)
  22 Fe ( 0.000000,  0.000000,  2.742603)
  23 Fe ( 0.000000,  0.000000,  2.431514)
  24 Fe ( 0.000000,  0.000000,  2.837416)
  25 Fe ( 0.000000,  0.000000,  2.749014)
  26 Fe ( 0.000000,  0.000000,  2.741793)
  27 Fe ( 0.000000,  0.000000,  2.873042)
  28 Fe ( 0.000000,  0.000000,  2.838536)
  29 Fe ( 0.000000,  0.000000,  2.750789)
  30 Fe ( 0.000000,  0.000000,  2.739988)
  31 Fe ( 0.000000,  0.000000,  2.872909)
  32 Fe ( 0.000000,  0.000000,  2.833573)
  33 Fe ( 0.000000,  0.000000,  2.748800)
  34 Fe ( 0.000000,  0.000000,  2.740617)
  35 Fe ( 0.000000,  0.000000,  2.444476)
  36 O  ( 0.000000,  0.000000,  0.050135)

Energy contributions relative to reference atoms: (reference = -1248341.217899)

Kinetic:       +836.450489
Potential:     -731.734343
External:        +0.000000
XC:            -2641.437738
Entropy (-ST):   -1.659438
Local:           +2.388528
--------------------------
Free energy:   -2535.992502
Extrapolated:  -2535.162783

Spin contamination: 2.562361 electrons
Showing only first 2 kpts
                      Up                     Down
 Kpt  Band  Eigenvalues  Occupancy  Eigenvalues  Occupancy
  0   145     -6.47271    1.00000     -3.63898    0.00000
  0   146     -6.45335    1.00000     -3.61518    0.00000
  0   147     -6.43796    1.00000     -3.60449    0.00000
  0   148     -6.42189    1.00000     -3.58025    0.00000

  1   145     -6.39302    1.00000     -3.54605    0.00000
  1   146     -6.35936    1.00000     -3.54119    0.00000
  1   147     -6.35159    1.00000     -3.52842    0.00000
  1   148     -6.31681    1.00000     -3.51925    0.00000


Fermi level: -4.93183

No gap

Forces in eV/Ang:
  0 Fe   -0.00146    0.00099   -0.15192
  1 Fe    0.00036   -0.00451    0.04117
  2 Fe   -0.04177   -0.01557   -0.12988
  3 Fe    0.02284   -0.01409    0.03971
  4 Fe    0.00593    0.00804   -0.16165
  5 Fe   -0.02848   -0.01550    0.01158
  6 Fe   -0.03316   -0.02992   -0.13020
  7 Fe   -0.13494   -0.07882   -0.09051
  8 Fe   -0.00316    0.00052   -0.14986
  9 Fe   -0.00501    0.00290    0.04212
 10 Fe    0.00038   -0.00019    0.08380
 11 Fe   -0.00005    0.02575    0.03589
 12 Fe   -0.00191    0.00269   -0.14989
 13 Fe    0.02384    0.01327    0.04913
 14 Fe    0.04560   -0.01438   -0.13151
 15 Fe   -0.02239   -0.01378    0.03629
 16 Fe   -0.00400    0.00418   -0.15996
 17 Fe    0.02773   -0.01595    0.01050
 18 Fe   -0.00003    0.00025   -0.21692
 19 Fe   -0.00406   -0.23805    0.02926
 20 Fe    0.00018    0.00001   -0.15843
 21 Fe   -0.00077    0.03236    0.01164
 22 Fe    0.00949    0.04386   -0.12986
 23 Fe   -0.19931    0.11460    0.02686
 24 Fe   -0.00389   -0.00900   -0.16159
 25 Fe   -0.02521    0.01456    0.05331
 26 Fe    0.00209   -0.00118   -0.09933
 27 Fe    0.00267    0.15438   -0.08803
 28 Fe   -0.00721    0.00429   -0.16123
 29 Fe    0.00044   -0.02737    0.04908
 30 Fe    0.03534   -0.03240   -0.13211
 31 Fe    0.13745   -0.07721   -0.09292
 32 Fe   -0.00547    0.00159   -0.15993
 33 Fe    0.00413    0.00198    0.04124
 34 Fe   -0.00761    0.04426   -0.13013
 35 Fe    0.20408    0.12201    0.03204
 36 O     0.00156   -0.00060    1.37952

BFGS:    2 22:37:47    -2535.162783        1.3795
System changes: positions 

Initializing position-dependent things.

Density initialized from wave functions
                                          
                                          
                                          
                                          
                                          
                   O                      
          Fe    Fe     Fe                 
           FFe   FFe   FFe                
             Fe     Fe    Fe              
             Fe    Fe    Fe               
              Fe     Fe    Fe             
             Fe     Fe    Fe              
               Fe     Fe    Fe            
                 Fe    Fe     Fe          
          Fe    Fe    Fe                  
            Fe    Fe    Fe                
             Fe     Fe    Fe              
                                          
                                          
                                          
                                          

Positions:
   0 Fe     0.000000    0.000000   10.000000    ( 0.0000,  0.0000,  2.7500)
   1 Fe     1.298117    0.749468   12.119817    ( 0.0000,  0.0000,  2.6728)
   2 Fe    -0.001458    1.498047   14.254699    ( 0.0000,  0.0000,  2.6756)
   3 Fe     0.003657   -0.002185   16.397481    ( 0.0000,  0.0000,  2.7532)
   4 Fe    -1.298117    2.248405   10.000000    ( 0.0000,  0.0000,  2.7500)
   5 Fe     0.000000    2.997873   12.119817    ( 0.0000,  0.0000,  2.6728)
   6 Fe    -1.299559    3.746351   14.254637    ( 0.0000,  0.0000,  2.6756)
   7 Fe    -1.308012    2.242630   16.386830    ( 0.0000,  0.0000,  2.7532)
   8 Fe    -2.596234    4.496810   10.000000    ( 0.0000,  0.0000,  2.7500)
   9 Fe    -1.298117    5.246278   12.119817    ( 0.0000,  0.0000,  2.6728)
  10 Fe    -2.596189    5.995715   14.265461    ( 0.0000,  0.0000,  2.6756)
  11 Fe    -2.596252    4.501027   16.397260    ( 0.0000,  0.0000,  2.7532)
  12 Fe     2.596234    0.000000   10.000000    ( 0.0000,  0.0000,  2.7500)
  13 Fe     3.894352    0.749468   12.119817    ( 0.0000,  0.0000,  2.6728)
  14 Fe     2.598029    1.498139   14.254533    ( 0.0000,  0.0000,  2.6756)
  15 Fe     2.592593   -0.002156   16.397305    ( 0.0000,  0.0000,  2.7532)
  16 Fe     1.298117    2.248405   10.000000    ( 0.0000,  0.0000,  2.7500)
  17 Fe     2.596234    2.997873   12.119817    ( 0.0000,  0.0000,  2.6728)
  18 Fe     1.298133    3.747345   14.240472    ( 0.0000,  0.0000,  2.6756)
  19 Fe     1.297651    2.147098   16.350855    ( 0.0000,  0.0000,  2.7532)
  20 Fe     0.000000    4.496810   10.000000    ( 0.0000,  0.0000,  2.7500)
  21 Fe     1.298117    5.246278   12.119817    ( 0.0000,  0.0000,  2.6728)
  22 Fe     0.000144    5.997498   14.254651    ( 0.0000,  0.0000,  2.6756)
  23 Fe    -0.086749    4.546874   16.350872    ( 0.0000,  0.0000,  2.7532)
  24 Fe     5.192469    0.000000   10.000000    ( 0.0000,  0.0000,  2.7500)
  25 Fe     6.490586    0.749468   12.119817    ( 0.0000,  0.0000,  2.6728)
  26 Fe     5.192574    1.498881   14.255393    ( 0.0000,  0.0000,  2.6756)
  27 Fe     5.192626    0.011330   16.386947    ( 0.0000,  0.0000,  2.7532)
  28 Fe     3.894352    2.248405   10.000000    ( 0.0000,  0.0000,  2.7500)
  29 Fe     5.192469    2.997873   12.119817    ( 0.0000,  0.0000,  2.6728)
  30 Fe     3.895951    3.746178   14.254503    ( 0.0000,  0.0000,  2.6756)
  31 Fe     3.904479    2.242677   16.386689    ( 0.0000,  0.0000,  2.7532)
  32 Fe     2.596234    4.496810   10.000000    ( 0.0000,  0.0000,  2.7500)
  33 Fe     3.894352    5.246278   12.119817    ( 0.0000,  0.0000,  2.6728)
  34 Fe     2.596268    5.997475   14.254684    ( 0.0000,  0.0000,  2.6756)
  35 Fe     2.683818    4.547894   16.350943    ( 0.0000,  0.0000,  2.7532)
  36 O      1.297855    3.747423   17.353992    ( 0.0000,  0.0000,  0.0000)

Unit cell:
           periodic     x           y           z      points  spacing
  1. axis:    yes    7.788703    0.000000    0.000000    36     0.1874
  2. axis:    yes   -3.894352    6.745215    0.000000    36     0.1874
  3. axis:    no     0.000000    0.000000   26.359450   148     0.1781

  Lengths:   7.788703   7.788703  26.359450
  Angles:   90.000000  90.000000 120.000000

Effective grid spacing dv^(1/3) = 0.1933

     iter     time        total  log10-change:  magmom
                         energy  eigst   dens
iter:   1 22:39:28 -2536.083807  -1.73           +96.7630
iter:   2 22:40:08 -2544.823712  -1.66  -1.98    +97.3649
iter:   3 22:40:48 -2536.404605  -1.86  -1.35    +96.8008
iter:   4 22:41:28 -2535.372094  -2.68  -1.78    +96.3660
iter:   5 22:42:08 -2535.228140  -3.26  -2.28    +96.8626
iter:   6 22:42:48 -2535.201282  -3.33  -2.58    +96.9464
iter:   7 22:43:28 -2535.194660c -3.84  -2.76    +96.9820
iter:   8 22:44:08 -2535.192061c -3.93  -3.07    +97.0013
iter:   9 22:44:47 -2535.208664c -3.93  -3.09    +96.9211
iter:  10 22:45:28 -2535.228622c -3.58  -2.97    +96.9260
iter:  11 22:46:08 -2535.234299c -3.95  -2.68    +96.8776
iter:  12 22:46:48 -2535.250138c -3.79  -2.63    +96.8280
iter:  13 22:47:28 -2535.220006c -4.19  -2.51    +96.8850
iter:  14 22:48:08 -2535.208185c -4.30  -2.62    +96.8955
iter:  15 22:48:47 -2535.202755c -4.30  -2.69    +96.9119
iter:  16 22:49:28 -2535.251747c -3.57  -2.74    +96.8990
iter:  17 22:50:07 -2535.194505c -4.13  -2.44    +96.8831
iter:  18 22:50:47 -2535.193106c -4.29  -3.07    +96.8608
iter:  19 22:51:28 -2535.207583c -4.56  -2.98    +96.9288
iter:  20 22:52:07 -2535.231175c -3.53  -3.15    +97.1155
iter:  21 22:52:47 -2535.227670c -4.28  -2.63    +97.0811
iter:  22 22:53:27 -2535.238152c -4.63  -2.64    +97.0708
iter:  23 22:54:07 -2535.219656c -4.55  -2.59    +97.0578
iter:  24 22:54:47 -2535.215709c -4.62  -2.68    +97.0611
iter:  25 22:55:27 -2535.261989c -3.51  -2.71    +97.0596
iter:  26 22:56:07 -2535.200022c -4.37  -2.44    +97.0842
iter:  27 22:56:47 -2535.200015c -4.75  -3.41    +97.1288
iter:  28 22:57:27 -2535.213362c -4.57  -3.42    +97.0713
iter:  29 22:58:07 -2535.220453c -4.20  -3.25    +97.0313
iter:  30 22:58:47 -2535.217865c -4.41  -2.99    +96.9746
iter:  31 22:59:27 -2535.221543c -5.09  -3.02    +96.9764
iter:  32 23:00:07 -2535.216952c -5.03  -2.93    +96.9769
iter:  33 23:00:47 -2535.225547c -5.27  -3.08    +96.9835
iter:  34 23:01:27 -2535.220519c -5.48  -2.82    +96.9862
iter:  35 23:02:07 -2535.212549c -4.81  -2.92    +96.9788
iter:  36 23:02:47 -2535.212929c -5.53  -3.41    +96.9836
iter:  37 23:03:27 -2535.213969c -5.56  -3.42    +96.9859
iter:  38 23:04:06 -2535.214206c -5.05  -3.49    +96.9984
iter:  39 23:04:46 -2535.214462c -5.25  -3.67    +96.9952
iter:  40 23:05:26 -2535.214716c -5.79  -3.60    +96.9952
iter:  41 23:06:06 -2535.214275c -6.10  -3.52    +96.9911
iter:  42 23:06:46 -2535.215725c -5.76  -3.70    +96.9958
iter:  43 23:07:26 -2535.214585c -5.98  -3.31    +96.9961
iter:  44 23:08:06 -2535.218022c -4.65  -3.47    +96.9964
iter:  45 23:08:46 -2535.217647c -5.71  -3.01    +96.9957
iter:  46 23:09:26 -2535.218227c -6.18  -3.06    +96.9960
iter:  47 23:10:06 -2535.219276c -6.16  -3.03    +96.9956
iter:  48 23:10:46 -2535.219107c -6.57  -2.99    +96.9958
iter:  49 23:11:26 -2535.223484c -5.34  -3.00    +96.9950
iter:  50 23:12:05 -2535.216395c -4.35  -2.84    +96.9987
iter:  51 23:12:45 -2535.211780c -5.09  -3.12    +96.9872
iter:  52 23:13:25 -2535.211861c -5.42  -3.42    +96.9654
iter:  53 23:14:05 -2535.213119c -5.31  -3.42    +96.9820
iter:  54 23:14:45 -2535.215471c -4.33  -3.63    +97.0305
iter:  55 23:15:25 -2535.217663c -5.23  -3.37    +97.0116
iter:  56 23:16:05 -2535.221723c -4.89  -3.20    +96.9974
iter:  57 23:16:45 -2535.221431c -4.79  -2.95    +96.9869
iter:  58 23:17:25 -2535.221230c -5.92  -2.88    +96.9924
iter:  59 23:18:05 -2535.222934c -6.11  -2.92    +96.9961
iter:  60 23:18:45 -2535.223045c -6.46  -2.89    +96.9941
iter:  61 23:19:25 -2535.226203c -5.53  -2.88    +96.9838
iter:  62 23:20:05 -2535.232572c -4.97  -2.80    +96.9992
iter:  63 23:20:45 -2535.211611c -4.30  -2.75    +96.9828
iter:  64 23:21:25 -2535.215007c -5.39  -3.24    +96.9848
iter:  65 23:22:04 -2535.211742c -5.02  -3.15    +96.9910
iter:  66 23:22:44 -2535.209858c -4.97  -3.50    +96.9925
iter:  67 23:23:24 -2535.215267c -4.49  -3.37    +97.0015
iter:  68 23:24:04 -2535.214552c -4.36  -3.28    +97.0397
iter:  69 23:24:44 -2535.216027c -4.96  -3.58    +97.0382
iter:  70 23:25:24 -2535.214698c -5.66  -3.33    +97.0436
iter:  71 23:26:04 -2535.212683c -5.23  -3.57    +97.0576
iter:  72 23:26:44 -2535.217604c -4.70  -3.90    +97.0143
iter:  73 23:27:24 -2535.217530c -4.55  -3.14    +96.9787
iter:  74 23:28:04 -2535.217183c -5.87  -2.98    +96.9923
iter:  75 23:28:44 -2535.219140c -5.64  -3.09    +97.0034
iter:  76 23:29:24 -2535.220179c -6.22  -3.04    +96.9949
iter:  77 23:30:04 -2535.222789c -4.78  -2.98    +96.9592
iter:  78 23:30:44 -2535.219801c -5.88  -2.80    +96.9749
iter:  79 23:31:24 -2535.217707c -5.95  -2.91    +96.9727
iter:  80 23:32:03 -2535.216897c -6.24  -2.94    +96.9744
iter:  81 23:32:43 -2535.215568c -5.71  -2.98    +96.9719
iter:  82 23:33:23 -2535.213000c -4.99  -2.97    +96.9773
iter:  83 23:34:03 -2535.210228c -4.61  -3.36    +96.9605
iter:  84 23:34:43 -2535.218830c -3.84  -2.94    +97.0294
iter:  85 23:35:23 -2535.207343c -3.98  -3.02    +97.0608
iter:  86 23:36:03 -2535.212749c -5.23  -3.02    +97.0409
iter:  87 23:36:43 -2535.214023c -4.92  -3.24    +97.0339
iter:  88 23:37:23 -2535.215931c -4.58  -4.27c   +97.0106
iter:  89 23:38:03 -2535.215804c -5.34  -3.29    +97.0078
iter:  90 23:38:43 -2535.216014c -5.78  -3.30    +97.0051
iter:  91 23:39:23 -2535.216098c -6.41  -3.28    +97.0061
iter:  92 23:40:03 -2535.216406c -6.51  -3.27    +97.0061
iter:  93 23:40:43 -2535.218855c -4.76  -3.23    +97.0067
iter:  94 23:41:23 -2535.214598c -5.52  -3.03    +97.0052
iter:  95 23:42:02 -2535.215084c -6.10  -3.47    +96.9936
iter:  96 23:42:42 -2535.214615c -5.40  -3.43    +96.9904
iter:  97 23:43:22 -2535.214110c -5.61  -3.72    +97.0001
iter:  98 23:44:02 -2535.214342c -6.03  -3.82    +96.9996
iter:  99 23:44:42 -2535.214352c -6.07  -3.91    +97.0091
iter: 100 23:45:22 -2535.213671c -5.08  -3.64    +97.0426
iter: 101 23:46:02 -2535.213360c -5.69  -3.21    +97.0366
iter: 102 23:46:42 -2535.212594c -5.81  -3.33    +97.0396
iter: 103 23:47:22 -2535.213021c -5.99  -3.44    +97.0341
iter: 104 23:48:02 -2535.212940c -6.43  -3.66    +97.0276
iter: 105 23:48:42 -2535.213306c -5.70  -3.76    +97.0379
iter: 106 23:49:22 -2535.213484c -5.66  -3.78    +97.0179
iter: 107 23:50:02 -2535.213989c -5.96  -3.83    +97.0120
iter: 108 23:50:41 -2535.214743c -5.40  -3.67    +96.9994
iter: 109 23:51:22 -2535.214781c -6.34  -3.49    +97.0042
iter: 110 23:52:01 -2535.214843c -6.58  -3.52    +97.0058
iter: 111 23:52:41 -2535.215115c -6.22  -3.54    +97.0076
iter: 112 23:53:21 -2535.215284c -6.73  -3.54    +97.0072
iter: 113 23:54:01 -2535.215443c -6.66  -3.49    +97.0078
iter: 114 23:54:41 -2535.214546c -5.83  -3.38    +97.0074
iter: 115 23:55:21 -2535.214691c -6.34  -3.85    +97.0066
iter: 116 23:56:01 -2535.214056c -5.73  -3.82    +97.0055
iter: 117 23:56:41 -2535.214220c -6.44  -3.83    +97.0122
iter: 118 23:57:21 -2535.214304c -6.27  -4.24c   +97.0189
iter: 119 23:58:00 -2535.214281c -6.46  -4.46c   +97.0198
iter: 120 23:58:40 -2535.214311c -7.26  -4.32c   +97.0179
iter: 121 23:59:20 -2535.214292c -7.09  -4.23c   +97.0117
iter: 122 00:00:00 -2535.214239c -7.66c -4.10c   +97.0139

Converged after 122 iterations.

Dipole moment: (-3.672304, -6.990145, -0.066201) |e|*Ang

Total magnetic moment: (0.000000, 0.000000, 97.013950)
Local magnetic moments:
   0 Fe ( 0.000000,  0.000000,  2.826258)
   1 Fe ( 0.000000,  0.000000,  2.749056)
   2 Fe ( 0.000000,  0.000000,  2.741174)
   3 Fe ( 0.000000,  0.000000,  2.827472)
   4 Fe ( 0.000000,  0.000000,  2.830514)
   5 Fe ( 0.000000,  0.000000,  2.746430)
   6 Fe ( 0.000000,  0.000000,  2.742681)
   7 Fe ( 0.000000,  0.000000,  2.881617)
   8 Fe ( 0.000000,  0.000000,  2.826487)
   9 Fe ( 0.000000,  0.000000,  2.750118)
  10 Fe ( 0.000000,  0.000000,  2.751725)
  11 Fe ( 0.000000,  0.000000,  2.829765)
  12 Fe ( 0.000000,  0.000000,  2.826466)
  13 Fe ( 0.000000,  0.000000,  2.749196)
  14 Fe ( 0.000000,  0.000000,  2.740238)
  15 Fe ( 0.000000,  0.000000,  2.829657)
  16 Fe ( 0.000000,  0.000000,  2.826980)
  17 Fe ( 0.000000,  0.000000,  2.747903)
  18 Fe ( 0.000000,  0.000000,  2.792089)
  19 Fe ( 0.000000,  0.000000,  2.528957)
  20 Fe ( 0.000000,  0.000000,  2.824280)
  21 Fe ( 0.000000,  0.000000,  2.746449)
  22 Fe ( 0.000000,  0.000000,  2.742688)
  23 Fe ( 0.000000,  0.000000,  2.519957)
  24 Fe ( 0.000000,  0.000000,  2.830594)
  25 Fe ( 0.000000,  0.000000,  2.747414)
  26 Fe ( 0.000000,  0.000000,  2.739395)
  27 Fe ( 0.000000,  0.000000,  2.882072)
  28 Fe ( 0.000000,  0.000000,  2.831849)
  29 Fe ( 0.000000,  0.000000,  2.749177)
  30 Fe ( 0.000000,  0.000000,  2.740161)
  31 Fe ( 0.000000,  0.000000,  2.881787)
  32 Fe ( 0.000000,  0.000000,  2.826904)
  33 Fe ( 0.000000,  0.000000,  2.749041)
  34 Fe ( 0.000000,  0.000000,  2.741104)
  35 Fe ( 0.000000,  0.000000,  2.529451)
  36 O  ( 0.000000,  0.000000,  0.062121)

Energy contributions relative to reference atoms: (reference = -1248341.217899)

Kinetic:       +836.107468
Potential:     -731.377668
External:        +0.000000
XC:            -2641.492678
Entropy (-ST):   -1.655732
Local:           +2.376506
--------------------------
Free energy:   -2536.042105
Extrapolated:  -2535.214239

Spin contamination: 2.567487 electrons
Showing only first 2 kpts
                      Up                     Down
 Kpt  Band  Eigenvalues  Occupancy  Eigenvalues  Occupancy
  0   145     -6.49672    1.00000     -3.66138    0.00000
  0   146     -6.47782    1.00000     -3.63490    0.00000
  0   147     -6.46447    1.00000     -3.62402    0.00000
  0   148     -6.44864    1.00000     -3.59921    0.00000

  1   145     -6.41804    1.00000     -3.56667    0.00000
  1   146     -6.38602    1.00000     -3.55513    0.00000
  1   147     -6.37720    1.00000     -3.54637    0.00000
  1   148     -6.34161    1.00000     -3.53556    0.00000


Fermi level: -4.95470

No gap

Forces in eV/Ang:
  0 Fe   -0.00180    0.00121   -0.14388
  1 Fe    0.00017   -0.01243    0.03661
  2 Fe   -0.02334   -0.00920   -0.10999
  3 Fe   -0.00084    0.00007    0.03314
  4 Fe    0.00600    0.00811   -0.15317
  5 Fe   -0.03399   -0.01867   -0.01323
  6 Fe   -0.01893   -0.01665   -0.11009
  7 Fe   -0.08260   -0.04798   -0.06470
  8 Fe   -0.00319    0.00034   -0.14160
  9 Fe   -0.01189    0.00693    0.03729
 10 Fe    0.00003    0.00011    0.08167
 11 Fe    0.00001   -0.00262    0.02917
 12 Fe   -0.00177    0.00284   -0.14151
 13 Fe    0.02730    0.01546    0.02834
 14 Fe    0.02557   -0.00865   -0.11045
 15 Fe    0.00201    0.00071    0.02931
 16 Fe   -0.00415    0.00495   -0.15176
 17 Fe    0.03268   -0.01879   -0.01465
 18 Fe    0.00052   -0.00011   -0.10516
 19 Fe   -0.00302    0.25416    0.31407
 20 Fe    0.00090   -0.00039   -0.15064
 21 Fe   -0.00077    0.03867   -0.01317
 22 Fe    0.00496    0.02496   -0.10977
 23 Fe    0.22398   -0.13003    0.31123
 24 Fe   -0.00386   -0.00905   -0.15333
 25 Fe   -0.02900    0.01680    0.03256
 26 Fe    0.00178   -0.00107   -0.10336
 27 Fe    0.00182    0.09426   -0.06226
 28 Fe   -0.00723    0.00435   -0.15326
 29 Fe    0.00032   -0.03153    0.02822
 30 Fe    0.02009   -0.01783   -0.11091
 31 Fe    0.08442   -0.04693   -0.06675
 32 Fe   -0.00617    0.00138   -0.15161
 33 Fe    0.01084    0.00612    0.03669
 34 Fe   -0.00382    0.02490   -0.11015
 35 Fe   -0.22193   -0.12542    0.31688
 36 O     0.00112   -0.00034    0.54467

BFGS:    3 00:00:25    -2535.214239        0.5447
System changes: positions 

Initializing position-dependent things.

Density initialized from wave functions
                                          
                                          
                                          
                                          
                                          
                   O                      
          Fe    Fe     Fe                 
           FFe    Fe    Fe                
             Fe  Fe Fe Fe Fe              
             Fe    Fe    Fe               
              Fe     Fe    Fe             
             Fe     Fe    Fe              
               Fe     Fe    Fe            
                 Fe    Fe     Fe          
          Fe    Fe    Fe                  
            Fe    Fe    Fe                
             Fe     Fe    Fe              
                                          
                                          
                                          
                                          

Positions:
   0 Fe     0.000000    0.000000   10.000000    ( 0.0000,  0.0000,  2.7500)
   1 Fe     1.298117    0.749468   12.119817    ( 0.0000,  0.0000,  2.6728)
   2 Fe    -0.002133    1.497769   14.251895    ( 0.0000,  0.0000,  2.6756)
   3 Fe     0.003898   -0.002338   16.398360    ( 0.0000,  0.0000,  2.7532)
   4 Fe    -1.298117    2.248405   10.000000    ( 0.0000,  0.0000,  2.7500)
   5 Fe     0.000000    2.997873   12.119817    ( 0.0000,  0.0000,  2.6728)
   6 Fe    -1.300116    3.745873   14.251827    ( 0.0000,  0.0000,  2.6756)
   7 Fe    -1.310517    2.241172   16.384910    ( 0.0000,  0.0000,  2.7532)
   8 Fe    -2.596234    4.496810   10.000000    ( 0.0000,  0.0000,  2.7500)
   9 Fe    -1.298117    5.246278   12.119817    ( 0.0000,  0.0000,  2.6728)
  10 Fe    -2.596185    5.995715   14.267536    ( 0.0000,  0.0000,  2.6756)
  11 Fe    -2.596252    4.501273   16.398041    ( 0.0000,  0.0000,  2.7532)
  12 Fe     2.596234    0.000000   10.000000    ( 0.0000,  0.0000,  2.7500)
  13 Fe     3.894352    0.749468   12.119817    ( 0.0000,  0.0000,  2.6728)
  14 Fe     2.598775    1.497881   14.251705    ( 0.0000,  0.0000,  2.6756)
  15 Fe     2.592376   -0.002296   16.398092    ( 0.0000,  0.0000,  2.7532)
  16 Fe     1.298117    2.248405   10.000000    ( 0.0000,  0.0000,  2.7500)
  17 Fe     2.596234    2.997873   12.119817    ( 0.0000,  0.0000,  2.6728)
  18 Fe     1.298143    3.747345   14.236772    ( 0.0000,  0.0000,  2.6756)
  19 Fe     1.297559    2.146892   16.355008    ( 0.0000,  0.0000,  2.7532)
  20 Fe     0.000000    4.496810   10.000000    ( 0.0000,  0.0000,  2.7500)
  21 Fe     1.298117    5.246278   12.119817    ( 0.0000,  0.0000,  2.6728)
  22 Fe     0.000281    5.998225   14.251849    ( 0.0000,  0.0000,  2.6756)
  23 Fe    -0.086784    4.546878   16.354963    ( 0.0000,  0.0000,  2.7532)
  24 Fe     5.192469    0.000000   10.000000    ( 0.0000,  0.0000,  2.7500)
  25 Fe     6.490586    0.749468   12.119817    ( 0.0000,  0.0000,  2.6728)
  26 Fe     5.192620    1.498854   14.252883    ( 0.0000,  0.0000,  2.6756)
  27 Fe     5.192678    0.014191   16.385087    ( 0.0000,  0.0000,  2.7532)
  28 Fe     3.894352    2.248405   10.000000    ( 0.0000,  0.0000,  2.7500)
  29 Fe     5.192469    2.997873   12.119817    ( 0.0000,  0.0000,  2.6728)
  30 Fe     3.896546    3.745660   14.251664    ( 0.0000,  0.0000,  2.6756)
  31 Fe     3.907038    2.241247   16.384715    ( 0.0000,  0.0000,  2.7532)
  32 Fe     2.596234    4.496810   10.000000    ( 0.0000,  0.0000,  2.7500)
  33 Fe     3.894352    5.246278   12.119817    ( 0.0000,  0.0000,  2.6728)
  34 Fe     2.596167    5.998202   14.251875    ( 0.0000,  0.0000,  2.6756)
  35 Fe     2.683948    4.548058   16.355162    ( 0.0000,  0.0000,  2.7532)
  36 O      1.297870    3.747418   17.378224    ( 0.0000,  0.0000,  0.0000)

Unit cell:
           periodic     x           y           z      points  spacing
  1. axis:    yes    7.788703    0.000000    0.000000    36     0.1874
  2. axis:    yes   -3.894352    6.745215    0.000000    36     0.1874
  3. axis:    no     0.000000    0.000000   26.359450   148     0.1781

  Lengths:   7.788703   7.788703  26.359450
  Angles:   90.000000  90.000000 120.000000

Effective grid spacing dv^(1/3) = 0.1933

     iter     time        total  log10-change:  magmom
                         energy  eigst   dens
iter:   1 00:02:06 -2536.493820  -2.29           +97.0180
iter:   2 00:02:46 -2567.340678  -1.21  -1.78    +97.4815
iter:   3 00:03:26 -2535.375236  -1.61  -1.12    +95.6256
iter:   4 00:04:06 -2535.268117  -2.53  -2.22    +96.0845
iter:   5 00:04:46 -2535.202732  -3.45  -2.39    +96.6097
iter:   6 00:05:26 -2535.211991c -3.88  -2.87    +96.7505
iter:   7 00:06:06 -2535.197060c -4.16  -2.88    +96.7846
iter:   8 00:06:46 -2535.188724c -3.85  -3.11    +96.9422
iter:   9 00:07:26 -2535.206521c -4.21  -2.71    +96.9617
iter:  10 00:08:05 -2535.242710c -3.21  -3.12    +97.0350
iter:  11 00:08:46 -2535.242193c -4.26  -2.64    +97.0404
iter:  12 00:09:25 -2535.275415c -4.22  -2.75    +97.0468
iter:  13 00:10:05 -2535.280185c -4.83  -2.53    +97.0456
iter:  14 00:10:45 -2535.298918c -4.77  -2.51    +97.0696
iter:  15 00:11:25 -2535.207254c -3.59  -2.43    +97.0819
iter:  16 00:12:05 -2535.214765c -4.29  -2.66    +97.0784
iter:  17 00:12:45 -2535.237996c -3.66  -3.01    +97.1216
iter:  18 00:13:25 -2535.232697c -4.07  -2.89    +97.1377
iter:  19 00:14:05 -2535.229577c -4.61  -2.92    +97.1362
iter:  20 00:14:45 -2535.225779c -4.46  -3.55    +97.1462
iter:  21 00:15:25 -2535.246443c -4.54  -3.48    +97.1202
iter:  22 00:16:05 -2535.185141c -2.80  -2.80    +96.8655
iter:  23 00:16:45 -2535.265117c -3.63  -2.23    +97.0508
iter:  24 00:17:25 -2535.285187c -4.64  -2.52    +97.0506
iter:  25 00:18:05 -2535.265928c -5.40  -2.43    +97.0530
iter:  26 00:18:45 -2535.250431c -5.12  -2.51    +97.0623
iter:  27 00:19:25 -2535.293080c -4.75  -2.59    +97.0630
iter:  28 00:20:05 -2535.210175c -3.78  -2.43    +97.0634
iter:  29 00:20:45 -2535.209623c -4.36  -3.36    +97.0648
iter:  30 00:21:25 -2535.218454c -4.70  -3.53    +97.1125
iter:  31 00:22:05 -2535.244162c -3.96  -3.45    +97.1705
iter:  32 00:22:45 -2535.259014c -3.65  -2.77    +97.1982
iter:  33 00:23:25 -2535.264094c -4.05  -2.50    +97.1929
iter:  34 00:24:05 -2535.275910c -4.21  -2.45    +97.1754
iter:  35 00:24:45 -2535.266335c -4.59  -2.40    +97.1806
iter:  36 00:25:25 -2535.282631c -4.80  -2.41    +97.1820
iter:  37 00:26:05 -2535.199406c -3.61  -2.39    +97.1818
iter:  38 00:26:45 -2535.198452c -4.52  -2.69    +97.1764
iter:  39 00:27:24 -2535.199491c -4.26  -2.87    +97.2012
iter:  40 00:28:04 -2535.217589c -3.95  -2.98    +97.1224
iter:  41 00:28:45 -2535.172448c -3.84  -2.89    +97.1672
iter:  42 00:29:24 -2535.178230c -4.53  -2.85    +97.1346
iter:  43 00:30:04 -2535.124230c -3.90  -3.06    +97.2444
iter:  44 00:30:44 -2535.274737  -3.05  -2.71    +96.9318
iter:  45 00:31:24 -2535.308831  -3.27  -2.50    +96.9409
iter:  46 00:32:04 -2535.302220c -3.57  -2.35    +96.9876
iter:  47 00:32:44 -2535.285615c -4.24  -2.33    +96.9962
iter:  48 00:33:24 -2535.283588c -4.61  -2.38    +96.9909
iter:  49 00:34:04 -2535.265713c -4.74  -2.37    +97.0244
iter:  50 00:34:44 -2535.254761c -4.25  -2.44    +96.9984
iter:  51 00:35:24 -2535.189206c -3.37  -2.41    +97.0396
iter:  52 00:36:04 -2535.164154c -4.09  -2.88    +97.0112
iter:  53 00:36:44 -2535.236697c -3.52  -3.02    +97.1019
iter:  54 00:37:24 -2535.283200c -3.37  -2.77    +97.1142
iter:  55 00:38:04 -2535.240360c -3.45  -2.45    +97.1886
iter:  56 00:38:44 -2535.287598c -4.25  -2.48    +97.1782
iter:  57 00:39:24 -2535.288661c -4.32  -2.38    +97.1906
iter:  58 00:40:04 -2535.210319c -3.78  -2.36    +97.2101
iter:  59 00:40:44 -2535.198320c -3.80  -2.61    +97.2087
iter:  60 00:41:24 -2535.187287c -3.84  -2.73    +97.2676
iter:  61 00:42:03 -2535.229797c -3.92  -3.36    +97.2796
iter:  62 00:42:44 -2535.260016c -3.39  -2.90    +97.1474
iter:  63 00:43:24 -2535.294734c -3.90  -2.60    +97.0443
iter:  64 00:44:03 -2535.316228c -4.24  -2.45    +97.0079
iter:  65 00:44:43 -2535.243573c -4.00  -2.38    +96.9965
iter:  66 00:45:23 -2535.221266c -4.22  -2.60    +96.9835
iter:  67 00:46:03 -2535.207915c -4.20  -2.79    +96.9783
iter:  68 00:46:43 -2535.204557c -4.76  -3.21    +96.9862
iter:  69 00:47:23 -2535.226631c -4.28  -3.16    +96.9918
iter:  70 00:48:03 -2535.250313c -3.27  -3.33    +97.0625
iter:  71 00:48:43 -2535.244854c -4.30  -2.56    +97.0690
iter:  72 00:49:24 -2535.253998c -4.64  -2.67    +97.1004
iter:  73 00:50:04 -2535.238974c -4.77  -2.66    +97.1001
iter:  74 00:50:44 -2535.244671c -5.49  -2.73    +97.1130
iter:  75 00:51:24 -2535.221318c -4.43  -2.68    +97.1208
iter:  76 00:52:04 -2535.219750c -4.64  -3.06    +97.1223
iter:  77 00:52:44 -2535.220700c -4.80  -3.15    +97.0931
iter:  78 00:53:24 -2535.207287c -4.19  -3.55    +97.2255
iter:  79 00:54:04 -2535.237838c -3.73  -2.90    +97.0165
iter:  80 00:54:44 -2535.235845c -4.15  -2.87    +97.0454
iter:  81 00:55:24 -2535.234583c -4.61  -2.96    +97.0753
iter:  82 00:56:04 -2535.233051c -4.54  -3.07    +97.1031
iter:  83 00:56:44 -2535.233128c -5.67  -3.36    +97.0958
iter:  84 00:57:24 -2535.232532c -5.36  -3.30    +97.0956
iter:  85 00:58:03 -2535.232216c -5.72  -3.61    +97.0966
iter:  86 00:58:44 -2535.232638c -4.59  -3.49    +97.1076
iter:  87 00:59:23 -2535.233637c -5.24  -3.66    +97.1073
iter:  88 01:00:03 -2535.232782c -5.42  -3.80    +97.1138
iter:  89 01:00:44 -2535.232665c -5.87  -3.45    +97.1188
iter:  90 01:01:23 -2535.232840c -6.30  -3.82    +97.1150
iter:  91 01:02:03 -2535.232810c -5.88  -3.77    +97.1150
iter:  92 01:02:43 -2535.232880c -6.30  -4.02c   +97.1131
iter:  93 01:03:23 -2535.232732c -6.53  -3.87    +97.1180
iter:  94 01:04:03 -2535.233200c -6.14  -3.90    +97.1023
iter:  95 01:04:43 -2535.233119c -6.30  -3.94    +97.1040
iter:  96 01:05:23 -2535.233075c -6.84  -3.98    +97.1037
iter:  97 01:06:03 -2535.233126c -6.96  -4.08c   +97.1040
iter:  98 01:06:43 -2535.233096c -6.01  -4.09c   +97.1052
iter:  99 01:07:23 -2535.233031c -6.93  -4.25c   +97.1042
iter: 100 01:08:03 -2535.233105c -7.27  -4.26c   +97.1038
iter: 101 01:08:43 -2535.233089c -6.26  -4.35c   +97.1046
iter: 102 01:09:23 -2535.233089c -7.10  -4.09c   +97.1040
iter: 103 01:10:03 -2535.233140c -7.28  -4.09c   +97.1016
iter: 104 01:10:43 -2535.233058c -7.14  -4.12c   +97.1022
iter: 105 01:11:23 -2535.233063c -7.51c -3.98    +97.1016
iter: 106 01:12:03 -2535.233137c -7.03  -4.11c   +97.1015
iter: 107 01:12:43 -2535.233169c -6.79  -4.35c   +97.1015
iter: 108 01:13:23 -2535.233147c -6.84  -3.83    +97.1017
iter: 109 01:14:03 -2535.233026c -7.48c -4.25c   +97.1010

Converged after 109 iterations.

Dipole moment: (-3.534407, -7.064656, -0.074699) |e|*Ang

Total magnetic moment: (0.000000, 0.000000, 97.101004)
Local magnetic moments:
   0 Fe ( 0.000000,  0.000000,  2.825631)
   1 Fe ( 0.000000,  0.000000,  2.748470)
   2 Fe ( 0.000000,  0.000000,  2.741578)
   3 Fe ( 0.000000,  0.000000,  2.829666)
   4 Fe ( 0.000000,  0.000000,  2.830170)
   5 Fe ( 0.000000,  0.000000,  2.744690)
   6 Fe ( 0.000000,  0.000000,  2.742958)
   7 Fe ( 0.000000,  0.000000,  2.882992)
   8 Fe ( 0.000000,  0.000000,  2.825988)
   9 Fe ( 0.000000,  0.000000,  2.749620)
  10 Fe ( 0.000000,  0.000000,  2.751355)
  11 Fe ( 0.000000,  0.000000,  2.832589)
  12 Fe ( 0.000000,  0.000000,  2.825914)
  13 Fe ( 0.000000,  0.000000,  2.747761)
  14 Fe ( 0.000000,  0.000000,  2.740579)
  15 Fe ( 0.000000,  0.000000,  2.831899)
  16 Fe ( 0.000000,  0.000000,  2.826504)
  17 Fe ( 0.000000,  0.000000,  2.746185)
  18 Fe ( 0.000000,  0.000000,  2.792269)
  19 Fe ( 0.000000,  0.000000,  2.557165)
  20 Fe ( 0.000000,  0.000000,  2.823759)
  21 Fe ( 0.000000,  0.000000,  2.744774)
  22 Fe ( 0.000000,  0.000000,  2.742928)
  23 Fe ( 0.000000,  0.000000,  2.548898)
  24 Fe ( 0.000000,  0.000000,  2.830249)
  25 Fe ( 0.000000,  0.000000,  2.745993)
  26 Fe ( 0.000000,  0.000000,  2.736853)
  27 Fe ( 0.000000,  0.000000,  2.884829)
  28 Fe ( 0.000000,  0.000000,  2.831451)
  29 Fe ( 0.000000,  0.000000,  2.747691)
  30 Fe ( 0.000000,  0.000000,  2.740488)
  31 Fe ( 0.000000,  0.000000,  2.883129)
  32 Fe ( 0.000000,  0.000000,  2.826424)
  33 Fe ( 0.000000,  0.000000,  2.748487)
  34 Fe ( 0.000000,  0.000000,  2.741458)
  35 Fe ( 0.000000,  0.000000,  2.557405)
  36 O  ( 0.000000,  0.000000,  0.066791)

Energy contributions relative to reference atoms: (reference = -1248341.217899)

Kinetic:       +835.558000
Potential:     -730.903355
External:        +0.000000
XC:            -2641.432129
Entropy (-ST):   -1.654436
Local:           +2.371676
--------------------------
Free energy:   -2536.060244
Extrapolated:  -2535.233026

Spin contamination: 2.568567 electrons
Showing only first 2 kpts
                      Up                     Down
 Kpt  Band  Eigenvalues  Occupancy  Eigenvalues  Occupancy
  0   145     -6.50774    1.00000     -3.67095    0.00000
  0   146     -6.48880    1.00000     -3.64388    0.00000
  0   147     -6.47633    1.00000     -3.63297    0.00000
  0   148     -6.45981    1.00000     -3.60872    0.00000

  1   145     -6.42966    1.00000     -3.57582    0.00000
  1   146     -6.39793    1.00000     -3.56268    0.00000
  1   147     -6.38861    1.00000     -3.55570    0.00000
  1   148     -6.35312    1.00000     -3.54315    0.00000


Fermi level: -4.96415

No gap

Forces in eV/Ang:
  0 Fe   -0.00136    0.00096   -0.14499
  1 Fe    0.00005   -0.01909    0.03093
  2 Fe    0.00016   -0.00186   -0.06941
  3 Fe   -0.00972    0.00561    0.02293
  4 Fe    0.00611    0.00819   -0.15519
  5 Fe   -0.03529   -0.01936   -0.03073
  6 Fe   -0.00107    0.00031   -0.06961
  7 Fe   -0.03491   -0.02016   -0.06144
  8 Fe   -0.00314    0.00097   -0.14301
  9 Fe   -0.01775    0.01033    0.03149
 10 Fe   -0.00015    0.00019    0.07149
 11 Fe    0.00023   -0.01306    0.01943
 12 Fe   -0.00225    0.00250   -0.14311
 13 Fe    0.02831    0.01610    0.00943
 14 Fe    0.00119   -0.00169   -0.06929
 15 Fe    0.01115    0.00616    0.01945
 16 Fe   -0.00418    0.00545   -0.15405
 17 Fe    0.03375   -0.01945   -0.03235
 18 Fe    0.00058   -0.00021   -0.03547
 19 Fe   -0.00257    0.34046    0.34559
 20 Fe    0.00127   -0.00056   -0.15290
 21 Fe   -0.00085    0.04018   -0.03069
 22 Fe   -0.00090    0.00095   -0.06934
 23 Fe    0.29725   -0.17291    0.34250
 24 Fe   -0.00392   -0.00921   -0.15517
 25 Fe   -0.03008    0.01741    0.01363
 26 Fe    0.00119   -0.00066   -0.09240
 27 Fe    0.00102    0.03995   -0.05948
 28 Fe   -0.00731    0.00436   -0.15492
 29 Fe    0.00026   -0.03272    0.00932
 30 Fe    0.00179   -0.00008   -0.06965
 31 Fe    0.03620   -0.01970   -0.06355
 32 Fe   -0.00665    0.00118   -0.15406
 33 Fe    0.01656    0.00958    0.03100
 34 Fe    0.00174    0.00067   -0.06951
 35 Fe   -0.29579   -0.16915    0.34739
 36 O     0.00192   -0.00098    0.33658

BFGS:    4 01:14:28    -2535.233026        0.4866
System changes: positions 

Initializing position-dependent things.

Density initialized from wave functions
                                          
                                          
                                          
                                          
                                          
                   O                      
          Fe    Fe     Fe                 
            Fe    Fe    Fe                
           Fe    Fe    Fe                 
             Fe    FFe   FFe              
              Fe     Fe    Fe             
             Fe     Fe    Fe              
               Fe     Fe    Fe            
                 Fe    Fe     Fe          
          Fe    Fe    Fe                  
            Fe    Fe    Fe                
             Fe     Fe    Fe              
                                          
                                          
                                          
                                          

Positions:
   0 Fe     0.000000    0.000000   10.000000    ( 0.0000,  0.0000,  2.7500)
   1 Fe     1.298117    0.749468   12.119817    ( 0.0000,  0.0000,  2.6728)
   2 Fe    -0.003424    1.497141   14.243549    ( 0.0000,  0.0000,  2.6756)
   3 Fe     0.004122   -0.002499   16.401062    ( 0.0000,  0.0000,  2.7532)
   4 Fe    -1.298117    2.248405   10.000000    ( 0.0000,  0.0000,  2.7500)
   5 Fe     0.000000    2.997873   12.119817    ( 0.0000,  0.0000,  2.6728)
   6 Fe    -1.301243    3.744968   14.243458    ( 0.0000,  0.0000,  2.6756)
   7 Fe    -1.317081    2.237356   16.378283    ( 0.0000,  0.0000,  2.7532)
   8 Fe    -2.596234    4.496810   10.000000    ( 0.0000,  0.0000,  2.7500)
   9 Fe    -1.298117    5.246278   12.119817    ( 0.0000,  0.0000,  2.6728)
  10 Fe    -2.596181    5.995721   14.274651    ( 0.0000,  0.0000,  2.6756)
  11 Fe    -2.596243    4.501396   16.400405    ( 0.0000,  0.0000,  2.7532)
  12 Fe     2.596234    0.000000   10.000000    ( 0.0000,  0.0000,  2.7500)
  13 Fe     3.894352    0.749468   12.119817    ( 0.0000,  0.0000,  2.6728)
  14 Fe     2.600273    1.497300   14.243313    ( 0.0000,  0.0000,  2.6756)
  15 Fe     2.592256   -0.002407   16.400471    ( 0.0000,  0.0000,  2.7532)
  16 Fe     1.298117    2.248405   10.000000    ( 0.0000,  0.0000,  2.7500)
  17 Fe     2.596234    2.997873   12.119817    ( 0.0000,  0.0000,  2.6728)
  18 Fe     1.298184    3.747336   14.227442    ( 0.0000,  0.0000,  2.6756)
  19 Fe     1.297258    2.155983   16.375074    ( 0.0000,  0.0000,  2.7532)
  20 Fe     0.000000    4.496810   10.000000    ( 0.0000,  0.0000,  2.7500)
  21 Fe     1.298117    5.246278   12.119817    ( 0.0000,  0.0000,  2.6728)
  22 Fe     0.000500    5.999670   14.243507    ( 0.0000,  0.0000,  2.6756)
  23 Fe    -0.078499    4.542007   16.374782    ( 0.0000,  0.0000,  2.7532)
  24 Fe     5.192469    0.000000   10.000000    ( 0.0000,  0.0000,  2.7500)
  25 Fe     6.490586    0.749468   12.119817    ( 0.0000,  0.0000,  2.6728)
  26 Fe     5.192760    1.498774   14.244105    ( 0.0000,  0.0000,  2.6756)
  27 Fe     5.192824    0.021697   16.378660    ( 0.0000,  0.0000,  2.7532)
  28 Fe     3.894352    2.248405   10.000000    ( 0.0000,  0.0000,  2.7500)
  29 Fe     5.192469    2.997873   12.119817    ( 0.0000,  0.0000,  2.6728)
  30 Fe     3.897782    3.744656   14.243232    ( 0.0000,  0.0000,  2.6756)
  31 Fe     3.913768    2.237505   16.377890    ( 0.0000,  0.0000,  2.7532)
  32 Fe     2.596234    4.496810   10.000000    ( 0.0000,  0.0000,  2.7500)
  33 Fe     3.894352    5.246278   12.119817    ( 0.0000,  0.0000,  2.6728)
  34 Fe     2.596061    5.999637   14.243516    ( 0.0000,  0.0000,  2.6756)
  35 Fe     2.675943    4.543692   16.375428    ( 0.0000,  0.0000,  2.7532)
  36 O      1.297978    3.747363   17.447981    ( 0.0000,  0.0000,  0.0000)

Unit cell:
           periodic     x           y           z      points  spacing
  1. axis:    yes    7.788703    0.000000    0.000000    36     0.1874
  2. axis:    yes   -3.894352    6.745215    0.000000    36     0.1874
  3. axis:    no     0.000000    0.000000   26.359450   148     0.1781

  Lengths:   7.788703   7.788703  26.359450
  Angles:   90.000000  90.000000 120.000000

Effective grid spacing dv^(1/3) = 0.1933

     iter     time        total  log10-change:  magmom
                         energy  eigst   dens
iter:   1 01:16:08 -2540.475457  -1.46           +97.1160
iter:   2 01:16:48 -2667.022115  -0.54  -1.47    +97.5528
iter:   3 01:17:28 -2536.631178  -0.95  -0.82    +91.4096
iter:   4 01:18:07 -2535.990153  -1.81  -1.74    +92.6161
iter:   5 01:18:47 -2535.085435  -2.70  -1.79    +94.9503
iter:   6 01:19:27 -2534.968833  -3.11  -2.11    +95.6753
iter:   7 01:20:07 -2534.890558  -3.31  -2.43    +95.8734
iter:   8 01:20:47 -2535.118173  -3.08  -2.53    +96.0904
iter:   9 01:21:27 -2535.358830  -1.98  -2.59    +96.9220
iter:  10 01:22:07 -2535.414920  -3.24  -1.91    +96.8048
iter:  11 01:22:47 -2535.481573c -3.60  -2.14    +97.0204
iter:  12 01:23:27 -2535.582539  -3.72  -2.11    +97.1418
iter:  13 01:24:07 -2535.681180  -4.06  -2.03    +97.1454
iter:  14 01:24:47 -2535.686900c -4.36  -1.99    +97.2480
iter:  15 01:25:27 -2535.136422  -2.82  -1.99    +96.9625
iter:  16 01:26:07 -2535.464761  -3.20  -2.36    +97.2355
iter:  17 01:26:47 -2535.188802  -2.66  -2.11    +97.3332
iter:  18 01:27:27 -2535.140322  -3.37  -2.45    +97.3364
iter:  19 01:28:07 -2535.173025c -3.77  -2.64    +97.3134
iter:  20 01:28:48 -2535.237885c -3.62  -2.92    +97.3749
iter:  21 01:29:27 -2535.287611c -3.25  -2.77    +97.3745
iter:  22 01:30:08 -2535.267706c -3.53  -2.63    +97.3201
iter:  23 01:30:48 -2535.254341c -4.21  -2.81    +97.3218
iter:  24 01:31:28 -2535.263918c -4.23  -3.15    +97.3055
iter:  25 01:32:08 -2535.267384c -3.93  -3.07    +97.3035
iter:  26 01:32:48 -2535.272195c -4.51  -2.88    +97.3350
iter:  27 01:33:28 -2535.270536c -3.81  -2.95    +97.3747
iter:  28 01:34:08 -2535.276042c -4.52  -2.97    +97.3458
iter:  29 01:34:48 -2535.273720c -5.07  -2.91    +97.3384
iter:  30 01:35:28 -2535.308969c -4.07  -2.94    +97.3232
iter:  31 01:36:08 -2535.269506c -4.43  -2.52    +97.3419
iter:  32 01:36:48 -2535.268281c -4.73  -3.10    +97.3473
iter:  33 01:37:28 -2535.271158c -4.69  -3.24    +97.3232
iter:  34 01:38:08 -2535.271928c -5.07  -3.42    +97.3052
iter:  35 01:38:48 -2535.272694c -5.19  -3.43    +97.2910
iter:  36 01:39:28 -2535.272257c -5.71  -3.42    +97.2971
iter:  37 01:40:08 -2535.272286c -5.78  -3.54    +97.2976
iter:  38 01:40:48 -2535.272028c -5.58  -3.76    +97.2985
iter:  39 01:41:28 -2535.272330c -5.80  -3.51    +97.3001
iter:  40 01:42:08 -2535.272343c -5.99  -3.88    +97.2995
iter:  41 01:42:49 -2535.272410c -6.22  -4.05c   +97.2964
iter:  42 01:43:28 -2535.272424c -6.62  -4.11c   +97.2973
iter:  43 01:44:09 -2535.272461c -6.61  -4.23c   +97.2995
iter:  44 01:44:49 -2535.272546c -6.41  -4.11c   +97.2948
iter:  45 01:45:29 -2535.272468c -6.49  -4.18c   +97.2926
iter:  46 01:46:09 -2535.272588c -6.68  -4.26c   +97.2928
iter:  47 01:46:49 -2535.272682c -6.76  -4.31c   +97.2942
iter:  48 01:47:29 -2535.272657c -6.97  -4.27c   +97.2942
iter:  49 01:48:09 -2535.272555c -7.28  -4.11c   +97.2966
iter:  50 01:48:49 -2535.272570c -7.74c -4.42c   +97.2965

Converged after 50 iterations.

Dipole moment: (-3.130118, -7.283585, -0.095647) |e|*Ang

Total magnetic moment: (0.000000, 0.000000, 97.296491)
Local magnetic moments:
   0 Fe ( 0.000000,  0.000000,  2.827282)
   1 Fe ( 0.000000,  0.000000,  2.748297)
   2 Fe ( 0.000000,  0.000000,  2.743104)
   3 Fe ( 0.000000,  0.000000,  2.834678)
   4 Fe ( 0.000000,  0.000000,  2.831969)
   5 Fe ( 0.000000,  0.000000,  2.741936)
   6 Fe ( 0.000000,  0.000000,  2.744323)
   7 Fe ( 0.000000,  0.000000,  2.877412)
   8 Fe ( 0.000000,  0.000000,  2.827846)
   9 Fe ( 0.000000,  0.000000,  2.749564)
  10 Fe ( 0.000000,  0.000000,  2.748630)
  11 Fe ( 0.000000,  0.000000,  2.836983)
  12 Fe ( 0.000000,  0.000000,  2.827865)
  13 Fe ( 0.000000,  0.000000,  2.744592)
  14 Fe ( 0.000000,  0.000000,  2.742009)
  15 Fe ( 0.000000,  0.000000,  2.837072)
  16 Fe ( 0.000000,  0.000000,  2.828418)
  17 Fe ( 0.000000,  0.000000,  2.743465)
  18 Fe ( 0.000000,  0.000000,  2.791949)
  19 Fe ( 0.000000,  0.000000,  2.619816)
  20 Fe ( 0.000000,  0.000000,  2.825790)
  21 Fe ( 0.000000,  0.000000,  2.741967)
  22 Fe ( 0.000000,  0.000000,  2.744368)
  23 Fe ( 0.000000,  0.000000,  2.613809)
  24 Fe ( 0.000000,  0.000000,  2.831960)
  25 Fe ( 0.000000,  0.000000,  2.742841)
[...]
--------------------------
Free energy:   -2536.263661
Extrapolated:  -2535.447685

Spin contamination: 2.606339 electrons
Showing only first 2 kpts
                      Up                     Down
 Kpt  Band  Eigenvalues  Occupancy  Eigenvalues  Occupancy
  0   145     -6.58886    1.00000     -3.72084    0.00000
  0   146     -6.57652    1.00000     -3.70903    0.00000
  0   147     -6.56655    1.00000     -3.69641    0.00000
  0   148     -6.54332    1.00000     -3.68107    0.00000

  1   145     -6.51867    1.00000     -3.63726    0.00000
  1   146     -6.49027    1.00000     -3.61910    0.00000
  1   147     -6.47236    1.00000     -3.61806    0.00000
  1   148     -6.44263    1.00000     -3.59457    0.00000


Fermi level: -5.02953

No gap

Forces in eV/Ang:
  0 Fe   -0.00757    0.00459   -0.15524
  1 Fe   -0.00148   -0.00122    0.05970
  2 Fe   -0.04053   -0.01611   -0.00321
  3 Fe    0.01478   -0.00730   -0.00331
  4 Fe   -0.00499    0.00167   -0.17795
  5 Fe    0.08531    0.05019    0.28897
  6 Fe   -0.03633   -0.02772   -0.00438
  7 Fe   -0.00620   -0.00458    0.00125
  8 Fe   -0.00303   -0.00598   -0.15454
  9 Fe   -0.00208    0.00171    0.06434
 10 Fe   -0.00013    0.00004   -0.00100
 11 Fe    0.00229    0.01549   -0.00548
 12 Fe    0.00371    0.00586   -0.15450
 13 Fe   -0.05684   -0.03521    0.01212
 14 Fe    0.04245   -0.01462   -0.00190
 15 Fe   -0.01376   -0.00923   -0.00582
 16 Fe   -0.00365    0.00938   -0.15399
 17 Fe   -0.08824    0.05098    0.28231
 18 Fe    0.00074    0.00042    0.04369
 19 Fe    0.00871    0.04700    0.00137
 20 Fe    0.00425   -0.00237   -0.15246
 21 Fe   -0.00078   -0.09850    0.29070
 22 Fe    0.00539    0.04498   -0.00410
 23 Fe    0.03523   -0.01757   -0.00662
 24 Fe   -0.00386    0.00372   -0.17788
 25 Fe    0.05609   -0.03266    0.01706
 26 Fe   -0.00021    0.00058    0.02395
 27 Fe   -0.00032    0.00931   -0.00804
 28 Fe    0.00264   -0.00143   -0.17834
 29 Fe    0.00182    0.06660    0.01168
 30 Fe    0.03360   -0.02949   -0.00205
 31 Fe   -0.00670    0.00235    0.01721
 32 Fe   -0.00982   -0.00138   -0.15406
 33 Fe   -0.00007    0.00216    0.06037
 34 Fe   -0.00612    0.04259   -0.00286
 35 Fe   -0.04024   -0.03072    0.00454
 36 O     0.00828   -0.00329   -0.00449

BFGS:   22 09:57:23    -2535.447685        0.0508
System changes: positions 

Initializing position-dependent things.

Density initialized from wave functions
                                          
                                          
                                          
                                          
                                          
                   O                      
          Fe    Fe     Fe                 
            Fe    Fe    Fe                
           Fe    Fe    Fe                 
             Fe    FFe   FFe              
              Fe     Fe    Fe             
             Fe     Fe    Fe              
               Fe     Fe    Fe            
                 Fe    Fe     Fe          
          Fe    Fe    Fe                  
            Fe    Fe    Fe                
             Fe     Fe    Fe              
                                          
                                          
                                          
                                          

Positions:
   0 Fe     0.000000    0.000000   10.000000    ( 0.0000,  0.0000,  2.7500)
   1 Fe     1.298117    0.749468   12.119817    ( 0.0000,  0.0000,  2.6728)
   2 Fe     0.012496    1.500996   14.271273    ( 0.0000,  0.0000,  2.6756)
   3 Fe     0.004914   -0.002913   16.382784    ( 0.0000,  0.0000,  2.7532)
   4 Fe    -1.298117    2.248405   10.000000    ( 0.0000,  0.0000,  2.7500)
   5 Fe     0.000000    2.997873   12.119817    ( 0.0000,  0.0000,  2.6728)
   6 Fe    -1.289890    3.756683   14.271736    ( 0.0000,  0.0000,  2.6756)
   7 Fe    -1.300426    2.246791   16.341706    ( 0.0000,  0.0000,  2.7532)
   8 Fe    -2.596234    4.496810   10.000000    ( 0.0000,  0.0000,  2.7500)
   9 Fe    -1.298117    5.246278   12.119817    ( 0.0000,  0.0000,  2.6728)
  10 Fe    -2.596108    5.995676   14.256500    ( 0.0000,  0.0000,  2.6756)
  11 Fe    -2.596364    4.502466   16.382938    ( 0.0000,  0.0000,  2.7532)
  12 Fe     2.596234    0.000000   10.000000    ( 0.0000,  0.0000,  2.7500)
  13 Fe     3.894352    0.749468   12.119817    ( 0.0000,  0.0000,  2.6728)
  14 Fe     2.584057    1.500988   14.270281    ( 0.0000,  0.0000,  2.6756)
  15 Fe     2.591385   -0.002731   16.382868    ( 0.0000,  0.0000,  2.7532)
  16 Fe     1.298117    2.248405   10.000000    ( 0.0000,  0.0000,  2.7500)
  17 Fe     2.596234    2.997873   12.119817    ( 0.0000,  0.0000,  2.6728)
  18 Fe     1.298183    3.747276   14.373240    ( 0.0000,  0.0000,  2.6756)
  19 Fe     1.297156    2.226532   16.565719    ( 0.0000,  0.0000,  2.7532)
  20 Fe     0.000000    4.496810   10.000000    ( 0.0000,  0.0000,  2.7500)
  21 Fe     1.298117    5.246278   12.119817    ( 0.0000,  0.0000,  2.6728)
  22 Fe    -0.003847    5.984087   14.272079    ( 0.0000,  0.0000,  2.6756)
  23 Fe    -0.018535    4.507051   16.566821    ( 0.0000,  0.0000,  2.7532)
  24 Fe     5.192469    0.000000   10.000000    ( 0.0000,  0.0000,  2.7500)
  25 Fe     6.490586    0.749468   12.119817    ( 0.0000,  0.0000,  2.6728)
  26 Fe     5.192965    1.498559   14.223239    ( 0.0000,  0.0000,  2.6756)
  27 Fe     5.192806    0.002498   16.343249    ( 0.0000,  0.0000,  2.7532)
  28 Fe     3.894352    2.248405   10.000000    ( 0.0000,  0.0000,  2.7500)
  29 Fe     5.192469    2.997873   12.119817    ( 0.0000,  0.0000,  2.6728)
  30 Fe     3.886480    3.756872   14.270283    ( 0.0000,  0.0000,  2.6756)
  31 Fe     3.897962    2.246455   16.337274    ( 0.0000,  0.0000,  2.7532)
  32 Fe     2.596234    4.496810   10.000000    ( 0.0000,  0.0000,  2.7500)
  33 Fe     3.894352    5.246278   12.119817    ( 0.0000,  0.0000,  2.6728)
  34 Fe     2.600573    5.984024   14.271612    ( 0.0000,  0.0000,  2.6756)
  35 Fe     2.615259    4.508462   16.565801    ( 0.0000,  0.0000,  2.7532)
  36 O      1.298379    3.746791   17.714770    ( 0.0000,  0.0000,  0.0000)

Unit cell:
           periodic     x           y           z      points  spacing
  1. axis:    yes    7.788703    0.000000    0.000000    36     0.1874
  2. axis:    yes   -3.894352    6.745215    0.000000    36     0.1874
  3. axis:    no     0.000000    0.000000   26.359450   148     0.1781

  Lengths:   7.788703   7.788703  26.359450
  Angles:   90.000000  90.000000 120.000000

Effective grid spacing dv^(1/3) = 0.1933

     iter     time        total  log10-change:  magmom
                         energy  eigst   dens
iter:   1 09:59:03 -2535.494974  -3.90           +97.6276
iter:   2 09:59:43 -2536.791798  -2.62  -2.48    +97.5583
iter:   3 10:00:23 -2535.450279  -3.09  -1.76    +97.6019
iter:   4 10:01:02 -2535.448104  -3.92  -3.23    +97.6183
iter:   5 10:01:42 -2535.447760c -4.58  -3.78    +97.6199
iter:   6 10:02:22 -2535.448003c -5.12  -4.04c   +97.6198
iter:   7 10:03:01 -2535.447910c -5.51  -3.96    +97.6206
iter:   8 10:03:41 -2535.447751c -5.73  -4.32c   +97.6202
iter:   9 10:04:21 -2535.447621c -5.83  -4.33c   +97.6244
iter:  10 10:05:00 -2535.447637c -6.09  -4.06c   +97.6296
iter:  11 10:05:40 -2535.447496c -6.10  -3.92    +97.6354
iter:  12 10:06:20 -2535.447568c -6.51  -3.69    +97.6341
iter:  13 10:06:59 -2535.447607c -6.71  -3.73    +97.6345
iter:  14 10:07:39 -2535.447670c -6.67  -3.67    +97.6327
iter:  15 10:08:19 -2535.447635c -6.27  -3.78    +97.6361
iter:  16 10:08:58 -2535.447837c -6.93  -3.65    +97.6338
iter:  17 10:09:38 -2535.447723c -7.10  -3.66    +97.6335
iter:  18 10:10:18 -2535.447791c -6.76  -3.66    +97.6323
iter:  19 10:10:58 -2535.447662c -6.54  -3.66    +97.6345
iter:  20 10:11:37 -2535.449562c -5.04  -3.64    +97.6306
iter:  21 10:12:17 -2535.447688c -5.39  -3.11    +97.6310
iter:  22 10:12:57 -2535.447813c -6.18  -4.06c   +97.6312
iter:  23 10:13:37 -2535.447585c -6.77  -4.24c   +97.6296
iter:  24 10:14:16 -2535.447733c -6.74  -4.25c   +97.6287
iter:  25 10:14:56 -2535.447959c -6.18  -4.25c   +97.6274
iter:  26 10:15:36 -2535.447916c -6.80  -4.33c   +97.6281
iter:  27 10:16:15 -2535.447888c -7.09  -4.60c   +97.6281
iter:  28 10:16:55 -2535.447874c -7.43c -4.51c   +97.6282

Converged after 28 iterations.

Dipole moment: (-3.797281, -6.947651, -0.135642) |e|*Ang

Total magnetic moment: (0.000000, 0.000000, 97.628198)
Local magnetic moments:
   0 Fe ( 0.000000,  0.000000,  2.828219)
   1 Fe ( 0.000000,  0.000000,  2.746212)
   2 Fe ( 0.000000,  0.000000,  2.750612)
   3 Fe ( 0.000000,  0.000000,  2.835441)
   4 Fe ( 0.000000,  0.000000,  2.831678)
   5 Fe ( 0.000000,  0.000000,  2.756609)
   6 Fe ( 0.000000,  0.000000,  2.752350)
   7 Fe ( 0.000000,  0.000000,  2.863476)
   8 Fe ( 0.000000,  0.000000,  2.828872)
   9 Fe ( 0.000000,  0.000000,  2.747691)
  10 Fe ( 0.000000,  0.000000,  2.725889)
  11 Fe ( 0.000000,  0.000000,  2.839151)
  12 Fe ( 0.000000,  0.000000,  2.828884)
  13 Fe ( 0.000000,  0.000000,  2.747490)
  14 Fe ( 0.000000,  0.000000,  2.749901)
  15 Fe ( 0.000000,  0.000000,  2.839203)
  16 Fe ( 0.000000,  0.000000,  2.825985)
  17 Fe ( 0.000000,  0.000000,  2.758616)
  18 Fe ( 0.000000,  0.000000,  2.821334)
  19 Fe ( 0.000000,  0.000000,  2.717436)
  20 Fe ( 0.000000,  0.000000,  2.823709)
  21 Fe ( 0.000000,  0.000000,  2.756688)
  22 Fe ( 0.000000,  0.000000,  2.752425)
  23 Fe ( 0.000000,  0.000000,  2.714846)
  24 Fe ( 0.000000,  0.000000,  2.831690)
  25 Fe ( 0.000000,  0.000000,  2.745353)
  26 Fe ( 0.000000,  0.000000,  2.736372)
  27 Fe ( 0.000000,  0.000000,  2.864151)
  28 Fe ( 0.000000,  0.000000,  2.833067)
  29 Fe ( 0.000000,  0.000000,  2.747508)
  30 Fe ( 0.000000,  0.000000,  2.749941)
  31 Fe ( 0.000000,  0.000000,  2.863250)
  32 Fe ( 0.000000,  0.000000,  2.825988)
  33 Fe ( 0.000000,  0.000000,  2.746277)
  34 Fe ( 0.000000,  0.000000,  2.750724)
  35 Fe ( 0.000000,  0.000000,  2.718245)
  36 O  ( 0.000000,  0.000000,  0.100175)

Energy contributions relative to reference atoms: (reference = -1248341.217899)

Kinetic:       +826.469992
Potential:     -723.530216
External:        +0.000000
XC:            -2639.886049
Entropy (-ST):   -1.632280
Local:           +2.314539
--------------------------
Free energy:   -2536.264014
Extrapolated:  -2535.447874

Spin contamination: 2.605468 electrons
Showing only first 2 kpts
                      Up                     Down
 Kpt  Band  Eigenvalues  Occupancy  Eigenvalues  Occupancy
  0   145     -6.58920    1.00000     -3.72109    0.00000
  0   146     -6.57679    1.00000     -3.70931    0.00000
  0   147     -6.56706    1.00000     -3.69687    0.00000
  0   148     -6.54359    1.00000     -3.68117    0.00000

  1   145     -6.51883    1.00000     -3.63723    0.00000
  1   146     -6.49085    1.00000     -3.61935    0.00000
  1   147     -6.47259    1.00000     -3.61816    0.00000
  1   148     -6.44294    1.00000     -3.59474    0.00000


Fermi level: -5.02976

No gap

Forces in eV/Ang:
  0 Fe   -0.00742    0.00449   -0.15724
  1 Fe   -0.00141   -0.00150    0.06305
  2 Fe   -0.02925   -0.01082   -0.00287
  3 Fe    0.01148   -0.00576    0.00118
  4 Fe   -0.00495    0.00167   -0.17997
  5 Fe    0.08786    0.05174    0.29295
  6 Fe   -0.02556   -0.02052   -0.00440
  7 Fe   -0.00673   -0.00460    0.00245
  8 Fe   -0.00305   -0.00578   -0.15652
  9 Fe   -0.00239    0.00190    0.06757
 10 Fe   -0.00024    0.00005   -0.00548
 11 Fe    0.00152    0.01185   -0.00082
 12 Fe    0.00352    0.00576   -0.15647
 13 Fe   -0.05651   -0.03499    0.01116
 14 Fe    0.03079   -0.00949   -0.00141
 15 Fe   -0.01085   -0.00706   -0.00095
 16 Fe   -0.00366    0.00915   -0.15671
 17 Fe   -0.09072    0.05241    0.28626
 18 Fe    0.00062    0.00035    0.03181
 19 Fe    0.00705    0.02095    0.00259
 20 Fe    0.00407   -0.00227   -0.15522
 21 Fe   -0.00087   -0.10148    0.29467
 22 Fe    0.00442    0.03194   -0.00459
 23 Fe    0.01438   -0.00564   -0.00321
 24 Fe   -0.00383    0.00369   -0.17988
 25 Fe    0.05578   -0.03249    0.01607
 26 Fe   -0.00038    0.00081    0.02280
 27 Fe   -0.00008    0.00960   -0.00567
 28 Fe    0.00260   -0.00140   -0.18030
 29 Fe    0.00180    0.06619    0.01070
 30 Fe    0.02343   -0.02194   -0.00131
 31 Fe   -0.00322    0.00089    0.01741
 32 Fe   -0.00962   -0.00126   -0.15678
 33 Fe    0.00020    0.00225    0.06373
 34 Fe   -0.00485    0.03014   -0.00278
 35 Fe   -0.01813   -0.01612    0.00497
 36 O     0.00832   -0.00361    0.00413

BFGS:   23 10:17:21    -2535.447874        0.0331
Timing:                                      incl.     excl.
-------------------------------------------------------------------
Density initialized from wave functions:    14.221    14.221   0.0% |
 Symmetrize density:                         0.001     0.001   0.0% |
Forces:                                    514.158   514.158   1.1% |
Hamiltonian:                                83.669     0.024   0.0% |
 Atomic:                                     0.006     0.006   0.0% |
  XC Correction:                             0.000     0.000   0.0% |
 Calculate atomic Hamiltonians:              0.009     0.009   0.0% |
 Communicate:                                6.461     6.461   0.0% |
 Hartree integrate/restrict:                 0.364     0.364   0.0% |
 Initialize Hamiltonian:                     0.001     0.001   0.0% |
 Poisson:                                    3.496     0.120   0.0% |
  Communicate from 1D:                       0.259     0.259   0.0% |
  Communicate from 2D:                       0.541     0.541   0.0% |
  Communicate to 1D:                         0.168     0.168   0.0% |
  Communicate to 2D:                         0.699     0.699   0.0% |
  FFT 1D:                                    0.930     0.930   0.0% |
  FFT 2D:                                    0.780     0.780   0.0% |
 XC 3D grid:                                73.190    25.321   0.1% |
  VdW-DF integral:                          47.870     2.529   0.0% |
   Convolution:                              4.028     4.028   0.0% |
   FFT:                                      2.829     2.829   0.0% |
   gather:                                  14.157    14.157   0.0% |
   hmm1:                                     0.848     0.848   0.0% |
   hmm2:                                     1.751     1.751   0.0% |
   iFFT:                                     3.008     3.008   0.0% |
   potential:                               13.452     0.313   0.0% |
    collect:                                 0.913     0.913   0.0% |
    p1:                                      8.077     8.077   0.0% |
    p2:                                      2.669     2.669   0.0% |
    sum:                                     1.480     1.480   0.0% |
   splines:                                  5.267     5.267   0.0% |
 vbar:                                       0.117     0.117   0.0% |
LCAO initialization:                        15.384     0.629   0.0% |
 LCAO eigensolver:                           6.667     0.003   0.0% |
  Calculate projections:                     0.000     0.000   0.0% |
  DenseAtomicCorrection:                     0.000     0.000   0.0% |
  Distribute overlap matrix:                 6.360     6.360   0.0% |
  Orbital Layouts:                           0.295     0.295   0.0% |
  Potential matrix:                          0.001     0.001   0.0% |
  Sum over cells:                            0.008     0.008   0.0% |
 LCAO to grid:                               7.249     7.249   0.0% |
 Set positions (LCAO WFS):                   0.839     0.645   0.0% |
  Basic WFS set positions:                   0.001     0.001   0.0% |
  Basis functions set positions:             0.000     0.000   0.0% |
  P tci:                                     0.000     0.000   0.0% |
  ST tci:                                    0.129     0.129   0.0% |
  mktci:                                     0.063     0.063   0.0% |
Redistribute:                                0.016     0.016   0.0% |
SCF-cycle:                               46040.477   595.196   1.2% |
 Davidson:                               41578.957 14312.677  29.8% |-----------|
  Apply hamiltonian:                       996.460   996.460   2.1% ||
  Subspace diag:                          3637.940     0.315   0.0% |
   calc_h_matrix:                         1906.784   944.825   2.0% ||
    Apply hamiltonian:                     961.960   961.960   2.0% ||
   diagonalize:                            100.672   100.672   0.2% |
   rotate_psi:                            1630.170  1630.170   3.4% ||
  calc. matrices:                        19056.795  6285.386  13.1% |----|
   Apply hamiltonian:                    12771.409 12771.409  26.6% |----------|
  diagonalize:                             455.195   455.195   0.9% |
  rotate_psi:                             3119.890  3119.890   6.5% |--|
 Density:                                   95.573     0.030   0.0% |
  Atomic density matrices:                   9.387     9.387   0.0% |
  Mix:                                      25.481    25.481   0.1% |
  Multipole moments:                         0.490     0.490   0.0% |
  Pseudo density:                           60.185    60.151   0.1% |
   Symmetrize density:                       0.034     0.034   0.0% |
 Hamiltonian:                             3634.379     1.053   0.0% |
  Atomic:                                    0.296     0.292   0.0% |
   XC Correction:                            0.004     0.004   0.0% |
  Calculate atomic Hamiltonians:             0.401     0.401   0.0% |
  Communicate:                             298.662   298.662   0.6% |
  Hartree integrate/restrict:               17.147    17.147   0.0% |
  Poisson:                                 164.924     5.766   0.0% |
   Communicate from 1D:                     12.226    12.226   0.0% |
   Communicate from 2D:                     25.395    25.395   0.1% |
   Communicate to 1D:                        7.815     7.815   0.0% |
   Communicate to 2D:                       32.918    32.918   0.1% |
   FFT 1D:                                  43.833    43.833   0.1% |
   FFT 2D:                                  36.973    36.973   0.1% |
  XC 3D grid:                             3150.135  1192.529   2.5% ||
   VdW-DF integral:                       1957.605   118.390   0.2% |
    Convolution:                           190.489   190.489   0.4% |
    FFT:                                   131.834   131.834   0.3% |
    gather:                                643.597   643.597   1.3% ||
    hmm1:                                   38.360    38.360   0.1% |
    hmm2:                                   81.486    81.486   0.2% |
    iFFT:                                  125.183   125.183   0.3% |
    potential:                             628.260    14.676   0.0% |
     collect:                               42.790    42.790   0.1% |
     p1:                                   379.687   379.687   0.8% |
     p2:                                   126.106   126.106   0.3% |
     sum:                                   65.001    65.001   0.1% |
    splines:                                 0.007     0.007   0.0% |
  vbar:                                      1.760     1.760   0.0% |
 Orthonormalize:                           136.372     0.009   0.0% |
  calc_s_matrix:                             8.585     8.585   0.0% |
  inverse-cholesky:                        111.033   111.033   0.2% |
  projections:                               0.002     0.002   0.0% |
  rotate_psi_s:                             16.743    16.743   0.0% |
Set symmetry:                                0.001     0.001   0.0% |
Other:                                    1337.498  1337.498   2.8% ||
-------------------------------------------------------------------
Total:                                             48005.425 100.0%

Memory usage: 1.36 GiB
Date: Thu Sep 28 10:17:21 2023
