
  ___ ___ ___ _ _ _  
 |   |   |_  | | | | 
 | | | | | . | | | | 
 |__ |  _|___|_____|  22.8.0
 |___|_|             

User:   s204775@c168.nifl.fysik.dtu.dk
Date:   Wed Sep 27 21:01:34 2023
Arch:   x86_64
Pid:    3497
CWD:    /home/cat/s204775/projects/Bachelor_project/O_missing_features
Python: 3.10.4
gpaw:   /home/modules/software/GPAW/22.8.0-intel-2022a/lib/python3.10/site-packages/gpaw
_gpaw:  /home/modules/software/GPAW/22.8.0-intel-2022a/lib/python3.10/site-packages/
        _gpaw.cpython-310-x86_64-linux-gnu.so
ase:    /home/modules/software/ASE/3.22.1-intel-2022a/lib/python3.10/site-packages/ase (version 3.22.1)
numpy:  /home/modules/software/SciPy-bundle/2022.05-intel-2022a/lib/python3.10/site-packages/numpy (version 1.22.3)
scipy:  /home/modules/software/SciPy-bundle/2022.05-intel-2022a/lib/python3.10/site-packages/scipy (version 1.8.1)
libxc:  5.2.3
units:  Angstrom and eV
cores: 40
OpenMP: False
OMP_NUM_THREADS: 1

Input parameters:
  basis: dzp
  h: 0.18
  kpts: {size: (4, 4, 1)}
  xc: BEEF-vdW

System changes: positions, numbers, cell, pbc, initial_charges, initial_magmoms 

Initialize ...

species:
  Hg:
    name: Mercury
    id: 0b51cb891d82143d22b15bac899cb056
    Z: 80.0
    valence: 18
    core: 62
    charge: 0.0
    file: /home/modules/software/GPAW-setups/0.9.20000/Hg.PBE.gz
    compensation charges: {type: gauss,
                           rc: 0.41,
                           lmax: 2}
    cutoffs: {filter: 2.17,
              core: 2.06}
    valence states:
      #              energy  rcut
      - 6s(2.00)    -6.783   1.307
      - 5p(6.00)   -66.572   1.291
      - 6p(0.00)    -1.056   1.291
      - 5d(10.00)    -9.891   1.302
      -  s          20.429   1.307
      -  d          17.320   1.302
  
    # LCAO basis set for Hg:
    #   Name: dzp
    #   File: /home/modules/software/GPAW-setups/0.9.20000/Hg.dzp.basis.gz
    #   Number of radial functions: 9
    #   Number of spherical harmonics: 27
    #     l=0, rc=7.9688 Bohr: 6s-sz confined orbital
    #     l=1, rc=3.3594 Bohr: 5p-sz confined orbital
    #     l=1, rc=12.7031 Bohr: 6p-sz confined orbital
    #     l=2, rc=5.3594 Bohr: 5d-sz confined orbital
    #     l=0, rc=4.6406 Bohr: 6s-dz split-valence wave
    #     l=1, rc=2.2656 Bohr: 5p-dz split-valence wave
    #     l=1, rc=7.7500 Bohr: 6p-dz split-valence wave
    #     l=2, rc=3.2656 Bohr: 5d-dz split-valence wave
    #     l=1, rc=7.9688 Bohr: p-type Gaussian polarization
    #   Number of RI-basis functions 0

  O:
    name: Oxygen
    id: 32ecd46bf208036f09c70b0ec9a88b78
    Z: 8.0
    valence: 6
    core: 2
    charge: 0.0
    file: /home/modules/software/GPAW-setups/0.9.20000/O.PBE.gz
    compensation charges: {type: gauss,
                           rc: 0.21,
                           lmax: 2}
    cutoffs: {filter: 1.17,
              core: 0.83}
    valence states:
      #              energy  rcut
      - 2s(2.00)   -23.961   0.688
      - 2p(4.00)    -9.029   0.598
      -  s           3.251   0.688
      -  p          18.182   0.598
      -  d           0.000   0.619
  
    # LCAO basis set for O:
    #   Name: dzp
    #   File: /home/modules/software/GPAW-setups/0.9.20000/O.dzp.basis.gz
    #   Number of radial functions: 5
    #   Number of spherical harmonics: 13
    #     l=0, rc=4.3438 Bohr: 2s-sz confined orbital
    #     l=1, rc=5.3906 Bohr: 2p-sz confined orbital
    #     l=0, rc=2.2969 Bohr: 2s-dz split-valence wave
    #     l=1, rc=2.8906 Bohr: 2p-dz split-valence wave
    #     l=2, rc=5.3906 Bohr: d-type Gaussian polarization
    #   Number of RI-basis functions 0

Reference energy: -19195648.886490  # eV

Spin-paired calculation

Convergence criteria:
 Maximum [total energy] change in last 3 cyles: 0.0005 eV / electron
 Maximum integral of absolute [dens]ity change: 0.0001 electrons / valence electron
 Maximum integral of absolute [eigenst]ate change: 4e-08 eV^2 / valence electron
 Maximum number of scf [iter]ations: 333
 (Square brackets indicate name in SCF output, whereas a 'c' in
 the SCF output indicates the quantity has converged.)

Symmetries present (total): 2

  ( 1  0  0)  (-1  0  0)
  ( 0  1  0)  (-1  1  0)
  ( 0  0  1)  ( 0  0  1)
Note: your k-points are not as symmetric as your crystal!

16 k-points: 4 x 4 x 1 Monkhorst-Pack grid
8 k-points in the irreducible part of the Brillouin zone
       k-points in crystal coordinates                weights
   0:     0.12500000   -0.37500000    0.00000000          2/16
   1:     0.12500000   -0.12500000    0.00000000          2/16
   2:     0.12500000    0.12500000    0.00000000          2/16
   3:     0.12500000    0.37500000    0.00000000          2/16
   4:     0.37500000   -0.37500000    0.00000000          2/16
   5:     0.37500000   -0.12500000    0.00000000          2/16
   6:     0.37500000    0.12500000    0.00000000          2/16
   7:     0.37500000    0.37500000    0.00000000          2/16

Wave functions: Uniform real-space grid
  Kinetic energy operator: 8*3+1=25 point O(h^6) finite-difference Laplacian
  ScaLapack parameters: grid=1x1, blocksize=None
  Wavefunction extrapolation:
    Improved wavefunction reuse through dual PAW basis 

Occupation numbers: Fermi-Dirac:
  width: 0.1000  # eV
 

Eigensolver
   Davidson(niter=2) 

Densities:
  Coarse grid: 52*52*160 grid
  Fine grid: 104*104*320 grid
  Total Charge: 0.000000 

Density mixing:
  Method: separate
  Backend: pulay
  Linear mixing parameter: 0.05
  old densities: 5
  Damping of long wavelength oscillations: 50 

Hamiltonian:
  XC and Coulomb potentials evaluated on a 104*104*320 grid
  Using the BEEF-vdW Exchange-Correlation functional
  Interpolation: tri-quintic (5. degree polynomial)
  Poisson solver: FastPoissonSolver using
    Stencil: 8*3+1=25 point O(h^6) finite-difference Laplacian
    FFT axes: [0, 1]
    FST axes: [2]
 

XC parameters: BEEF-vdW with 2 nearest neighbor stencil

Memory estimate:
  Process memory now: 245.70 MiB
  Calculator: 1134.59 MiB
    Density: 67.64 MiB
      Arrays: 16.88 MiB
      Localized functions: 44.37 MiB
      Mixer: 6.40 MiB
    Hamiltonian: 13.84 MiB
      Arrays: 11.04 MiB
      XC: 0.00 MiB
      Poisson: 0.00 MiB
      vbar: 2.80 MiB
    Wavefunctions: 1053.12 MiB
      Arrays psit_nG: 507.78 MiB
      Eigensolver: 538.24 MiB
      Projections: 0.80 MiB
      Projectors: 6.29 MiB

Total number of cores used: 40
Parallelization over k-points: 8
Domain decomposition: 1 x 1 x 5

Number of atoms: 37
Number of atomic orbitals: 985
Number of bands in calculation: 397
Number of valence electrons: 654
Bands to converge: occupied

... initialized

Initializing position-dependent things.

Density initialized from atomic densities
Creating initial wave functions:
  397 bands from LCAO basis set

                                                              
                                                              
                                                              
                                                              
                                       O                      
                                   Hg       Hg       Hg       
                                                              
                             Hg       Hg       Hg             
                                                              
                      Hg       Hg       Hg                    
                         Hg       Hg       Hg                 
                                                              
                   Hg      Hg       Hg                        
                              Hg       Hg       Hg            
            Hg       Hg       Hg                              
                        Hg       Hg      Hg                   
                                                              
                 Hg       Hg       Hg                         
                    Hg       Hg       Hg                      
                                                              
             Hg       Hg       Hg                             
       Hg       Hg       Hg                                   
                                                              
                                                              
                                                              
                                                              

Positions:
   0 Hg     0.000000    0.000000   10.000000    ( 0.0000,  0.0000,  0.0000)
   1 Hg     3.603292    2.080362   12.942076    ( 0.0000,  0.0000,  0.0000)
   2 Hg     1.809013    1.044434   15.886304    ( 0.0000,  0.0000,  0.0000)
   3 Hg     5.404939    3.120543   18.930235    ( 0.0000,  0.0000,  0.0000)
   4 Hg     1.801646    3.120543   10.000000    ( 0.0000,  0.0000,  0.0000)
   5 Hg     5.404939    5.200905   12.942076    ( 0.0000,  0.0000,  0.0000)
   6 Hg     3.616813    4.152917   15.866715    ( 0.0000,  0.0000,  0.0000)
   7 Hg     7.191366    6.267569   18.938926    ( 0.0000,  0.0000,  0.0000)
   8 Hg     3.603292    6.241086   10.000000    ( 0.0000,  0.0000,  0.0000)
   9 Hg     7.206585    8.321447   12.942076    ( 0.0000,  0.0000,  0.0000)
  10 Hg     5.404939    7.272760   15.886304    ( 0.0000,  0.0000,  0.0000)
  11 Hg     8.977686    9.361566   18.938926    ( 0.0000,  0.0000,  0.0000)
  12 Hg     3.603292    0.000000   10.000000    ( 0.0000,  0.0000,  0.0000)
  13 Hg     7.206585    2.080362   12.942076    ( 0.0000,  0.0000,  0.0000)
  14 Hg     5.404939    1.055793   15.866715    ( 0.0000,  0.0000,  0.0000)
  15 Hg     9.023557    3.094121   18.938926    ( 0.0000,  0.0000,  0.0000)
  16 Hg     5.404939    3.120543   10.000000    ( 0.0000,  0.0000,  0.0000)
  17 Hg     9.008231    5.200905   12.942076    ( 0.0000,  0.0000,  0.0000)
  18 Hg     7.193064    4.152917   15.866715    ( 0.0000,  0.0000,  0.0000)
  19 Hg    10.809877    6.241086   18.929682    ( 0.0000,  0.0000,  0.0000)
  20 Hg     7.206585    6.241086   10.000000    ( 0.0000,  0.0000,  0.0000)
  21 Hg    10.809877    8.321447   12.942076    ( 0.0000,  0.0000,  0.0000)
  22 Hg     8.994409    7.289247   15.879143    ( 0.0000,  0.0000,  0.0000)
  23 Hg    12.642068    9.361566   18.938926    ( 0.0000,  0.0000,  0.0000)
  24 Hg     7.206585    0.000000   10.000000    ( 0.0000,  0.0000,  0.0000)
  25 Hg    10.809877    2.080362   12.942076    ( 0.0000,  0.0000,  0.0000)
  26 Hg     9.000864    1.044434   15.886304    ( 0.0000,  0.0000,  0.0000)
  27 Hg    12.596197    3.094121   18.938926    ( 0.0000,  0.0000,  0.0000)
  28 Hg     9.008231    3.120543   10.000000    ( 0.0000,  0.0000,  0.0000)
  29 Hg    12.611524    5.200905   12.942076    ( 0.0000,  0.0000,  0.0000)
  30 Hg    10.809877    4.144763   15.879143    ( 0.0000,  0.0000,  0.0000)
  31 Hg    14.428388    6.267569   18.938926    ( 0.0000,  0.0000,  0.0000)
  32 Hg    10.809877    6.241086   10.000000    ( 0.0000,  0.0000,  0.0000)
  33 Hg    14.413170    8.321447   12.942076    ( 0.0000,  0.0000,  0.0000)
  34 Hg    12.625346    7.289247   15.879143    ( 0.0000,  0.0000,  0.0000)
  35 Hg    16.214816    9.361628   18.940525    ( 0.0000,  0.0000,  0.0000)
  36 O     10.809877    8.330297   19.974288    ( 0.0000,  0.0000,  0.0000)

Unit cell:
           periodic     x           y           z      points  spacing
  1. axis:    yes   10.809877    0.000000    0.000000    52     0.1800
  2. axis:    yes    5.404939    9.361628    0.000000    52     0.1800
  3. axis:    no     0.000000    0.000000   28.826228   160     0.1802

  Lengths:  10.809877  10.809877  28.826228
  Angles:   90.000000  90.000000  60.000000

Effective grid spacing dv^(1/3) = 0.1889

     iter     time        total  log10-change:
                         energy  eigst   dens
iter:   1 21:03:28 -12234.772741
iter:   2 21:04:31 -12235.021225  -0.46  -1.50
iter:   3 21:05:33 -12234.374630  -0.95  -1.52
iter:   4 21:06:36 -12235.349149  -1.49  -1.60
iter:   5 21:07:39 -12237.104807  -0.93  -1.59
iter:   6 21:08:41 -12237.938085  -1.18  -2.05
iter:   7 21:09:44 -12238.285358  -1.54  -2.14
iter:   8 21:10:47 -12237.999632  -1.57  -2.09
iter:   9 21:11:49 -12237.986746c -1.51  -2.21
iter:  10 21:12:52 -12237.870429c -2.26  -2.38
iter:  11 21:13:55 -12237.697712c -3.12  -2.41
iter:  12 21:14:57 -12237.917545c -2.55  -2.35
iter:  13 21:16:00 -12237.920495c -2.89  -2.42
iter:  14 21:17:02 -12237.828955c -3.20  -2.44
iter:  15 21:18:05 -12237.753059c -3.49  -2.56
iter:  16 21:19:08 -12237.695826c -3.31  -2.71
iter:  17 21:20:10 -12237.687526c -3.64  -3.01
iter:  18 21:21:13 -12237.684802c -4.25  -3.22
iter:  19 21:22:15 -12237.683019c -4.69  -3.32
iter:  20 21:23:18 -12237.682385c -4.51  -3.45
iter:  21 21:24:21 -12237.682217c -5.33  -3.88
iter:  22 21:25:24 -12237.682138c -5.48  -3.93
iter:  23 21:26:26 -12237.682196c -6.07  -4.01c
iter:  24 21:27:29 -12237.682246c -6.05  -4.12c
iter:  25 21:28:32 -12237.682205c -6.65  -4.32c
iter:  26 21:29:34 -12237.682199c -6.71  -4.39c
iter:  27 21:30:37 -12237.682204c -6.79  -4.60c
iter:  28 21:31:39 -12237.682205c -7.13  -4.67c
iter:  29 21:32:42 -12237.682200c -7.30  -4.74c
iter:  30 21:33:45 -12237.682192c -7.96c -4.84c

Converged after 30 iterations.

Dipole moment: (-20.259309, -11.733214, -0.403515) |e|*Ang

Energy contributions relative to reference atoms: (reference = -19195648.886490)

Kinetic:       +2035.353138
Potential:     -1817.262898
External:        +0.000000
XC:            -12368.686185
Entropy (-ST):   -0.301676
Local:          -86.935409
--------------------------
Free energy:   -12237.833029
Extrapolated:  -12237.682192

Showing only first 2 kpts
 Kpt  Band  Eigenvalues  Occupancy
  0   325     -5.13784    1.88000
  0   326     -5.00932    1.62500
  0   327     -4.81523    0.76707
  0   328     -4.26333    0.00498

  1   325     -5.13889    1.88117
  1   326     -4.87940    1.08336
  1   327     -4.79845    0.68942
  1   328     -4.18468    0.00227


Fermi level: -4.86269

No gap

Forces in eV/Ang:
  0 Hg   -0.00000    0.00118   -0.08240
  1 Hg   -0.01319   -0.01424    0.00759
  2 Hg    0.01543   -0.01605    0.06472
  3 Hg    0.00000   -0.01903    0.05088
  4 Hg   -0.01315   -0.02293   -0.08183
  5 Hg   -0.00000    0.01969    0.00419
  6 Hg    0.01217   -0.00659    0.03128
  7 Hg    0.02522    0.00080    0.01210
  8 Hg    0.00986    0.02371   -0.07925
  9 Hg    0.00800   -0.00247    0.01213
 10 Hg   -0.00000    0.00846    0.04595
 11 Hg   -0.07106    0.04297    0.11756
 12 Hg   -0.02408   -0.00002   -0.08451
 13 Hg    0.01319   -0.01424    0.00759
 14 Hg    0.00000   -0.00735    0.05744
 15 Hg   -0.05677    0.03703    0.00155
 16 Hg    0.00000   -0.00393   -0.07682
 17 Hg    0.01295    0.01206    0.03372
 18 Hg   -0.01217   -0.00659    0.03128
 19 Hg    0.00000   -0.12477    0.12780
 20 Hg   -0.00986    0.02371   -0.07925
 21 Hg    0.00000   -0.01261    0.02025
 22 Hg    0.03119    0.00428    0.07901
 23 Hg    0.07106    0.04297    0.11756
 24 Hg    0.02408   -0.00002   -0.08451
 25 Hg   -0.00000    0.00257    0.03274
 26 Hg   -0.01543   -0.01605    0.06472
 27 Hg    0.05677    0.03703    0.00155
 28 Hg    0.01315   -0.02293   -0.08183
 29 Hg   -0.01295    0.01206    0.03372
 30 Hg   -0.00000    0.03843    0.07044
 31 Hg   -0.02522    0.00080    0.01210
 32 Hg   -0.00000    0.00142   -0.08248
 33 Hg   -0.00800   -0.00247    0.01213
 34 Hg   -0.03119    0.00428    0.07901
 35 Hg    0.00000   -0.05968   -0.02875
 36 O    -0.00000    0.08192   -0.61695

      Step     Time          Energy         fmax
BFGS:    0 21:34:02   -12237.682192        0.6224
System changes: positions 

Initializing position-dependent things.

Density initialized from wave functions
                                                              
                                                              
                                                              
                                                              
                                       O                      
                                   Hg       Hg       Hg       
                                                              
                             Hg       Hg       Hg             
                                                              
                      Hg       Hg       Hg                    
                         Hg       Hg       Hg                 
                                                              
                   Hg      Hg       Hg                        
                              Hg       Hg       Hg            
            Hg       Hg       Hg                              
                        Hg       Hg      Hg                   
                                                              
                 Hg       Hg       Hg                         
                    Hg       Hg       Hg                      
             Hg       Hg       Hg                             
                                                              
       Hg       Hg       Hg                                   
                                                              
                                                              
                                                              
                                                              

Positions:
   0 Hg     0.000000    0.000000   10.000000    ( 0.0000,  0.0000,  0.0000)
   1 Hg     3.603292    2.080362   12.942076    ( 0.0000,  0.0000,  0.0000)
   2 Hg     1.809234    1.044205   15.887228    ( 0.0000,  0.0000,  0.0000)
   3 Hg     5.404939    3.120271   18.930962    ( 0.0000,  0.0000,  0.0000)
   4 Hg     1.801646    3.120543   10.000000    ( 0.0000,  0.0000,  0.0000)
   5 Hg     5.404939    5.200905   12.942076    ( 0.0000,  0.0000,  0.0000)
   6 Hg     3.616987    4.152823   15.867162    ( 0.0000,  0.0000,  0.0000)
   7 Hg     7.191727    6.267581   18.939099    ( 0.0000,  0.0000,  0.0000)
   8 Hg     3.603292    6.241086   10.000000    ( 0.0000,  0.0000,  0.0000)
   9 Hg     7.206585    8.321447   12.942076    ( 0.0000,  0.0000,  0.0000)
  10 Hg     5.404939    7.272881   15.886960    ( 0.0000,  0.0000,  0.0000)
  11 Hg     8.976671    9.362180   18.940605    ( 0.0000,  0.0000,  0.0000)
  12 Hg     3.603292    0.000000   10.000000    ( 0.0000,  0.0000,  0.0000)
  13 Hg     7.206585    2.080362   12.942076    ( 0.0000,  0.0000,  0.0000)
  14 Hg     5.404939    1.055688   15.867535    ( 0.0000,  0.0000,  0.0000)
  15 Hg     9.022746    3.094650   18.938948    ( 0.0000,  0.0000,  0.0000)
  16 Hg     5.404939    3.120543   10.000000    ( 0.0000,  0.0000,  0.0000)
  17 Hg     9.008231    5.200905   12.942076    ( 0.0000,  0.0000,  0.0000)
  18 Hg     7.192890    4.152823   15.867162    ( 0.0000,  0.0000,  0.0000)
  19 Hg    10.809877    6.239303   18.931508    ( 0.0000,  0.0000,  0.0000)
  20 Hg     7.206585    6.241086   10.000000    ( 0.0000,  0.0000,  0.0000)
  21 Hg    10.809877    8.321447   12.942076    ( 0.0000,  0.0000,  0.0000)
  22 Hg     8.994854    7.289308   15.880272    ( 0.0000,  0.0000,  0.0000)
  23 Hg    12.643084    9.362180   18.940605    ( 0.0000,  0.0000,  0.0000)
  24 Hg     7.206585    0.000000   10.000000    ( 0.0000,  0.0000,  0.0000)
  25 Hg    10.809877    2.080362   12.942076    ( 0.0000,  0.0000,  0.0000)
  26 Hg     9.000644    1.044205   15.887228    ( 0.0000,  0.0000,  0.0000)
  27 Hg    12.597008    3.094650   18.938948    ( 0.0000,  0.0000,  0.0000)
  28 Hg     9.008231    3.120543   10.000000    ( 0.0000,  0.0000,  0.0000)
  29 Hg    12.611524    5.200905   12.942076    ( 0.0000,  0.0000,  0.0000)
  30 Hg    10.809877    4.145312   15.880150    ( 0.0000,  0.0000,  0.0000)
  31 Hg    14.428028    6.267581   18.939099    ( 0.0000,  0.0000,  0.0000)
  32 Hg    10.809877    6.241086   10.000000    ( 0.0000,  0.0000,  0.0000)
  33 Hg    14.413170    8.321447   12.942076    ( 0.0000,  0.0000,  0.0000)
  34 Hg    12.624900    7.289308   15.880272    ( 0.0000,  0.0000,  0.0000)
  35 Hg    16.214816    9.360776   18.940115    ( 0.0000,  0.0000,  0.0000)
  36 O     10.809877    8.331467   19.965474    ( 0.0000,  0.0000,  0.0000)

Unit cell:
           periodic     x           y           z      points  spacing
  1. axis:    yes   10.809877    0.000000    0.000000    52     0.1800
  2. axis:    yes    5.404939    9.361628    0.000000    52     0.1800
  3. axis:    no     0.000000    0.000000   28.826228   160     0.1802

  Lengths:  10.809877  10.809877  28.826228
  Angles:   90.000000  90.000000  60.000000

Effective grid spacing dv^(1/3) = 0.1889

     iter     time        total  log10-change:
                         energy  eigst   dens
iter:   1 21:35:56 -12237.693567  -3.70
iter:   2 21:36:59 -12237.691732  -4.65  -3.69
iter:   3 21:38:01 -12237.690885c -5.22  -3.97
iter:   4 21:39:04 -12237.690766c -5.77  -4.29c
iter:   5 21:40:07 -12237.690563c -5.95  -4.47c
iter:   6 21:41:10 -12237.690682c -6.51  -4.46c
iter:   7 21:42:13 -12237.690677c -6.73  -4.72c
iter:   8 21:43:15 -12237.690640c -7.20  -4.75c
iter:   9 21:44:18 -12237.690661c -7.48c -4.99c

Converged after 9 iterations.

Dipole moment: (-20.300580, -11.754572, -0.398248) |e|*Ang

Energy contributions relative to reference atoms: (reference = -19195648.886490)

Kinetic:       +2035.941523
Potential:     -1817.804486
External:        +0.000000
XC:            -12368.730122
Entropy (-ST):   -0.299482
Local:          -86.947834
--------------------------
Free energy:   -12237.840401
Extrapolated:  -12237.690661

Showing only first 2 kpts
 Kpt  Band  Eigenvalues  Occupancy
  0   325     -5.13827    1.88421
  0   326     -5.00701    1.62821
  0   327     -4.81028    0.75957
  0   328     -4.26005    0.00498

  1   325     -5.14030    1.88640
  1   326     -4.87588    1.08257
  1   327     -4.79388    0.68396
  1   328     -4.18294    0.00231


Fermi level: -4.85932

No gap

Forces in eV/Ang:
  0 Hg   -0.00000    0.00147   -0.08327
  1 Hg   -0.01349   -0.01389    0.00457
  2 Hg    0.01889   -0.01671    0.06358
  3 Hg    0.00000   -0.02463    0.04770
  4 Hg   -0.01327   -0.02295   -0.08247
  5 Hg   -0.00000    0.01964    0.00082
  6 Hg    0.01166   -0.00643    0.02999
  7 Hg    0.02862    0.00283    0.01033
  8 Hg    0.01008    0.02340   -0.07992
  9 Hg    0.00788   -0.00250    0.00916
 10 Hg   -0.00000    0.00712    0.04434
 11 Hg   -0.08473    0.05045    0.10646
 12 Hg   -0.02441    0.00030   -0.08531
 13 Hg    0.01349   -0.01389    0.00457
 14 Hg    0.00000   -0.01174    0.06199
 15 Hg   -0.05895    0.03612    0.00110
 16 Hg    0.00000   -0.00363   -0.07723
 17 Hg    0.01293    0.01167    0.03098
 18 Hg   -0.01166   -0.00643    0.02999
 19 Hg    0.00000   -0.13642    0.11930
 20 Hg   -0.01008    0.02340   -0.07992
 21 Hg    0.00000   -0.01275    0.01900
 22 Hg    0.03347    0.00668    0.08274
 23 Hg    0.08473    0.05045    0.10646
 24 Hg    0.02441    0.00030   -0.08531
 25 Hg   -0.00000    0.00294    0.02901
 26 Hg   -0.01889   -0.01671    0.06358
 27 Hg    0.05895    0.03612    0.00110
 28 Hg    0.01327   -0.02295   -0.08247
 29 Hg   -0.01293    0.01167    0.03098
 30 Hg   -0.00000    0.03891    0.06756
 31 Hg   -0.02862    0.00283    0.01033
 32 Hg   -0.00000    0.00087   -0.08325
 33 Hg   -0.00788   -0.00250    0.00916
 34 Hg   -0.03347    0.00668    0.08274
 35 Hg    0.00000   -0.05848   -0.02813
 36 O    -0.00000    0.07326   -0.60189

BFGS:    1 21:44:36   -12237.690661        0.6063
System changes: positions 

Initializing position-dependent things.

Density initialized from wave functions
                                                              
                                                              
                                                              
                                                              
                                       O                      
                                   Hg       Hg       Hg       
                                                              
                             Hg       Hg       Hg             
                      Hg       Hg       Hg                    
                                                              
                         Hg       Hg       Hg                 
                                                              
                   Hg      Hg       Hg                        
            Hg       Hg       Hg       Hg       Hg            
                                                              
                        Hg       Hg      Hg                   
                 Hg       Hg       Hg                         
                                                              
                    Hg       Hg       Hg                      
             Hg       Hg       Hg                             
                                                              
       Hg       Hg       Hg                                   
                                                              
                                                              
                                                              
                                                              

Positions:
   0 Hg     0.000000    0.000000   10.000000    ( 0.0000,  0.0000,  0.0000)
   1 Hg     3.603292    2.080362   12.942076    ( 0.0000,  0.0000,  0.0000)
   2 Hg     1.815295    1.038741   15.908177    ( 0.0000,  0.0000,  0.0000)
   3 Hg     5.404939    3.112413   18.946778    ( 0.0000,  0.0000,  0.0000)
   4 Hg     1.801646    3.120543   10.000000    ( 0.0000,  0.0000,  0.0000)
   5 Hg     5.404939    5.200905   12.942076    ( 0.0000,  0.0000,  0.0000)
   6 Hg     3.620842    4.150703   15.877076    ( 0.0000,  0.0000,  0.0000)
   7 Hg     7.200990    6.268424   18.942570    ( 0.0000,  0.0000,  0.0000)
   8 Hg     3.603292    6.241086   10.000000    ( 0.0000,  0.0000,  0.0000)
   9 Hg     7.206585    8.321447   12.942076    ( 0.0000,  0.0000,  0.0000)
  10 Hg     5.404939    7.275279   15.901606    ( 0.0000,  0.0000,  0.0000)
  11 Hg     8.949403    9.378446   18.976076    ( 0.0000,  0.0000,  0.0000)
  12 Hg     3.603292    0.000000   10.000000    ( 0.0000,  0.0000,  0.0000)
  13 Hg     7.206585    2.080362   12.942076    ( 0.0000,  0.0000,  0.0000)
  14 Hg     5.404939    1.052017   15.887719    ( 0.0000,  0.0000,  0.0000)
  15 Hg     9.003460    3.106564   18.939328    ( 0.0000,  0.0000,  0.0000)
  16 Hg     5.404939    3.120543   10.000000    ( 0.0000,  0.0000,  0.0000)
  17 Hg     9.008231    5.200905   12.942076    ( 0.0000,  0.0000,  0.0000)
  18 Hg     7.189036    4.150703   15.877076    ( 0.0000,  0.0000,  0.0000)
  19 Hg    10.809877    6.194956   18.971088    ( 0.0000,  0.0000,  0.0000)
  20 Hg     7.206585    6.241086   10.000000    ( 0.0000,  0.0000,  0.0000)
  21 Hg    10.809877    8.321447   12.942076    ( 0.0000,  0.0000,  0.0000)
  22 Hg     9.005760    7.291402   15.907311    ( 0.0000,  0.0000,  0.0000)
  23 Hg    12.670352    9.378446   18.976076    ( 0.0000,  0.0000,  0.0000)
  24 Hg     7.206585    0.000000   10.000000    ( 0.0000,  0.0000,  0.0000)
  25 Hg    10.809877    2.080362   12.942076    ( 0.0000,  0.0000,  0.0000)
  26 Hg     8.994582    1.038741   15.908177    ( 0.0000,  0.0000,  0.0000)
  27 Hg    12.616294    3.106564   18.939328    ( 0.0000,  0.0000,  0.0000)
  28 Hg     9.008231    3.120543   10.000000    ( 0.0000,  0.0000,  0.0000)
  29 Hg    12.611524    5.200905   12.942076    ( 0.0000,  0.0000,  0.0000)
  30 Hg    10.809877    4.158083   15.902482    ( 0.0000,  0.0000,  0.0000)
  31 Hg    14.418764    6.268424   18.942570    ( 0.0000,  0.0000,  0.0000)
  32 Hg    10.809877    6.241086   10.000000    ( 0.0000,  0.0000,  0.0000)
  33 Hg    14.413170    8.321447   12.942076    ( 0.0000,  0.0000,  0.0000)
  34 Hg    12.613995    7.291402   15.907311    ( 0.0000,  0.0000,  0.0000)
  35 Hg    16.214816    9.341500   18.930841    ( 0.0000,  0.0000,  0.0000)
  36 O     10.809877    8.355918   19.766974    ( 0.0000,  0.0000,  0.0000)

Unit cell:
           periodic     x           y           z      points  spacing
  1. axis:    yes   10.809877    0.000000    0.000000    52     0.1800
  2. axis:    yes    5.404939    9.361628    0.000000    52     0.1800
  3. axis:    no     0.000000    0.000000   28.826228   160     0.1802

  Lengths:  10.809877  10.809877  28.826228
  Angles:   90.000000  90.000000  60.000000

Effective grid spacing dv^(1/3) = 0.1889

     iter     time        total  log10-change:
                         energy  eigst   dens
iter:   1 21:46:29 -12238.469223  -1.08
iter:   2 21:47:32 -12237.924508  -1.95  -2.33
iter:   3 21:48:35 -12237.879149  -2.60  -2.78
iter:   4 21:49:38 -12237.858198c -3.06  -2.94
iter:   5 21:50:41 -12237.851509c -3.38  -3.01
iter:   6 21:51:43 -12237.853941c -3.82  -3.25
iter:   7 21:52:46 -12237.851688c -4.07  -3.26
iter:   8 21:53:49 -12237.853812c -4.17  -3.53
iter:   9 21:54:52 -12237.852320c -5.01  -3.61
iter:  10 21:55:54 -12237.852272c -5.51  -3.89
iter:  11 21:56:57 -12237.852598c -5.27  -3.90
iter:  12 21:58:00 -12237.852538c -5.31  -4.10c
iter:  13 21:59:03 -12237.852467c -6.12  -4.28c
iter:  14 22:00:06 -12237.852454c -6.28  -4.45c
iter:  15 22:01:08 -12237.852486c -6.36  -4.56c
iter:  16 22:02:11 -12237.852492c -6.90  -4.69c
iter:  17 22:03:14 -12237.852488c -7.10  -4.83c
iter:  18 22:04:17 -12237.852484c -7.32  -5.00c
iter:  19 22:05:19 -12237.852474c -7.81c -5.05c

Converged after 19 iterations.

Dipole moment: (-21.346665, -12.512276, -0.292607) |e|*Ang

Energy contributions relative to reference atoms: (reference = -19195648.886490)

Kinetic:       +2037.510175
Potential:     -1819.185693
External:        +0.000000
XC:            -12369.105477
Entropy (-ST):   -0.252662
Local:          -86.945148
--------------------------
Free energy:   -12237.978805
Extrapolated:  -12237.852474

Showing only first 2 kpts
 Kpt  Band  Eigenvalues  Occupancy
  0   325     -5.14108    1.94765
  0   326     -4.95803    1.71286
  0   327     -4.69625    0.60650
  0   328     -4.18223    0.00508

  1   325     -5.17398    1.96205
  1   326     -4.80064    1.10565
  1   327     -4.69048    0.58242
  1   328     -4.13581    0.00320


Fermi level: -4.77943

No gap

Forces in eV/Ang:
  0 Hg   -0.00000    0.00152   -0.08309
  1 Hg   -0.01651   -0.01494    0.01598
  2 Hg    0.01880   -0.00396    0.04756
  3 Hg    0.00000   -0.00910    0.03575
  4 Hg   -0.01322   -0.02293   -0.08213
  5 Hg   -0.00000    0.02157    0.00976
  6 Hg    0.00430    0.00096    0.00600
  7 Hg    0.01993   -0.01040    0.02192
  8 Hg    0.01112    0.02270   -0.07916
  9 Hg    0.00777   -0.00166    0.02297
 10 Hg    0.00000   -0.00831    0.02941
 11 Hg   -0.25691    0.16934    0.07245
 12 Hg   -0.02511    0.00084   -0.08471
 13 Hg    0.01651   -0.01494    0.01598
 14 Hg    0.00000   -0.02555    0.03810
 15 Hg   -0.07240    0.05154    0.02611
 16 Hg    0.00000   -0.00256   -0.07666
 17 Hg    0.01414    0.01034    0.04377
 18 Hg   -0.00430    0.00096    0.00600
 19 Hg    0.00000   -0.32022    0.06318
 20 Hg   -0.01112    0.02270   -0.07916
 21 Hg    0.00000   -0.01304    0.03127
 22 Hg    0.01615    0.00722    0.04535
 23 Hg    0.25691    0.16934    0.07245
 24 Hg    0.02511    0.00084   -0.08471
 25 Hg   -0.00000    0.00392    0.04588
 26 Hg   -0.01880   -0.00396    0.04756
 27 Hg    0.07240    0.05154    0.02611
 28 Hg    0.01322   -0.02293   -0.08213
 29 Hg   -0.01414    0.01034    0.04377
 30 Hg   -0.00000    0.00661    0.03605
 31 Hg   -0.01993   -0.01040    0.02192
 32 Hg    0.00000   -0.00003   -0.08280
 33 Hg   -0.00777   -0.00166    0.02297
 34 Hg   -0.01615    0.00722    0.04535
 35 Hg    0.00000   -0.03271   -0.00132
 36 O    -0.00000    0.02454   -0.28724

BFGS:    2 22:05:38   -12237.852474        0.3264
System changes: positions 

Initializing position-dependent things.

Density initialized from wave functions
                                                              
                                                              
                                                              
                                                              
                                   Hg  O    Hg                
                                                     Hg       
                             Hg       Hg       Hg             
                                                              
                      Hg       Hg       Hg                    
                                                              
                         Hg       Hg       Hg                 
                   Hg      Hg       Hg                        
                                                              
            Hg       Hg       Hg       Hg       Hg            
                                                              
                        Hg       Hg      Hg                   
                 Hg       Hg       Hg                         
                                                              
                    Hg       Hg       Hg                      
             Hg       Hg       Hg                             
                                                              
       Hg       Hg       Hg                                   
                                                              
                                                              
                                                              
                                                              

Positions:
   0 Hg     0.000000    0.000000   10.000000    ( 0.0000,  0.0000,  0.0000)
   1 Hg     3.603292    2.080362   12.942076    ( 0.0000,  0.0000,  0.0000)
   2 Hg     1.821456    1.033382   15.929456    ( 0.0000,  0.0000,  0.0000)
   3 Hg     5.404939    3.104758   18.962901    ( 0.0000,  0.0000,  0.0000)
   4 Hg     1.801646    3.120543   10.000000    ( 0.0000,  0.0000,  0.0000)
   5 Hg     5.404939    5.200905   12.942076    ( 0.0000,  0.0000,  0.0000)
   6 Hg     3.624676    4.148663   15.886839    ( 0.0000,  0.0000,  0.0000)
   7 Hg     7.210279    6.268983   18.946414    ( 0.0000,  0.0000,  0.0000)
   8 Hg     3.603292    6.241086   10.000000    ( 0.0000,  0.0000,  0.0000)
   9 Hg     7.206585    8.321447   12.942076    ( 0.0000,  0.0000,  0.0000)
  10 Hg     5.404939    7.277473   15.916427    ( 0.0000,  0.0000,  0.0000)
  11 Hg     8.918220    9.397382   19.012182    ( 0.0000,  0.0000,  0.0000)
  12 Hg     3.603292    0.000000   10.000000    ( 0.0000,  0.0000,  0.0000)
  13 Hg     7.206585    2.080362   12.942076    ( 0.0000,  0.0000,  0.0000)
  14 Hg     5.404939    1.048062   15.907924    ( 0.0000,  0.0000,  0.0000)
  15 Hg     8.983384    3.119158   18.940226    ( 0.0000,  0.0000,  0.0000)
  16 Hg     5.404939    3.120543   10.000000    ( 0.0000,  0.0000,  0.0000)
  17 Hg     9.008231    5.200905   12.942076    ( 0.0000,  0.0000,  0.0000)
  18 Hg     7.185201    4.148663   15.886839    ( 0.0000,  0.0000,  0.0000)
  19 Hg    10.809877    6.145909   19.010926    ( 0.0000,  0.0000,  0.0000)
  20 Hg     7.206585    6.241086   10.000000    ( 0.0000,  0.0000,  0.0000)
  21 Hg    10.809877    8.321447   12.942076    ( 0.0000,  0.0000,  0.0000)
  22 Hg     9.016594    7.293514   15.934327    ( 0.0000,  0.0000,  0.0000)
  23 Hg    12.701535    9.397382   19.012182    ( 0.0000,  0.0000,  0.0000)
  24 Hg     7.206585    0.000000   10.000000    ( 0.0000,  0.0000,  0.0000)
  25 Hg    10.809877    2.080362   12.942076    ( 0.0000,  0.0000,  0.0000)
  26 Hg     8.988421    1.033382   15.929456    ( 0.0000,  0.0000,  0.0000)
  27 Hg    12.636371    3.119158   18.940226    ( 0.0000,  0.0000,  0.0000)
  28 Hg     9.008231    3.120543   10.000000    ( 0.0000,  0.0000,  0.0000)
  29 Hg    12.611524    5.200905   12.942076    ( 0.0000,  0.0000,  0.0000)
  30 Hg    10.809877    4.170582   15.924920    ( 0.0000,  0.0000,  0.0000)
  31 Hg    14.409475    6.268983   18.946414    ( 0.0000,  0.0000,  0.0000)
  32 Hg    10.809877    6.241086   10.000000    ( 0.0000,  0.0000,  0.0000)
  33 Hg    14.413170    8.321447   12.942076    ( 0.0000,  0.0000,  0.0000)
  34 Hg    12.603161    7.293514   15.934327    ( 0.0000,  0.0000,  0.0000)
  35 Hg    16.214816    9.322135   18.921810    ( 0.0000,  0.0000,  0.0000)
  36 O     10.809877    8.380329   19.568470    ( 0.0000,  0.0000,  0.0000)

Unit cell:
           periodic     x           y           z      points  spacing
  1. axis:    yes   10.809877    0.000000    0.000000    52     0.1800
  2. axis:    yes    5.404939    9.361628    0.000000    52     0.1800
  3. axis:    no     0.000000    0.000000   28.826228   160     0.1802

  Lengths:  10.809877  10.809877  28.826228
  Angles:   90.000000  90.000000  60.000000

Effective grid spacing dv^(1/3) = 0.1889

     iter     time        total  log10-change:
                         energy  eigst   dens
iter:   1 22:07:30 -12238.359070  -1.06
iter:   2 22:08:33 -12238.065006  -1.94  -2.43
iter:   3 22:09:35 -12238.000686  -2.55  -2.74
iter:   4 22:10:38 -12237.985392c -3.02  -2.96
iter:   5 22:11:41 -12237.980756c -3.35  -3.01
iter:   6 22:12:44 -12237.982303c -3.91  -3.25
iter:   7 22:13:47 -12237.980801c -3.99  -3.27
iter:   8 22:14:49 -12237.981927c -4.29  -3.50
iter:   9 22:15:52 -12237.980976c -5.13  -3.67
iter:  10 22:16:55 -12237.980845c -5.27  -3.91
iter:  11 22:17:58 -12237.981241c -5.33  -3.94
iter:  12 22:19:00 -12237.981280c -5.17  -4.09c
iter:  13 22:20:03 -12237.981152c -6.00  -3.99
iter:  14 22:21:06 -12237.981141c -6.11  -4.16c
iter:  15 22:22:09 -12237.981124c -6.28  -4.33c
iter:  16 22:23:11 -12237.981179c -6.54  -4.42c
iter:  17 22:24:14 -12237.981171c -6.54  -4.45c
iter:  18 22:25:17 -12237.981109c -6.53  -4.70c
iter:  19 22:26:20 -12237.981112c -7.51c -4.69c

Converged after 19 iterations.

Dipole moment: (-22.558324, -13.518935, -0.196216) |e|*Ang

Energy contributions relative to reference atoms: (reference = -19195648.886490)

Kinetic:       +2038.433733
Potential:     -1820.052109
External:        +0.000000
XC:            -12369.312190
Entropy (-ST):   -0.212965
Local:          -86.944064
--------------------------
Free energy:   -12238.087595
Extrapolated:  -12237.981112

Showing only first 2 kpts
 Kpt  Band  Eigenvalues  Occupancy
  0   325     -5.13964    1.97303
  0   326     -4.92760    1.79545
  0   327     -4.59490    0.47923
  0   328     -4.11437    0.00515

  1   325     -5.20773    1.98626
  1   326     -4.74850    1.18830
  1   327     -4.60587    0.52031
  1   328     -4.09015    0.00404


Fermi level: -4.71038

No gap

Forces in eV/Ang:
  0 Hg   -0.00000    0.00098   -0.08796
  1 Hg   -0.01547   -0.01798    0.02845
  2 Hg    0.01308    0.01132    0.02550
  3 Hg   -0.00000    0.00206    0.03480
  4 Hg   -0.01279   -0.02246   -0.08685
  5 Hg   -0.00000    0.02228    0.01986
  6 Hg   -0.00662    0.01060   -0.00850
  7 Hg    0.01542   -0.01911    0.04526
  8 Hg    0.01131    0.02244   -0.08372
  9 Hg    0.01037   -0.00145    0.03635
 10 Hg    0.00000   -0.02478    0.01745
 11 Hg   -0.44366    0.23412    0.01869
 12 Hg   -0.02461    0.00047   -0.08779
 13 Hg    0.01547   -0.01798    0.02845
 14 Hg    0.00000   -0.04799    0.05100
 15 Hg   -0.06754    0.04628    0.04671
 16 Hg    0.00000   -0.00223   -0.08131
 17 Hg    0.01498    0.01206    0.05471
 18 Hg    0.00662    0.01060   -0.00850
 19 Hg    0.00000   -0.31728    0.03721
 20 Hg   -0.01131    0.02244   -0.08372
 21 Hg    0.00000   -0.01184    0.04128
 22 Hg    0.01511    0.02771    0.03046
 23 Hg    0.44366    0.23412    0.01869
 24 Hg    0.02461    0.00047   -0.08779
 25 Hg   -0.00000    0.00377    0.06022
 26 Hg   -0.01308    0.01132    0.02550
 27 Hg    0.06754    0.04628    0.04671
 28 Hg    0.01279   -0.02246   -0.08685
 29 Hg   -0.01498    0.01206    0.05471
 30 Hg    0.00000   -0.02240    0.00804
 31 Hg   -0.01542   -0.01911    0.04526
 32 Hg   -0.00000    0.00044   -0.08590
 33 Hg   -0.01037   -0.00145    0.03635
 34 Hg   -0.01511    0.02771    0.03046
 35 Hg    0.00000   -0.02588    0.04380
 36 O     0.00000   -0.06274   -0.16747

BFGS:    3 22:26:38   -12237.981112        0.5020
System changes: positions 

Initializing position-dependent things.

Density initialized from wave functions
                                                              
                                                              
                                                              
                                                              
                                   Hg  O    Hg       Hg       
                                                              
                             Hg       Hg      Hg              
                                                              
                      Hg       Hg       Hg                    
                         Hg       Hg       Hg                 
                                                              
                   Hg      Hg       Hg                        
                              Hg       Hg       Hg            
            Hg       Hg       Hg                              
                        Hg       Hg      Hg                   
                                                              
                 Hg       Hg       Hg                         
                    Hg       Hg       Hg                      
                                                              
             Hg       Hg       Hg                             
       Hg       Hg       Hg                                   
                                                              
                                                              
                                                              
                                                              

Positions:
   0 Hg     0.000000    0.000000   10.000000    ( 0.0000,  0.0000,  0.0000)
   1 Hg     3.603292    2.080362   12.942076    ( 0.0000,  0.0000,  0.0000)
   2 Hg     1.827546    1.028238   15.950635    ( 0.0000,  0.0000,  0.0000)
   3 Hg     5.404939    3.097312   18.979236    ( 0.0000,  0.0000,  0.0000)
   4 Hg     1.801646    3.120543   10.000000    ( 0.0000,  0.0000,  0.0000)
   5 Hg     5.404939    5.200905   12.942076    ( 0.0000,  0.0000,  0.0000)
   6 Hg     3.628377    4.146764   15.896461    ( 0.0000,  0.0000,  0.0000)
   7 Hg     7.219538    6.269348   18.950734    ( 0.0000,  0.0000,  0.0000)
   8 Hg     3.603292    6.241086   10.000000    ( 0.0000,  0.0000,  0.0000)
   9 Hg     7.206585    8.321447   12.942076    ( 0.0000,  0.0000,  0.0000)
  10 Hg     5.404939    7.279420   15.931237    ( 0.0000,  0.0000,  0.0000)
  11 Hg     8.883508    9.417733   19.047990    ( 0.0000,  0.0000,  0.0000)
  12 Hg     3.603292    0.000000   10.000000    ( 0.0000,  0.0000,  0.0000)
  13 Hg     7.206585    2.080362   12.942076    ( 0.0000,  0.0000,  0.0000)
  14 Hg     5.404939    1.043742   15.928460    ( 0.0000,  0.0000,  0.0000)
  15 Hg     8.963139    3.131876   18.941527    ( 0.0000,  0.0000,  0.0000)
  16 Hg     5.404939    3.120543   10.000000    ( 0.0000,  0.0000,  0.0000)
  17 Hg     9.008231    5.200905   12.942076    ( 0.0000,  0.0000,  0.0000)
  18 Hg     7.181501    4.146764   15.896461    ( 0.0000,  0.0000,  0.0000)
  19 Hg    10.809877    6.096073   19.050865    ( 0.0000,  0.0000,  0.0000)
  20 Hg     7.206585    6.241086   10.000000    ( 0.0000,  0.0000,  0.0000)
  21 Hg    10.809877    8.321447   12.942076    ( 0.0000,  0.0000,  0.0000)
  22 Hg     9.027471    7.295941   15.961300    ( 0.0000,  0.0000,  0.0000)
  23 Hg    12.736247    9.417733   19.047990    ( 0.0000,  0.0000,  0.0000)
  24 Hg     7.206585    0.000000   10.000000    ( 0.0000,  0.0000,  0.0000)
  25 Hg    10.809877    2.080362   12.942076    ( 0.0000,  0.0000,  0.0000)
  26 Hg     8.982331    1.028238   15.950635    ( 0.0000,  0.0000,  0.0000)
  27 Hg    12.656616    3.131876   18.941527    ( 0.0000,  0.0000,  0.0000)
  28 Hg     9.008231    3.120543   10.000000    ( 0.0000,  0.0000,  0.0000)
  29 Hg    12.611524    5.200905   12.942076    ( 0.0000,  0.0000,  0.0000)
  30 Hg    10.809877    4.182696   15.947169    ( 0.0000,  0.0000,  0.0000)
  31 Hg    14.400217    6.269348   18.950734    ( 0.0000,  0.0000,  0.0000)
  32 Hg    10.809877    6.241086   10.000000    ( 0.0000,  0.0000,  0.0000)
  33 Hg    14.413170    8.321447   12.942076    ( 0.0000,  0.0000,  0.0000)
  34 Hg    12.592284    7.295941   15.961300    ( 0.0000,  0.0000,  0.0000)
  35 Hg    16.214816    9.302673   18.913434    ( 0.0000,  0.0000,  0.0000)
  36 O     10.809877    8.403688   19.369838    ( 0.0000,  0.0000,  0.0000)

Unit cell:
           periodic     x           y           z      points  spacing
  1. axis:    yes   10.809877    0.000000    0.000000    52     0.1800
  2. axis:    yes    5.404939    9.361628    0.000000    52     0.1800
  3. axis:    no     0.000000    0.000000   28.826228   160     0.1802

  Lengths:  10.809877  10.809877  28.826228
  Angles:   90.000000  90.000000  60.000000

Effective grid spacing dv^(1/3) = 0.1889

     iter     time        total  log10-change:
                         energy  eigst   dens
iter:   1 22:28:30 -12238.255335  -1.01
iter:   2 22:29:33 -12238.147743  -1.90  -2.54
iter:   3 22:30:36 -12238.095590c -2.53  -2.75
iter:   4 22:31:39 -12238.082852c -3.05  -2.98
iter:   5 22:32:42 -12238.082107c -3.38  -3.06
iter:   6 22:33:44 -12238.081609c -4.02  -3.23
iter:   7 22:34:47 -12238.082192c -4.20  -3.37
iter:   8 22:35:50 -12238.082302c -4.69  -3.58
iter:   9 22:36:52 -12238.082018c -5.11  -3.87
iter:  10 22:37:55 -12238.082000c -5.54  -3.85
iter:  11 22:38:58 -12238.082092c -5.50  -3.89
iter:  12 22:40:01 -12238.082013c -5.84  -4.14c
iter:  13 22:41:04 -12238.082025c -6.02  -4.21c
iter:  14 22:42:06 -12238.082075c -6.30  -4.45c
iter:  15 22:43:09 -12238.082107c -6.64  -4.50c
iter:  16 22:44:12 -12238.082112c -7.15  -4.82c
iter:  17 22:45:14 -12238.082091c -7.43c -4.89c

Converged after 17 iterations.

Dipole moment: (-23.831578, -14.615471, -0.114269) |e|*Ang

Energy contributions relative to reference atoms: (reference = -19195648.886490)

Kinetic:       +2038.125014
Potential:     -1819.867424
External:        +0.000000
XC:            -12369.307380
Entropy (-ST):   -0.182137
Local:          -86.941233
--------------------------
Free energy:   -12238.173160
Extrapolated:  -12238.082091

Showing only first 2 kpts
 Kpt  Band  Eigenvalues  Occupancy
  0   325     -5.12863    1.98144
  0   326     -4.91706    1.85583
  0   327     -4.51646    0.37974
  0   328     -4.05994    0.00487

  1   325     -5.21524    1.99215
  1   326     -4.72219    1.29426
  1   327     -4.54870    0.48888
  1   328     -4.04903    0.00436


Fermi level: -4.66155

Gap: 0.128 eV
Transition (v -> c):
  (s=0, k=2, n=326, [0.12, 0.12, 0.00]) -> (s=0, k=1, n=327, [0.12, -0.12, 0.00])

Forces in eV/Ang:
  0 Hg   -0.00000    0.00085   -0.08816
  1 Hg   -0.01736   -0.01857    0.03170
  2 Hg    0.00378    0.02352   -0.01024
  3 Hg   -0.00000    0.00238    0.02908
  4 Hg   -0.01263   -0.02252   -0.08700
  5 Hg   -0.00000    0.02354    0.02436
  6 Hg   -0.02073    0.02328   -0.01279
  7 Hg    0.01645   -0.02394    0.05837
  8 Hg    0.01150    0.02238   -0.08406
  9 Hg    0.00984   -0.00089    0.04174
 10 Hg    0.00000   -0.04376    0.00129
 11 Hg   -0.47547    0.22967    0.01002
 12 Hg   -0.02413    0.00022   -0.08792
 13 Hg    0.01736   -0.01857    0.03170
 14 Hg    0.00000   -0.05250    0.04398
 15 Hg   -0.06408    0.02793    0.05188
 16 Hg    0.00000   -0.00218   -0.08137
 17 Hg    0.01519    0.01109    0.05971
 18 Hg    0.02073    0.02328   -0.01279
 19 Hg    0.00000   -0.27480    0.05402
 20 Hg   -0.01150    0.02238   -0.08406
 21 Hg    0.00000   -0.01166    0.04581
 22 Hg    0.00611    0.03231    0.02773
 23 Hg    0.47547    0.22967    0.01002
 24 Hg    0.02413    0.00022   -0.08792
 25 Hg   -0.00000    0.00388    0.06669
 26 Hg   -0.00378    0.02352   -0.01024
 27 Hg    0.06408    0.02793    0.05188
 28 Hg    0.01263   -0.02252   -0.08700
 29 Hg   -0.01519    0.01109    0.05971
 30 Hg    0.00000   -0.04575    0.01194
 31 Hg   -0.01645   -0.02394    0.05837
 32 Hg   -0.00000    0.00112   -0.08580
 33 Hg   -0.00984   -0.00089    0.04174
 34 Hg   -0.00611    0.03231    0.02773
 35 Hg    0.00000   -0.04344    0.06923
 36 O     0.00000   -0.12194   -0.03373

BFGS:    4 22:45:32   -12238.082091        0.5281
System changes: positions 

Initializing position-dependent things.

Density initialized from wave functions
                                                              
                                                              
                                                              
                                                              
                                   Hg  O    Hg       Hg       
                                                              
                             Hg      Hg       Hg              
                                                              
                      Hg       Hg       Hg                    
                         Hg       Hg       Hg                 
                                                              
                   Hg      Hg       Hg                        
                              Hg       Hg       Hg            
            Hg       Hg       Hg                              
                        Hg       Hg      Hg                   
                                                              
                 Hg       Hg       Hg                         
                    Hg       Hg       Hg                      
                                                              
             Hg       Hg       Hg                             
       Hg       Hg       Hg                                   
                                                              
                                                              
                                                              
                                                              

Positions:
   0 Hg     0.000000    0.000000   10.000000    ( 0.0000,  0.0000,  0.0000)
   1 Hg     3.603292    2.080362   12.942076    ( 0.0000,  0.0000,  0.0000)
   2 Hg     1.833525    1.023373   15.971432    ( 0.0000,  0.0000,  0.0000)
   3 Hg     5.404939    3.089900   18.995841    ( 0.0000,  0.0000,  0.0000)
   4 Hg     1.801646    3.120543   10.000000    ( 0.0000,  0.0000,  0.0000)
   5 Hg     5.404939    5.200905   12.942076    ( 0.0000,  0.0000,  0.0000)
   6 Hg     3.631792    4.145166   15.906049    ( 0.0000,  0.0000,  0.0000)
   7 Hg     7.228936    6.269477   18.955641    ( 0.0000,  0.0000,  0.0000)
   8 Hg     3.603292    6.241086   10.000000    ( 0.0000,  0.0000,  0.0000)
   9 Hg     7.206585    8.321447   12.942076    ( 0.0000,  0.0000,  0.0000)
  10 Hg     5.404939    7.280873   15.945969    ( 0.0000,  0.0000,  0.0000)
  11 Hg     8.845518    9.439413   19.084217    ( 0.0000,  0.0000,  0.0000)
  12 Hg     3.603292    0.000000   10.000000    ( 0.0000,  0.0000,  0.0000)
  13 Hg     7.206585    2.080362   12.942076    ( 0.0000,  0.0000,  0.0000)
  14 Hg     5.404939    1.039085   15.949246    ( 0.0000,  0.0000,  0.0000)
  15 Hg     8.942425    3.144615   18.943219    ( 0.0000,  0.0000,  0.0000)
  16 Hg     5.404939    3.120543   10.000000    ( 0.0000,  0.0000,  0.0000)
  17 Hg     9.008231    5.200905   12.942076    ( 0.0000,  0.0000,  0.0000)
  18 Hg     7.178085    4.145166   15.906049    ( 0.0000,  0.0000,  0.0000)
  19 Hg    10.809877    6.044966   19.091832    ( 0.0000,  0.0000,  0.0000)
  20 Hg     7.206585    6.241086   10.000000    ( 0.0000,  0.0000,  0.0000)
  21 Hg    10.809877    8.321447   12.942076    ( 0.0000,  0.0000,  0.0000)
  22 Hg     9.038307    7.298599   15.988569    ( 0.0000,  0.0000,  0.0000)
  23 Hg    12.774236    9.439413   19.084217    ( 0.0000,  0.0000,  0.0000)
  24 Hg     7.206585    0.000000   10.000000    ( 0.0000,  0.0000,  0.0000)
  25 Hg    10.809877    2.080362   12.942076    ( 0.0000,  0.0000,  0.0000)
  26 Hg     8.976352    1.023373   15.971432    ( 0.0000,  0.0000,  0.0000)
  27 Hg    12.677330    3.144615   18.943219    ( 0.0000,  0.0000,  0.0000)
  28 Hg     9.008231    3.120543   10.000000    ( 0.0000,  0.0000,  0.0000)
  29 Hg    12.611524    5.200905   12.942076    ( 0.0000,  0.0000,  0.0000)
  30 Hg    10.809877    4.194303   15.969785    ( 0.0000,  0.0000,  0.0000)
  31 Hg    14.390818    6.269477   18.955641    ( 0.0000,  0.0000,  0.0000)
  32 Hg    10.809877    6.241086   10.000000    ( 0.0000,  0.0000,  0.0000)
  33 Hg    14.413170    8.321447   12.942076    ( 0.0000,  0.0000,  0.0000)
  34 Hg    12.581447    7.298599   15.988569    ( 0.0000,  0.0000,  0.0000)
  35 Hg    16.214816    9.282519   18.905739    ( 0.0000,  0.0000,  0.0000)
  36 O     10.809877    8.425826   19.171067    ( 0.0000,  0.0000,  0.0000)

Unit cell:
           periodic     x           y           z      points  spacing
  1. axis:    yes   10.809877    0.000000    0.000000    52     0.1800
  2. axis:    yes    5.404939    9.361628    0.000000    52     0.1800
  3. axis:    no     0.000000    0.000000   28.826228   160     0.1802

  Lengths:  10.809877  10.809877  28.826228
  Angles:   90.000000  90.000000  60.000000

Effective grid spacing dv^(1/3) = 0.1889

     iter     time        total  log10-change:
                         energy  eigst   dens
iter:   1 22:47:24 -12238.207248  -1.01
iter:   2 22:48:27 -12238.197945  -1.88  -2.64
iter:   3 22:49:30 -12238.161928c -2.53  -2.77
iter:   4 22:50:33 -12238.150191c -3.10  -2.99
iter:   5 22:51:36 -12238.150611c -3.44  -3.16
iter:   6 22:52:39 -12238.150665c -3.95  -3.22
iter:   7 22:53:42 -12238.152415c -4.33  -3.52
iter:   8 22:54:44 -12238.152358c -4.56  -3.51
iter:   9 22:55:47 -12238.151610c -4.76  -3.73
iter:  10 22:56:50 -12238.151621c -5.36  -3.76
iter:  11 22:57:53 -12238.151650c -5.64  -3.83
iter:  12 22:58:55 -12238.151564c -5.64  -3.97
iter:  13 22:59:58 -12238.151562c -5.97  -4.22c
iter:  14 23:01:01 -12238.151548c -6.35  -4.37c
iter:  15 23:02:04 -12238.151495c -6.52  -4.45c
iter:  16 23:03:06 -12238.151520c -6.86  -4.62c
iter:  17 23:04:09 -12238.151551c -7.16  -4.83c
iter:  18 23:05:12 -12238.151533c -7.43c -5.03c

Converged after 18 iterations.

Dipole moment: (-25.150563, -15.725405, -0.047019) |e|*Ang

Energy contributions relative to reference atoms: (reference = -19195648.886490)

Kinetic:       +2036.676636
Potential:     -1818.708798
External:        +0.000000
XC:            -12369.098804
Entropy (-ST):   -0.161769
Local:          -86.939683
--------------------------
Free energy:   -12238.232417
Extrapolated:  -12238.151533

Showing only first 2 kpts
 Kpt  Band  Eigenvalues  Occupancy
  0   325     -5.10992    1.98217
  0   326     -4.92497    1.89183
  0   327     -4.46815    0.30721
  0   328     -4.02171    0.00417

  1   325     -5.19511    1.99235
  1   326     -4.72063    1.38771
  1   327     -4.52443    0.48323
  1   328     -4.01405    0.00386


Fermi level: -4.63881

Gap: 0.153 eV
Transition (v -> c):
  (s=0, k=2, n=326, [0.12, 0.12, 0.00]) -> (s=0, k=1, n=327, [0.12, -0.12, 0.00])

Forces in eV/Ang:
  0 Hg   -0.00000    0.00049   -0.08538
  1 Hg   -0.01772   -0.02036    0.03332
  2 Hg   -0.00897    0.01715   -0.03379
  3 Hg    0.00000   -0.00169    0.02302
  4 Hg   -0.01225   -0.02240   -0.08385
  5 Hg   -0.00000    0.02466    0.02452
  6 Hg   -0.02883    0.02999    0.00101
  7 Hg    0.01505   -0.02100    0.05329
  8 Hg    0.01211    0.02198   -0.08093
  9 Hg    0.01221   -0.00158    0.04472
 10 Hg    0.00000   -0.05735   -0.01179
 11 Hg   -0.34841    0.15330   -0.02639
 12 Hg   -0.02392    0.00018   -0.08505
 13 Hg    0.01772   -0.02036    0.03332
 14 Hg    0.00000   -0.05319    0.01190
 15 Hg   -0.07161    0.00906    0.05358
 16 Hg    0.00000   -0.00155   -0.07819
 17 Hg    0.01650    0.01244    0.06342
 18 Hg    0.02883    0.02999    0.00101
 19 Hg    0.00000   -0.08612    0.00163
 20 Hg   -0.01211    0.02198   -0.08093
 21 Hg    0.00000   -0.01216    0.05457
 22 Hg    0.00903    0.01760    0.01210
 23 Hg    0.34841    0.15330   -0.02639
 24 Hg    0.02392    0.00018   -0.08505
 25 Hg   -0.00000    0.00517    0.06731
 26 Hg    0.00897    0.01715   -0.03379
 27 Hg    0.07161    0.00906    0.05358
 28 Hg    0.01225   -0.02240   -0.08385
 29 Hg   -0.01650    0.01244    0.06342
 30 Hg    0.00000   -0.03036    0.02270
 31 Hg   -0.01505   -0.02100    0.05329
 32 Hg   -0.00000    0.00136   -0.08201
 33 Hg   -0.01221   -0.00158    0.04472
 34 Hg   -0.00903    0.01760    0.01210
 35 Hg    0.00000   -0.05374    0.07428
 36 O     0.00000   -0.11542    0.01918

BFGS:    5 23:05:30   -12238.151533        0.3816
System changes: positions 

Initializing position-dependent things.

Density initialized from wave functions
                                                              
                                                              
                                                              
                                                              
                                   Hg  O    Hg       Hg       
                                                              
                             Hg      Hg       Hg              
                                                              
                      Hg       Hg       Hg                    
                         Hg       Hg       Hg                 
                                                              
                   Hg      Hg       Hg                        
            Hg       Hg       Hg       Hg       Hg            
                                                              
                        Hg       Hg      Hg                   
                                                              
                 Hg       Hg       Hg                         
                    Hg       Hg       Hg                      
                                                              
             Hg       Hg       Hg                             
       Hg       Hg       Hg                                   
                                                              
                                                              
                                                              
                                                              

Positions:
   0 Hg     0.000000    0.000000   10.000000    ( 0.0000,  0.0000,  0.0000)
   1 Hg     3.603292    2.080362   12.942076    ( 0.0000,  0.0000,  0.0000)
   2 Hg     1.838157    1.019505   15.987943    ( 0.0000,  0.0000,  0.0000)
   3 Hg     5.404939    3.083753   19.009911    ( 0.0000,  0.0000,  0.0000)
   4 Hg     1.801646    3.120543   10.000000    ( 0.0000,  0.0000,  0.0000)
   5 Hg     5.404939    5.200905   12.942076    ( 0.0000,  0.0000,  0.0000)
   6 Hg     3.634129    4.144341   15.914207    ( 0.0000,  0.0000,  0.0000)
   7 Hg     7.236883    6.269296   18.960418    ( 0.0000,  0.0000,  0.0000)
   8 Hg     3.603292    6.241086   10.000000    ( 0.0000,  0.0000,  0.0000)
   9 Hg     7.206585    8.321447   12.942076    ( 0.0000,  0.0000,  0.0000)
  10 Hg     5.404939    7.281126   15.957890    ( 0.0000,  0.0000,  0.0000)
  11 Hg     8.810894    9.458513   19.113639    ( 0.0000,  0.0000,  0.0000)
  12 Hg     3.603292    0.000000   10.000000    ( 0.0000,  0.0000,  0.0000)
  13 Hg     7.206585    2.080362   12.942076    ( 0.0000,  0.0000,  0.0000)
  14 Hg     5.404939    1.034534   15.966190    ( 0.0000,  0.0000,  0.0000)
  15 Hg     8.924161    3.155097   18.945400    ( 0.0000,  0.0000,  0.0000)
  16 Hg     5.404939    3.120543   10.000000    ( 0.0000,  0.0000,  0.0000)
  17 Hg     9.008231    5.200905   12.942076    ( 0.0000,  0.0000,  0.0000)
  18 Hg     7.175748    4.144341   15.914207    ( 0.0000,  0.0000,  0.0000)
  19 Hg    10.809877    6.003779   19.125335    ( 0.0000,  0.0000,  0.0000)
  20 Hg     7.206585    6.241086   10.000000    ( 0.0000,  0.0000,  0.0000)
  21 Hg    10.809877    8.321447   12.942076    ( 0.0000,  0.0000,  0.0000)
  22 Hg     9.047424    7.300827   16.011123    ( 0.0000,  0.0000,  0.0000)
  23 Hg    12.808860    9.458513   19.113639    ( 0.0000,  0.0000,  0.0000)
  24 Hg     7.206585    0.000000   10.000000    ( 0.0000,  0.0000,  0.0000)
  25 Hg    10.809877    2.080362   12.942076    ( 0.0000,  0.0000,  0.0000)
  26 Hg     8.971721    1.019505   15.987943    ( 0.0000,  0.0000,  0.0000)
  27 Hg    12.695594    3.155097   18.945400    ( 0.0000,  0.0000,  0.0000)
  28 Hg     9.008231    3.120543   10.000000    ( 0.0000,  0.0000,  0.0000)
  29 Hg    12.611524    5.200905   12.942076    ( 0.0000,  0.0000,  0.0000)
  30 Hg    10.809877    4.203692   15.989053    ( 0.0000,  0.0000,  0.0000)
  31 Hg    14.382871    6.269296   18.960418    ( 0.0000,  0.0000,  0.0000)
  32 Hg    10.809877    6.241086   10.000000    ( 0.0000,  0.0000,  0.0000)
  33 Hg    14.413170    8.321447   12.942076    ( 0.0000,  0.0000,  0.0000)
  34 Hg    12.572331    7.300827   16.011123    ( 0.0000,  0.0000,  0.0000)
  35 Hg    16.214816    9.264892   18.900438    ( 0.0000,  0.0000,  0.0000)
  36 O     10.809877    8.442798   19.006873    ( 0.0000,  0.0000,  0.0000)

Unit cell:
           periodic     x           y           z      points  spacing
  1. axis:    yes   10.809877    0.000000    0.000000    52     0.1800
  2. axis:    yes    5.404939    9.361628    0.000000    52     0.1800
  3. axis:    no     0.000000    0.000000   28.826228   160     0.1802

  Lengths:  10.809877  10.809877  28.826228
  Angles:   90.000000  90.000000  60.000000

Effective grid spacing dv^(1/3) = 0.1889

     iter     time        total  log10-change:
                         energy  eigst   dens
iter:   1 23:07:22 -12238.175089  -1.11
iter:   2 23:08:25 -12238.191987  -2.01  -2.79
iter:   3 23:09:28 -12238.178199c -2.69  -2.87
iter:   4 23:10:30 -12238.167909c -3.28  -3.02
iter:   5 23:11:33 -12238.166998c -3.77  -3.22
iter:   6 23:12:36 -12238.164730c -4.11  -3.29
iter:   7 23:13:39 -12238.165102c -4.16  -3.46
iter:   8 23:14:41 -12238.164422c -4.70  -3.61
iter:   9 23:15:44 -12238.164611c -5.17  -3.81
iter:  10 23:16:47 -12238.164737c -5.70  -3.80
iter:  11 23:17:50 -12238.164480c -5.41  -3.97
iter:  12 23:18:52 -12238.164451c -5.96  -4.22c
iter:  13 23:19:55 -12238.164349c -6.41  -4.31c
iter:  14 23:20:58 -12238.164317c -6.73  -4.49c
iter:  15 23:22:01 -12238.164411c -6.63  -4.56c
iter:  16 23:23:03 -12238.164409c -7.18  -4.79c
iter:  17 23:24:06 -12238.164377c -7.35  -4.83c
iter:  18 23:25:09 -12238.164394c -7.82c -5.00c

Converged after 18 iterations.

Dipole moment: (-26.313875, -16.625176, -0.002126) |e|*Ang

Energy contributions relative to reference atoms: (reference = -19195648.886490)

Kinetic:       +2034.936339
Potential:     -1817.278613
External:        +0.000000
XC:            -12368.802399
Entropy (-ST):   -0.155164
Local:          -86.942139
--------------------------
Free energy:   -12238.241976
Extrapolated:  -12238.164394

Showing only first 2 kpts
 Kpt  Band  Eigenvalues  Occupancy
  0   325     -5.09192    1.97816
  0   326     -4.94434    1.90784
  0   327     -4.45560    0.27006
  0   328     -4.00266    0.00336

  1   325     -5.16198    1.98910
  1   326     -4.73586    1.44038
  1   327     -4.53089    0.49788
  1   328     -3.99139    0.00300


Fermi level: -4.64132

Gap: 0.164 eV
Transition (v -> c):
  (s=0, k=2, n=326, [0.12, 0.12, 0.00]) -> (s=0, k=1, n=327, [0.12, -0.12, 0.00])

Forces in eV/Ang:
  0 Hg   -0.00000    0.00044   -0.08284
  1 Hg   -0.01904   -0.02085    0.04259
  2 Hg   -0.02274    0.00856   -0.04485
  3 Hg   -0.00000    0.00561    0.04607
  4 Hg   -0.01227   -0.02262   -0.08152
  5 Hg   -0.00000    0.02564    0.03530
  6 Hg   -0.02737    0.03326    0.01768
  7 Hg    0.00334   -0.01632    0.05591
  8 Hg    0.01185    0.02237   -0.07918
  9 Hg    0.01179   -0.00137    0.05544
 10 Hg    0.00000   -0.05685   -0.02158
 11 Hg   -0.17094    0.03355   -0.04929
 12 Hg   -0.02324   -0.00024   -0.08368
 13 Hg    0.01904   -0.02085    0.04259
 14 Hg    0.00000   -0.05278   -0.00953
 15 Hg   -0.07983   -0.00427    0.06825
 16 Hg    0.00000   -0.00204   -0.07662
 17 Hg    0.01672    0.01193    0.07415
 18 Hg    0.02737    0.03326    0.01768
 19 Hg   -0.00000    0.07136   -0.02034
 20 Hg   -0.01185    0.02237   -0.07918
 21 Hg    0.00000   -0.01194    0.06529
 22 Hg    0.01114    0.00587   -0.01115
 23 Hg    0.17094    0.03355   -0.04929
 24 Hg    0.02324   -0.00024   -0.08368
 25 Hg   -0.00000    0.00530    0.07860
 26 Hg    0.02274    0.00856   -0.04485
 27 Hg    0.07983   -0.00427    0.06825
 28 Hg    0.01227   -0.02262   -0.08152
 29 Hg   -0.01672    0.01193    0.07415
 30 Hg    0.00000   -0.03864   -0.00818
 31 Hg   -0.00334   -0.01632    0.05591
 32 Hg   -0.00000    0.00239   -0.07991
 33 Hg   -0.01179   -0.00137    0.05544
 34 Hg   -0.01114    0.00587   -0.01115
 35 Hg    0.00000   -0.03996    0.10159
 36 O     0.00000   -0.03111    0.14448

BFGS:    6 23:25:27   -12238.164394        0.1810
System changes: positions 

Initializing position-dependent things.

Density initialized from wave functions
                                                              
                                                              
                                                              
                                                              
                                   Hg  O    Hg       Hg       
                                                              
                             Hg      Hg       Hg              
                                                              
                      Hg       Hg       Hg                    
                         Hg       Hg       Hg                 
                                                              
                   Hg      Hg       Hg                        
            Hg       Hg       Hg       Hg       Hg            
                                                              
                        Hg       Hg      Hg                   
                                                              
                 Hg       Hg       Hg                         
                    Hg       Hg       Hg                      
                                                              
             Hg       Hg       Hg                             
       Hg       Hg       Hg                                   
                                                              
                                                              
                                                              
                                                              

Positions:
   0 Hg     0.000000    0.000000   10.000000    ( 0.0000,  0.0000,  0.0000)
   1 Hg     3.603292    2.080362   12.942076    ( 0.0000,  0.0000,  0.0000)
   2 Hg     1.836157    1.021091   15.981364    ( 0.0000,  0.0000,  0.0000)
   3 Hg     5.404939    3.086093   19.005466    ( 0.0000,  0.0000,  0.0000)
   4 Hg     1.801646    3.120543   10.000000    ( 0.0000,  0.0000,  0.0000)
   5 Hg     5.404939    5.200905   12.942076    ( 0.0000,  0.0000,  0.0000)
   6 Hg     3.632853    4.145141   15.911471    ( 0.0000,  0.0000,  0.0000)
   7 Hg     7.234093    6.269046   18.959577    ( 0.0000,  0.0000,  0.0000)
   8 Hg     3.603292    6.241086   10.000000    ( 0.0000,  0.0000,  0.0000)
   9 Hg     7.206585    8.321447   12.942076    ( 0.0000,  0.0000,  0.0000)
  10 Hg     5.404939    7.280153   15.953335    ( 0.0000,  0.0000,  0.0000)
  11 Hg     8.819920    9.452736   19.102585    ( 0.0000,  0.0000,  0.0000)
  12 Hg     3.603292    0.000000   10.000000    ( 0.0000,  0.0000,  0.0000)
  13 Hg     7.206585    2.080362   12.942076    ( 0.0000,  0.0000,  0.0000)
  14 Hg     5.404939    1.035419   15.959966    ( 0.0000,  0.0000,  0.0000)
  15 Hg     8.929562    3.151343   18.945598    ( 0.0000,  0.0000,  0.0000)
  16 Hg     5.404939    3.120543   10.000000    ( 0.0000,  0.0000,  0.0000)
  17 Hg     9.008231    5.200905   12.942076    ( 0.0000,  0.0000,  0.0000)
  18 Hg     7.177025    4.145141   15.911471    ( 0.0000,  0.0000,  0.0000)
  19 Hg    10.809877    6.019001   19.113197    ( 0.0000,  0.0000,  0.0000)
  20 Hg     7.206585    6.241086   10.000000    ( 0.0000,  0.0000,  0.0000)
  21 Hg    10.809877    8.321447   12.942076    ( 0.0000,  0.0000,  0.0000)
  22 Hg     9.044261    7.300134   16.002901    ( 0.0000,  0.0000,  0.0000)
  23 Hg    12.799835    9.452736   19.102585    ( 0.0000,  0.0000,  0.0000)
  24 Hg     7.206585    0.000000   10.000000    ( 0.0000,  0.0000,  0.0000)
  25 Hg    10.809877    2.080362   12.942076    ( 0.0000,  0.0000,  0.0000)
  26 Hg     8.973721    1.021091   15.981364    ( 0.0000,  0.0000,  0.0000)
  27 Hg    12.690192    3.151343   18.945598    ( 0.0000,  0.0000,  0.0000)
  28 Hg     9.008231    3.120543   10.000000    ( 0.0000,  0.0000,  0.0000)
  29 Hg    12.611524    5.200905   12.942076    ( 0.0000,  0.0000,  0.0000)
  30 Hg    10.809877    4.199757   15.982237    ( 0.0000,  0.0000,  0.0000)
  31 Hg    14.385662    6.269046   18.959577    ( 0.0000,  0.0000,  0.0000)
  32 Hg    10.809877    6.241086   10.000000    ( 0.0000,  0.0000,  0.0000)
  33 Hg    14.413170    8.321447   12.942076    ( 0.0000,  0.0000,  0.0000)
  34 Hg    12.575494    7.300134   16.002901    ( 0.0000,  0.0000,  0.0000)
  35 Hg    16.214816    9.270501   18.903754    ( 0.0000,  0.0000,  0.0000)
  36 O     10.809877    8.435834   19.067349    ( 0.0000,  0.0000,  0.0000)

Unit cell:
           periodic     x           y           z      points  spacing
  1. axis:    yes   10.809877    0.000000    0.000000    52     0.1800
  2. axis:    yes    5.404939    9.361628    0.000000    52     0.1800
  3. axis:    no     0.000000    0.000000   28.826228   160     0.1802

  Lengths:  10.809877  10.809877  28.826228
  Angles:   90.000000  90.000000  60.000000

Effective grid spacing dv^(1/3) = 0.1889

     iter     time        total  log10-change:
                         energy  eigst   dens
iter:   1 23:27:19 -12238.169844  -1.99
iter:   2 23:28:22 -12238.172077  -2.92  -3.20
iter:   3 23:29:25 -12238.170050c -3.58  -3.29
iter:   4 23:30:27 -12238.169149c -4.25  -3.51
iter:   5 23:31:30 -12238.168620c -4.59  -3.66
iter:   6 23:32:33 -12238.169033c -4.82  -3.71
iter:   7 23:33:36 -12238.169184c -5.37  -3.91
iter:   8 23:34:39 -12238.169132c -5.51  -4.15c
iter:   9 23:35:41 -12238.169114c -6.13  -4.12c
iter:  10 23:36:44 -12238.169161c -6.50  -4.27c
iter:  11 23:37:47 -12238.169160c -6.53  -4.34c
iter:  12 23:38:50 -12238.169111c -6.79  -4.43c
iter:  13 23:39:52 -12238.169159c -6.79  -4.62c
iter:  14 23:40:55 -12238.169173c -7.33  -4.80c
iter:  15 23:41:58 -12238.169184c -7.82c -4.84c

Converged after 15 iterations.

Dipole moment: (-26.038470, -16.383625, -0.018284) |e|*Ang

Energy contributions relative to reference atoms: (reference = -19195648.886490)

Kinetic:       +2035.427451
Potential:     -1817.676140
External:        +0.000000
XC:            -12368.895564
Entropy (-ST):   -0.156110
Local:          -86.946876
--------------------------
Free energy:   -12238.247239
Extrapolated:  -12238.169184

Showing only first 2 kpts
 Kpt  Band  Eigenvalues  Occupancy
  0   325     -5.09923    1.98009
  0   326     -4.93925    1.90514
  0   327     -4.45655    0.27717
  0   328     -4.00889    0.00365

  1   325     -5.17643    1.99075
  1   326     -4.73029    1.42612
  1   327     -4.52717    0.49169
  1   328     -3.99979    0.00334


Fermi level: -4.63926

Gap: 0.160 eV
Transition (v -> c):
  (s=0, k=2, n=326, [0.12, 0.12, 0.00]) -> (s=0, k=1, n=327, [0.12, -0.12, 0.00])

Forces in eV/Ang:
  0 Hg   -0.00000    0.00036   -0.08525
  1 Hg   -0.01861   -0.02120    0.03760
  2 Hg   -0.01424    0.00903   -0.03347
  3 Hg   -0.00000    0.00007    0.03391
  4 Hg   -0.01214   -0.02251   -0.08391
  5 Hg   -0.00000    0.02499    0.02819
  6 Hg   -0.02947    0.03137    0.01699
  7 Hg    0.00626   -0.01816    0.05054
  8 Hg    0.01179    0.02230   -0.08144
  9 Hg    0.01242   -0.00086    0.04999
 10 Hg    0.00000   -0.05573   -0.01441
 11 Hg   -0.22603    0.06630   -0.02218
 12 Hg   -0.02325   -0.00018   -0.08579
 13 Hg    0.01861   -0.02120    0.03760
 14 Hg    0.00000   -0.05090   -0.00315
 15 Hg   -0.07737    0.00060    0.05396
 16 Hg    0.00000   -0.00207   -0.07853
 17 Hg    0.01703    0.01213    0.06835
 18 Hg    0.02947    0.03137    0.01699
 19 Hg   -0.00000    0.03294    0.00619
 20 Hg   -0.01179    0.02230   -0.08144
 21 Hg    0.00000   -0.01171    0.06240
 22 Hg    0.00960    0.01040   -0.00112
 23 Hg    0.22603    0.06630   -0.02218
 24 Hg    0.02325   -0.00018   -0.08579
 25 Hg   -0.00000    0.00520    0.07266
 26 Hg    0.01424    0.00903   -0.03347
 27 Hg    0.07737    0.00060    0.05396
 28 Hg    0.01214   -0.02251   -0.08391
 29 Hg   -0.01703    0.01213    0.06835
 30 Hg    0.00000   -0.03214    0.00454
 31 Hg   -0.00626   -0.01816    0.05054
 32 Hg   -0.00000    0.00227   -0.08244
 33 Hg   -0.01242   -0.00086    0.04999
 34 Hg   -0.00960    0.01040   -0.00112
 35 Hg    0.00000   -0.04357    0.08301
 36 O     0.00000   -0.08015    0.12043

BFGS:    7 23:42:16   -12238.169184        0.2366
System changes: positions 

Initializing position-dependent things.

Density initialized from wave functions
                                                              
                                                              
                                                              
                                                              
                                   Hg  O    Hg       Hg       
                                                              
                             Hg      Hg       Hg              
                                                              
                      Hg       Hg       Hg                    
                         Hg       Hg       Hg                 
                                                              
                   Hg      Hg       Hg                        
            Hg       Hg       Hg       Hg       Hg            
                                                              
                        Hg       Hg      Hg                   
                                                              
                 Hg       Hg       Hg                         
                    Hg       Hg       Hg                      
                                                              
             Hg       Hg       Hg                             
       Hg       Hg       Hg                                   
                                                              
                                                              
                                                              
                                                              

Positions:
   0 Hg     0.000000    0.000000   10.000000    ( 0.0000,  0.0000,  0.0000)
   1 Hg     3.603292    2.080362   12.942076    ( 0.0000,  0.0000,  0.0000)
   2 Hg     1.834011    1.022733   15.974781    ( 0.0000,  0.0000,  0.0000)
   3 Hg     5.404939    3.088277   19.002224    ( 0.0000,  0.0000,  0.0000)
   4 Hg     1.801646    3.120543   10.000000    ( 0.0000,  0.0000,  0.0000)
   5 Hg     5.404939    5.200905   12.942076    ( 0.0000,  0.0000,  0.0000)
   6 Hg     3.631050    4.146546   15.909411    ( 0.0000,  0.0000,  0.0000)
   7 Hg     7.231685    6.268364   18.959952    ( 0.0000,  0.0000,  0.0000)
   8 Hg     3.603292    6.241086   10.000000    ( 0.0000,  0.0000,  0.0000)
   9 Hg     7.206585    8.321447   12.942076    ( 0.0000,  0.0000,  0.0000)
  10 Hg     5.404939    7.278063   15.948993    ( 0.0000,  0.0000,  0.0000)
  11 Hg     8.823016    9.449082   19.092550    ( 0.0000,  0.0000,  0.0000)
  12 Hg     3.603292    0.000000   10.000000    ( 0.0000,  0.0000,  0.0000)
  13 Hg     7.206585    2.080362   12.942076    ( 0.0000,  0.0000,  0.0000)
  14 Hg     5.404939    1.035191   15.954226    ( 0.0000,  0.0000,  0.0000)
  15 Hg     8.932733    3.148035   18.946915    ( 0.0000,  0.0000,  0.0000)
  16 Hg     5.404939    3.120543   10.000000    ( 0.0000,  0.0000,  0.0000)
  17 Hg     9.008231    5.200905   12.942076    ( 0.0000,  0.0000,  0.0000)
  18 Hg     7.178828    4.146546   15.909411    ( 0.0000,  0.0000,  0.0000)
  19 Hg    10.809877    6.033361   19.102730    ( 0.0000,  0.0000,  0.0000)
  20 Hg     7.206585    6.241086   10.000000    ( 0.0000,  0.0000,  0.0000)
  21 Hg    10.809877    8.321447   12.942076    ( 0.0000,  0.0000,  0.0000)
  22 Hg     9.041576    7.299696   15.995480    ( 0.0000,  0.0000,  0.0000)
  23 Hg    12.796739    9.449082   19.092550    ( 0.0000,  0.0000,  0.0000)
  24 Hg     7.206585    0.000000   10.000000    ( 0.0000,  0.0000,  0.0000)
  25 Hg    10.809877    2.080362   12.942076    ( 0.0000,  0.0000,  0.0000)
  26 Hg     8.975866    1.022733   15.974781    ( 0.0000,  0.0000,  0.0000)
  27 Hg    12.687021    3.148035   18.946915    ( 0.0000,  0.0000,  0.0000)
  28 Hg     9.008231    3.120543   10.000000    ( 0.0000,  0.0000,  0.0000)
  29 Hg    12.611524    5.200905   12.942076    ( 0.0000,  0.0000,  0.0000)
  30 Hg    10.809877    4.195553   15.976401    ( 0.0000,  0.0000,  0.0000)
  31 Hg    14.388070    6.268364   18.959952    ( 0.0000,  0.0000,  0.0000)
  32 Hg    10.809877    6.241086   10.000000    ( 0.0000,  0.0000,  0.0000)
  33 Hg    14.413170    8.321447   12.942076    ( 0.0000,  0.0000,  0.0000)
  34 Hg    12.578179    7.299696   15.995480    ( 0.0000,  0.0000,  0.0000)
  35 Hg    16.214816    9.274487   18.908445    ( 0.0000,  0.0000,  0.0000)
  36 O     10.809877    8.427758   19.123737    ( 0.0000,  0.0000,  0.0000)

Unit cell:
           periodic     x           y           z      points  spacing
  1. axis:    yes   10.809877    0.000000    0.000000    52     0.1800
  2. axis:    yes    5.404939    9.361628    0.000000    52     0.1800
  3. axis:    no     0.000000    0.000000   28.826228   160     0.1802

  Lengths:  10.809877  10.809877  28.826228
  Angles:   90.000000  90.000000  60.000000

Effective grid spacing dv^(1/3) = 0.1889

     iter     time        total  log10-change:
                         energy  eigst   dens
iter:   1 23:44:08 -12238.172024  -2.08
iter:   2 23:45:11 -12238.173856  -3.04  -3.24
iter:   3 23:46:14 -12238.172802c -3.75  -3.32
iter:   4 23:47:17 -12238.171611c -4.27  -3.51
iter:   5 23:48:20 -12238.171398c -4.77  -3.75
iter:   6 23:49:23 -12238.171465c -5.18  -3.85
iter:   7 23:50:26 -12238.171978c -4.71  -3.92
iter:   8 23:51:28 -12238.171806c -5.54  -3.91
iter:   9 23:52:31 -12238.171836c -6.06  -4.27c
iter:  10 23:53:34 -12238.171846c -6.24  -4.28c
iter:  11 23:54:37 -12238.171840c -5.90  -4.37c
iter:  12 23:55:40 -12238.171787c -6.90  -4.53c
iter:  13 23:56:43 -12238.171766c -7.40c -4.77c

Converged after 13 iterations.

Dipole moment: (-25.979058, -16.262720, -0.035189) |e|*Ang

Energy contributions relative to reference atoms: (reference = -19195648.886490)

Kinetic:       +2035.595952
Potential:     -1817.812423
External:        +0.000000
XC:            -12368.929997
Entropy (-ST):   -0.157940
Local:          -86.946329
--------------------------
Free energy:   -12238.250736
Extrapolated:  -12238.171766

Showing only first 2 kpts
 Kpt  Band  Eigenvalues  Occupancy
  0   325     -5.10599    1.98132
  0   326     -4.93851    1.90417
  0   327     -4.45878    0.28175
  0   328     -4.01541    0.00389

  1   325     -5.18727    1.99167
  1   326     -4.72744    1.41302
  1   327     -4.52684    0.48923
  1   328     -4.00854    0.00363


Fermi level: -4.63959

Gap: 0.153 eV
Transition (v -> c):
  (s=0, k=2, n=326, [0.12, 0.12, 0.00]) -> (s=0, k=1, n=327, [0.12, -0.12, 0.00])

Forces in eV/Ang:
  0 Hg   -0.00000    0.00033   -0.08683
  1 Hg   -0.01768   -0.02141    0.03776
  2 Hg   -0.01142    0.01492   -0.03623
  3 Hg    0.00000   -0.00279    0.02989
  4 Hg   -0.01207   -0.02244   -0.08542
  5 Hg   -0.00000    0.02455    0.02765
[...]
  28 Hg     9.008231    3.120543   10.000000    ( 0.0000,  0.0000,  0.0000)
  29 Hg    12.611524    5.200905   12.942076    ( 0.0000,  0.0000,  0.0000)
  30 Hg    10.809877    4.146243   16.136549    ( 0.0000,  0.0000,  0.0000)
  31 Hg    14.342762    6.110759   19.289613    ( 0.0000,  0.0000,  0.0000)
  32 Hg    10.809877    6.241086   10.000000    ( 0.0000,  0.0000,  0.0000)
  33 Hg    14.413170    8.321447   12.942076    ( 0.0000,  0.0000,  0.0000)
  34 Hg    12.562975    7.295317   16.077397    ( 0.0000,  0.0000,  0.0000)
  35 Hg    16.214816    9.194936   19.229101    ( 0.0000,  0.0000,  0.0000)
  36 O     10.809877    8.969715   19.045736    ( 0.0000,  0.0000,  0.0000)

Unit cell:
           periodic     x           y           z      points  spacing
  1. axis:    yes   10.809877    0.000000    0.000000    52     0.1800
  2. axis:    yes    5.404939    9.361628    0.000000    52     0.1800
  3. axis:    no     0.000000    0.000000   28.826228   160     0.1802

  Lengths:  10.809877  10.809877  28.826228
  Angles:   90.000000  90.000000  60.000000

Effective grid spacing dv^(1/3) = 0.1889

     iter     time        total  log10-change:
                         energy  eigst   dens
iter:   1 10:19:06 -12238.354231  -1.72
iter:   2 10:20:09 -12238.356409  -2.56  -3.08
iter:   3 10:21:11 -12238.349925c -3.23  -3.16
iter:   4 10:22:13 -12238.347554c -3.85  -3.34
iter:   5 10:23:16 -12238.346831c -4.46  -3.51
iter:   6 10:24:18 -12238.347292c -4.83  -3.62
iter:   7 10:25:21 -12238.347176c -4.50  -3.75
iter:   8 10:26:23 -12238.347007c -5.52  -3.76
iter:   9 10:27:25 -12238.346927c -5.20  -3.95
iter:  10 10:28:28 -12238.346476c -5.56  -4.10c
iter:  11 10:29:30 -12238.346447c -6.48  -4.31c
iter:  12 10:30:32 -12238.346599c -6.01  -4.37c
iter:  13 10:31:35 -12238.346575c -6.27  -4.53c
iter:  14 10:32:37 -12238.346524c -6.75  -4.64c
iter:  15 10:33:39 -12238.346552c -7.59c -4.82c

Converged after 15 iterations.

Dipole moment: (-12.279819, 13.117971, -0.006665) |e|*Ang

Energy contributions relative to reference atoms: (reference = -19195648.886490)

Kinetic:       +2032.091841
Potential:     -1815.586939
External:        +0.000000
XC:            -12367.810335
Entropy (-ST):   -0.095498
Local:          -86.993369
--------------------------
Free energy:   -12238.394301
Extrapolated:  -12238.346552

Showing only first 2 kpts
 Kpt  Band  Eigenvalues  Occupancy
  0   325     -5.12083    1.97352
  0   326     -5.05231    1.94814
  0   327     -4.55699    0.41925
  0   328     -3.95928    0.00134

  1   325     -5.17200    1.98404
  1   326     -4.92065    1.81930
  1   327     -4.45958    0.18203
  1   328     -3.96832    0.00147


Fermi level: -4.68971

Gap: 0.343 eV
Transition (v -> c):
  (s=0, k=2, n=326, [0.12, 0.12, 0.00]) -> (s=0, k=0, n=327, [0.12, -0.38, 0.00])

Forces in eV/Ang:
  0 Hg   -0.00000    0.00267   -0.07973
  1 Hg   -0.00752   -0.00836    0.07604
  2 Hg    0.01834    0.02877   -0.04504
  3 Hg    0.00000   -0.00995   -0.00240
  4 Hg   -0.01244   -0.02381   -0.07862
  5 Hg   -0.00000    0.01724    0.10933
  6 Hg   -0.01100    0.01551   -0.01425
  7 Hg   -0.01686    0.03053   -0.01358
  8 Hg    0.00990    0.02482   -0.07856
  9 Hg    0.00902   -0.00581    0.08926
 10 Hg    0.00000   -0.03304    0.01947
 11 Hg   -0.00738    0.01077   -0.01079
 12 Hg   -0.02030    0.00051   -0.08758
 13 Hg    0.00752   -0.00836    0.07604
 14 Hg    0.00000   -0.03088   -0.04511
 15 Hg   -0.00621   -0.00466    0.01600
 16 Hg    0.00000   -0.00786   -0.07730
 17 Hg    0.01591    0.00339    0.11654
 18 Hg    0.01100    0.01551   -0.01425
 19 Hg   -0.00000    0.04767    0.00393
 20 Hg   -0.00990    0.02482   -0.07856
 21 Hg    0.00000   -0.00135    0.08817
 22 Hg   -0.00460    0.01701   -0.02133
 23 Hg    0.00738    0.01077   -0.01079
 24 Hg    0.02030    0.00051   -0.08758
 25 Hg   -0.00000    0.01013    0.09563
 26 Hg   -0.01834    0.02877   -0.04504
 27 Hg    0.00621   -0.00466    0.01600
 28 Hg    0.01244   -0.02381   -0.07862
 29 Hg   -0.01591    0.00339    0.11654
 30 Hg    0.00000   -0.00980    0.00538
 31 Hg    0.01686    0.03053   -0.01358
 32 Hg   -0.00000    0.00610   -0.08281
 33 Hg   -0.00902   -0.00581    0.08926
 34 Hg    0.00460    0.01701   -0.02133
 35 Hg    0.00000   -0.04356   -0.00459
 36 O    -0.00000    0.00245    0.00814

BFGS:   45 10:33:56   -12238.346552        0.0565
System changes: positions 

Initializing position-dependent things.

Density initialized from wave functions
                                                              
                                                              
                                                              
                                                              
                                  Hg   O     Hg      Hg       
                                                              
                             Hg       Hg      Hg              
                      Hg       Hg       Hg                    
                                                              
                         Hg       Hg       Hg                 
                                                              
                   Hg      Hg       Hg                        
                     Hg       Hg       Hg       Hg            
            Hg                Hg                              
                        Hg       Hg      Hg                   
                                                              
                 Hg       Hg       Hg                         
                    Hg       Hg       Hg                      
                                                              
             Hg       Hg       Hg                             
       Hg       Hg       Hg                                   
                                                              
                                                              
                                                              
                                                              

Positions:
   0 Hg     0.000000    0.000000   10.000000    ( 0.0000,  0.0000,  0.0000)
   1 Hg     3.603292    2.080362   12.942076    ( 0.0000,  0.0000,  0.0000)
   2 Hg     1.860123    1.072496   16.028947    ( 0.0000,  0.0000,  0.0000)
   3 Hg     5.404939    3.013517   19.321316    ( 0.0000,  0.0000,  0.0000)
   4 Hg     1.801646    3.120543   10.000000    ( 0.0000,  0.0000,  0.0000)
   5 Hg     5.404939    5.200905   12.942076    ( 0.0000,  0.0000,  0.0000)
   6 Hg     3.633306    4.193436   16.133498    ( 0.0000,  0.0000,  0.0000)
   7 Hg     7.273712    6.113994   19.289836    ( 0.0000,  0.0000,  0.0000)
   8 Hg     3.603292    6.241086   10.000000    ( 0.0000,  0.0000,  0.0000)
   9 Hg     7.206585    8.321447   12.942076    ( 0.0000,  0.0000,  0.0000)
  10 Hg     5.404939    7.380306   16.148185    ( 0.0000,  0.0000,  0.0000)
  11 Hg     8.624305    9.309465   19.119985    ( 0.0000,  0.0000,  0.0000)
  12 Hg     3.603292    0.000000   10.000000    ( 0.0000,  0.0000,  0.0000)
  13 Hg     7.206585    2.080362   12.942076    ( 0.0000,  0.0000,  0.0000)
  14 Hg     5.404939    1.065097   16.047984    ( 0.0000,  0.0000,  0.0000)
  15 Hg     8.985589    3.120478   19.292985    ( 0.0000,  0.0000,  0.0000)
  16 Hg     5.404939    3.120543   10.000000    ( 0.0000,  0.0000,  0.0000)
  17 Hg     9.008231    5.200905   12.942076    ( 0.0000,  0.0000,  0.0000)
  18 Hg     7.176571    4.193436   16.133498    ( 0.0000,  0.0000,  0.0000)
  19 Hg    10.809877    6.272040   19.115763    ( 0.0000,  0.0000,  0.0000)
  20 Hg     7.206585    6.241086   10.000000    ( 0.0000,  0.0000,  0.0000)
  21 Hg    10.809877    8.321447   12.942076    ( 0.0000,  0.0000,  0.0000)
  22 Hg     9.058390    7.296637   16.076721    ( 0.0000,  0.0000,  0.0000)
  23 Hg    12.995449    9.309465   19.119985    ( 0.0000,  0.0000,  0.0000)
  24 Hg     7.206585    0.000000   10.000000    ( 0.0000,  0.0000,  0.0000)
  25 Hg    10.809877    2.080362   12.942076    ( 0.0000,  0.0000,  0.0000)
  26 Hg     8.949754    1.072496   16.028947    ( 0.0000,  0.0000,  0.0000)
  27 Hg    12.634165    3.120478   19.292985    ( 0.0000,  0.0000,  0.0000)
  28 Hg     9.008231    3.120543   10.000000    ( 0.0000,  0.0000,  0.0000)
  29 Hg    12.611524    5.200905   12.942076    ( 0.0000,  0.0000,  0.0000)
  30 Hg    10.809877    4.143485   16.132128    ( 0.0000,  0.0000,  0.0000)
  31 Hg    14.346043    6.113994   19.289836    ( 0.0000,  0.0000,  0.0000)
  32 Hg    10.809877    6.241086   10.000000    ( 0.0000,  0.0000,  0.0000)
  33 Hg    14.413170    8.321447   12.942076    ( 0.0000,  0.0000,  0.0000)
  34 Hg    12.561365    7.296637   16.076721    ( 0.0000,  0.0000,  0.0000)
  35 Hg    16.214816    9.195187   19.234430    ( 0.0000,  0.0000,  0.0000)
  36 O     10.809877    8.954723   19.054737    ( 0.0000,  0.0000,  0.0000)

Unit cell:
           periodic     x           y           z      points  spacing
  1. axis:    yes   10.809877    0.000000    0.000000    52     0.1800
  2. axis:    yes    5.404939    9.361628    0.000000    52     0.1800
  3. axis:    no     0.000000    0.000000   28.826228   160     0.1802

  Lengths:  10.809877  10.809877  28.826228
  Angles:   90.000000  90.000000  60.000000

Effective grid spacing dv^(1/3) = 0.1889

     iter     time        total  log10-change:
                         energy  eigst   dens
iter:   1 10:35:47 -12238.343917  -2.33
iter:   2 10:36:50 -12238.346133  -3.17  -3.37
iter:   3 10:37:52 -12238.346740c -3.84  -3.46
iter:   4 10:38:55 -12238.346959c -4.45  -3.64
iter:   5 10:39:57 -12238.347069c -5.10  -3.84
iter:   6 10:40:59 -12238.346784c -5.63  -3.90
iter:   7 10:42:02 -12238.347490c -4.99  -3.97
iter:   8 10:43:04 -12238.347457c -6.04  -4.05c
iter:   9 10:44:07 -12238.347415c -5.94  -4.20c
iter:  10 10:45:09 -12238.347373c -6.73  -4.55c
iter:  11 10:46:12 -12238.347352c -7.11  -4.65c
iter:  12 10:47:14 -12238.347341c -7.31  -4.69c
iter:  13 10:48:17 -12238.347374c -6.95  -4.74c
iter:  14 10:49:19 -12238.347381c -6.91  -4.93c
iter:  15 10:50:22 -12238.347375c -7.93c -5.11c

Converged after 15 iterations.

Dipole moment: (-13.175514, 12.717614, -0.007895) |e|*Ang

Energy contributions relative to reference atoms: (reference = -19195648.886490)

Kinetic:       +2032.147826
Potential:     -1815.633038
External:        +0.000000
XC:            -12367.817420
Entropy (-ST):   -0.096370
Local:          -86.996557
--------------------------
Free energy:   -12238.395560
Extrapolated:  -12238.347375

Showing only first 2 kpts
 Kpt  Band  Eigenvalues  Occupancy
  0   325     -5.12081    1.97456
  0   326     -5.04723    1.94761
  0   327     -4.55386    0.42232
  0   328     -3.96164    0.00143

  1   325     -5.17207    1.98468
  1   326     -4.91068    1.80934
  1   327     -4.45939    0.18853
  1   328     -3.96959    0.00155


Fermi level: -4.68565

Gap: 0.335 eV
Transition (v -> c):
  (s=0, k=2, n=326, [0.12, 0.12, 0.00]) -> (s=0, k=0, n=327, [0.12, -0.38, 0.00])

Forces in eV/Ang:
  0 Hg   -0.00000    0.00110   -0.08205
  1 Hg   -0.00596   -0.00671    0.07387
  2 Hg    0.01691    0.02840    0.00173
  3 Hg    0.00000   -0.00247   -0.00545
  4 Hg   -0.01162   -0.02220   -0.08082
  5 Hg   -0.00000    0.01906    0.10490
  6 Hg   -0.00665    0.01024   -0.00494
  7 Hg   -0.00462    0.02117   -0.01731
  8 Hg    0.00950    0.02450   -0.07859
  9 Hg    0.00892   -0.00977    0.08596
 10 Hg    0.00000   -0.02328    0.02403
 11 Hg   -0.00896    0.01033   -0.00447
 12 Hg   -0.01933   -0.00080   -0.08920
 13 Hg    0.00596   -0.00671    0.07387
 14 Hg    0.00000   -0.01023   -0.03285
 15 Hg    0.00602   -0.00643    0.00914
 16 Hg    0.00000   -0.00705   -0.07857
 17 Hg    0.01400    0.00578    0.11252
 18 Hg    0.00665    0.01024   -0.00494
 19 Hg   -0.00000    0.04482   -0.00202
 20 Hg   -0.00950    0.02450   -0.07859
 21 Hg    0.00000   -0.00344    0.08383
 22 Hg   -0.00473    0.01375   -0.01652
 23 Hg    0.00896    0.01033   -0.00447
 24 Hg    0.01933   -0.00080   -0.08920
 25 Hg   -0.00000    0.01058    0.09300
 26 Hg   -0.01691    0.02840    0.00173
 27 Hg   -0.00602   -0.00643    0.00914
 28 Hg    0.01162   -0.02220   -0.08082
 29 Hg   -0.01400    0.00578    0.11252
 30 Hg    0.00000   -0.01090    0.00715
 31 Hg    0.00462    0.02117   -0.01731
 32 Hg   -0.00000    0.00678   -0.08359
 33 Hg   -0.00892   -0.00977    0.08596
 34 Hg    0.00473    0.01375   -0.01652
 35 Hg    0.00000   -0.03797   -0.01771
 36 O    -0.00000    0.03205   -0.00131

BFGS:   46 10:50:39   -12238.347375        0.0449
Timing:                                      incl.     excl.
-------------------------------------------------------------------
Density initialized from wave functions:    32.513    29.981   0.1% |
 Symmetrize density:                         2.532     2.532   0.0% |
Forces:                                    826.103   826.103   1.7% ||
Hamiltonian:                               272.908     0.008   0.0% |
 Atomic:                                     0.013     0.013   0.0% |
  XC Correction:                             0.000     0.000   0.0% |
 Calculate atomic Hamiltonians:              0.018     0.018   0.0% |
 Communicate:                               10.765    10.765   0.0% |
 Hartree integrate/restrict:                 0.868     0.868   0.0% |
 Initialize Hamiltonian:                     0.000     0.000   0.0% |
 Poisson:                                   14.111     0.617   0.0% |
  Communicate from 1D:                       1.461     1.461   0.0% |
  Communicate from 2D:                       2.473     2.473   0.0% |
  Communicate to 1D:                         0.655     0.655   0.0% |
  Communicate to 2D:                         2.638     2.638   0.0% |
  FFT 1D:                                    2.182     2.182   0.0% |
  FFT 2D:                                    4.084     4.084   0.0% |
 XC 3D grid:                               246.802    62.948   0.1% |
  VdW-DF integral:                         183.853     2.228   0.0% |
   Convolution:                             23.329    23.329   0.0% |
   FFT:                                     14.061    14.061   0.0% |
   gather:                                  52.741    52.741   0.1% |
   hmm1:                                     3.644     3.644   0.0% |
   hmm2:                                     7.738     7.738   0.0% |
   iFFT:                                    14.373    14.373   0.0% |
   potential:                               60.806     1.272   0.0% |
    collect:                                 5.266     5.266   0.0% |
    p1:                                     36.365    36.365   0.1% |
    p2:                                     11.985    11.985   0.0% |
    sum:                                     5.919     5.919   0.0% |
   splines:                                  4.932     4.932   0.0% |
 vbar:                                       0.323     0.323   0.0% |
LCAO initialization:                        31.553     1.144   0.0% |
 LCAO eigensolver:                           8.072     0.004   0.0% |
  Calculate projections:                     0.000     0.000   0.0% |
  DenseAtomicCorrection:                     0.000     0.000   0.0% |
  Distribute overlap matrix:                 7.223     7.223   0.0% |
  Orbital Layouts:                           0.715     0.715   0.0% |
  Potential matrix:                          0.022     0.022   0.0% |
  Sum over cells:                            0.109     0.109   0.0% |
 LCAO to grid:                              21.082    21.082   0.0% |
 Set positions (LCAO WFS):                   1.255     0.923   0.0% |
  Basic WFS set positions:                   0.003     0.003   0.0% |
  Basis functions set positions:             0.000     0.000   0.0% |
  P tci:                                     0.001     0.001   0.0% |
  ST tci:                                    0.264     0.264   0.0% |
  mktci:                                     0.065     0.065   0.0% |
Redistribute:                                0.027     0.027   0.0% |
SCF-cycle:                               46600.961   234.448   0.5% |
 Davidson:                               42008.697  9720.741  19.5% |-------|
  Apply hamiltonian:                      1513.914  1513.914   3.0% ||
  Subspace diag:                          6223.111     0.106   0.0% |
   calc_h_matrix:                         3072.794  1712.554   3.4% ||
    Apply hamiltonian:                    1360.240  1360.240   2.7% ||
   diagonalize:                            138.852   138.852   0.3% |
   rotate_psi:                            3011.359  3011.359   6.1% |-|
  calc. matrices:                        17717.843 11584.203  23.3% |--------|
   Apply hamiltonian:                     6133.640  6133.640  12.3% |----|
  diagonalize:                             569.454   569.454   1.1% |
  rotate_psi:                             6263.634  6263.634  12.6% |----|
 Density:                                  134.823     0.018   0.0% |
  Atomic density matrices:                   4.265     4.265   0.0% |
  Mix:                                      19.685    19.685   0.0% |
  Multipole moments:                         0.326     0.326   0.0% |
  Pseudo density:                          110.528    73.233   0.1% |
   Symmetrize density:                      37.295    37.295   0.1% |
 Hamiltonian:                             3961.634     0.106   0.0% |
  Atomic:                                    0.189     0.186   0.0% |
   XC Correction:                            0.002     0.002   0.0% |
  Calculate atomic Hamiltonians:             0.257     0.257   0.0% |
  Communicate:                             153.608   153.608   0.3% |
  Hartree integrate/restrict:               12.790    12.790   0.0% |
  Poisson:                                 210.315     9.172   0.0% |
   Communicate from 1D:                     22.179    22.179   0.0% |
   Communicate from 2D:                     36.813    36.813   0.1% |
   Communicate to 1D:                        9.845     9.845   0.0% |
   Communicate to 2D:                       39.066    39.066   0.1% |
   FFT 1D:                                  32.229    32.229   0.1% |
   FFT 2D:                                  61.010    61.010   0.1% |
  XC 3D grid:                             3582.155   933.212   1.9% ||
   VdW-DF integral:                       2648.943    33.110   0.1% |
    Convolution:                           347.478   347.478   0.7% |
    FFT:                                   211.760   211.760   0.4% |
    gather:                                773.137   773.137   1.6% ||
    hmm1:                                   53.936    53.936   0.1% |
    hmm2:                                  114.901   114.901   0.2% |
    iFFT:                                  214.347   214.347   0.4% |
    potential:                             900.270    18.810   0.0% |
     collect:                               78.955    78.955   0.2% |
     p1:                                   542.249   542.249   1.1% |
     p2:                                   177.721   177.721   0.4% |
     sum:                                   82.535    82.535   0.2% |
    splines:                                 0.004     0.004   0.0% |
  vbar:                                      2.213     2.213   0.0% |
 Orthonormalize:                           261.360     0.011   0.0% |
  calc_s_matrix:                            48.007    48.007   0.1% |
  inverse-cholesky:                        118.795   118.795   0.2% |
  projections:                               0.003     0.003   0.0% |
  rotate_psi_s:                             94.543    94.543   0.2% |
Set symmetry:                                0.002     0.002   0.0% |
Other:                                    1980.835  1980.835   4.0% |-|
-------------------------------------------------------------------
Total:                                             49744.901 100.0%

Memory usage: 2.90 GiB
Date: Thu Sep 28 10:50:39 2023
