
  ___ ___ ___ _ _ _  
 |   |   |_  | | | | 
 | | | | | . | | | | 
 |__ |  _|___|_____|  22.8.0
 |___|_|             

User:   s204775@c106.nifl.fysik.dtu.dk
Date:   Wed Sep 27 21:01:37 2023
Arch:   x86_64
Pid:    3354
CWD:    /home/cat/s204775/projects/Bachelor_project/O_missing_features
Python: 3.10.4
gpaw:   /home/modules/software/GPAW/22.8.0-intel-2022a/lib/python3.10/site-packages/gpaw
_gpaw:  /home/modules/software/GPAW/22.8.0-intel-2022a/lib/python3.10/site-packages/
        _gpaw.cpython-310-x86_64-linux-gnu.so
ase:    /home/modules/software/ASE/3.22.1-intel-2022a/lib/python3.10/site-packages/ase (version 3.22.1)
numpy:  /home/modules/software/SciPy-bundle/2022.05-intel-2022a/lib/python3.10/site-packages/numpy (version 1.22.3)
scipy:  /home/modules/software/SciPy-bundle/2022.05-intel-2022a/lib/python3.10/site-packages/scipy (version 1.8.1)
libxc:  5.2.3
units:  Angstrom and eV
cores: 40
OpenMP: False
OMP_NUM_THREADS: 1

Input parameters:
  basis: dzp
  h: 0.18
  kpts: {size: (4, 4, 1)}
  xc: BEEF-vdW

System changes: positions, numbers, cell, pbc, initial_charges, initial_magmoms 

Initialize ...

species:
  In:
    name: Indium
    id: 4115a36869ad701825fde81bee9eb9d4
    Z: 49.0
    valence: 13
    core: 36
    charge: 0.0
    file: /home/modules/software/GPAW-setups/0.9.20000/In.PBE.gz
    compensation charges: {type: gauss,
                           rc: 0.36,
                           lmax: 2}
    cutoffs: {filter: 2.09,
              core: 2.48}
    valence states:
      #              energy  rcut
      - 5s(2.00)    -8.203   1.185
      - 5p(1.00)    -2.521   1.244
      - 4d(10.00)   -18.629   1.148
      -  s          19.008   1.185
      -  p          24.691   1.244
      -  d           8.583   1.148
  
    # LCAO basis set for In:
    #   Name: dzp
    #   File: /home/modules/software/GPAW-setups/0.9.20000/In.dzp.basis.gz
    #   Number of radial functions: 7
    #   Number of spherical harmonics: 23
    #     l=0, rc=7.7188 Bohr: 5s-sz confined orbital
    #     l=1, rc=10.7500 Bohr: 5p-sz confined orbital
    #     l=2, rc=4.4219 Bohr: 4d-sz confined orbital
    #     l=0, rc=4.5312 Bohr: 5s-dz split-valence wave
    #     l=1, rc=6.4688 Bohr: 5p-dz split-valence wave
    #     l=2, rc=2.7344 Bohr: 4d-dz split-valence wave
    #     l=2, rc=10.7500 Bohr: d-type Gaussian polarization
    #   Number of RI-basis functions 0

  O:
    name: Oxygen
    id: 32ecd46bf208036f09c70b0ec9a88b78
    Z: 8.0
    valence: 6
    core: 2
    charge: 0.0
    file: /home/modules/software/GPAW-setups/0.9.20000/O.PBE.gz
    compensation charges: {type: gauss,
                           rc: 0.21,
                           lmax: 2}
    cutoffs: {filter: 1.17,
              core: 0.83}
    valence states:
      #              energy  rcut
      - 2s(2.00)   -23.961   0.688
      - 2p(4.00)    -9.029   0.598
      -  s           3.251   0.688
      -  p          18.182   0.598
      -  d           0.000   0.619
  
    # LCAO basis set for O:
    #   Name: dzp
    #   File: /home/modules/software/GPAW-setups/0.9.20000/O.dzp.basis.gz
    #   Number of radial functions: 5
    #   Number of spherical harmonics: 13
    #     l=0, rc=4.3438 Bohr: 2s-sz confined orbital
    #     l=1, rc=5.3906 Bohr: 2p-sz confined orbital
    #     l=0, rc=2.2969 Bohr: 2s-dz split-valence wave
    #     l=1, rc=2.8906 Bohr: 2p-dz split-valence wave
    #     l=2, rc=5.3906 Bohr: d-type Gaussian polarization
    #   Number of RI-basis functions 0

Reference energy: -5761155.960066  # eV

Spin-paired calculation

Convergence criteria:
 Maximum [total energy] change in last 3 cyles: 0.0005 eV / electron
 Maximum integral of absolute [dens]ity change: 0.0001 electrons / valence electron
 Maximum integral of absolute [eigenst]ate change: 4e-08 eV^2 / valence electron
 Maximum number of scf [iter]ations: 333
 (Square brackets indicate name in SCF output, whereas a 'c' in
 the SCF output indicates the quantity has converged.)

Symmetries present (total): 2

  ( 1  0  0)  ( 0 -1  0)
  ( 0  1  0)  (-1  0  0)
  ( 0  0  1)  ( 0  0  1)

16 k-points: 4 x 4 x 1 Monkhorst-Pack grid
6 k-points in the irreducible part of the Brillouin zone
       k-points in crystal coordinates                weights
   0:     0.12500000   -0.12500000    0.00000000          2/16
   1:     0.12500000    0.12500000    0.00000000          2/16
   2:     0.37500000   -0.37500000    0.00000000          2/16
   3:     0.37500000   -0.12500000    0.00000000          4/16
   4:     0.37500000    0.12500000    0.00000000          4/16
   5:     0.37500000    0.37500000    0.00000000          2/16

Wave functions: Uniform real-space grid
  Kinetic energy operator: 8*3+1=25 point O(h^6) finite-difference Laplacian
  ScaLapack parameters: grid=1x1, blocksize=None
  Wavefunction extrapolation:
    Improved wavefunction reuse through dual PAW basis 

Occupation numbers: Fermi-Dirac:
  width: 0.1000  # eV
 

Eigensolver
   Davidson(niter=2) 

Densities:
  Coarse grid: 48*48*156 grid
  Fine grid: 96*96*312 grid
  Total Charge: 0.000000 

Density mixing:
  Method: separate
  Backend: pulay
  Linear mixing parameter: 0.05
  old densities: 5
  Damping of long wavelength oscillations: 50 

Hamiltonian:
  XC and Coulomb potentials evaluated on a 96*96*312 grid
  Using the BEEF-vdW Exchange-Correlation functional
  Interpolation: tri-quintic (5. degree polynomial)
  Poisson solver: FastPoissonSolver using
    Stencil: 8*3+1=25 point O(h^6) finite-difference Laplacian
    FFT axes: [0, 1]
    FST axes: [2]
 

XC parameters: BEEF-vdW with 2 nearest neighbor stencil

Memory estimate:
  Process memory now: 189.79 MiB
  Calculator: 347.86 MiB
    Density: 14.09 MiB
      Arrays: 3.54 MiB
      Localized functions: 9.18 MiB
      Mixer: 1.36 MiB
    Hamiltonian: 2.91 MiB
      Arrays: 2.32 MiB
      XC: 0.00 MiB
      Poisson: 0.00 MiB
      vbar: 0.60 MiB
    Wavefunctions: 330.86 MiB
      Arrays psit_nG: 236.22 MiB
      Eigensolver: 92.86 MiB
      Projections: 0.44 MiB
      Projectors: 1.34 MiB

Total number of cores used: 40
Parallelization over k-points: 2
Domain decomposition: 2 x 2 x 5

Number of atoms: 37
Number of atomic orbitals: 841
Number of bands in calculation: 289
Number of valence electrons: 474
Bands to converge: occupied

... initialized

Initializing position-dependent things.

Density initialized from atomic densities
Creating initial wave functions:
  289 bands from LCAO basis set

                                                  
                                                  
                                                  
                                                  
                                                  
                      O                           
           In      In      In                     
                                                  
            IIn     IIn     InIn                  
               In       In      In                
              In      In       In                 
                                                  
               InIn     IIn     IIn               
                                                  
                  In      In      In              
                    In       In      In           
           In      In      In                     
                                                  
             In      In       In                  
               In       In      In                
                                                  
                                                  
                                                  
                                                  

Positions:
   0 In    -0.000000    0.000000   10.000000    ( 0.0000,  0.0000,  0.0000)
   1 In     1.696324    0.979373   12.770085    ( 0.0000,  0.0000,  0.0000)
   2 In     0.000000    1.958746   15.501326    ( 0.0000,  0.0000,  0.0000)
   3 In     0.000000    0.000000   18.272307    ( 0.0000,  0.0000,  0.0000)
   4 In    -1.696324    2.938119   10.000000    ( 0.0000,  0.0000,  0.0000)
   5 In     0.000000    3.917492   12.770085    ( 0.0000,  0.0000,  0.0000)
   6 In    -1.696324    4.896865   15.501326    ( 0.0000,  0.0000,  0.0000)
   7 In    -1.696324    2.938119   18.272307    ( 0.0000,  0.0000,  0.0000)
   8 In    -3.392647    5.876238   10.000000    ( 0.0000,  0.0000,  0.0000)
   9 In    -1.696324    6.855611   12.770085    ( 0.0000,  0.0000,  0.0000)
  10 In    -3.392647    7.834984   15.501326    ( 0.0000,  0.0000,  0.0000)
  11 In    -3.392647    5.876238   18.272307    ( 0.0000,  0.0000,  0.0000)
  12 In     3.392647    0.000000   10.000000    ( 0.0000,  0.0000,  0.0000)
  13 In     5.088971    0.979373   12.770085    ( 0.0000,  0.0000,  0.0000)
  14 In     3.392647    1.958746   15.501326    ( 0.0000,  0.0000,  0.0000)
  15 In     3.392647   -0.000000   18.272307    ( 0.0000,  0.0000,  0.0000)
  16 In     1.696324    2.938119   10.000000    ( 0.0000,  0.0000,  0.0000)
  17 In     3.392647    3.917492   12.770085    ( 0.0000,  0.0000,  0.0000)
  18 In     1.696324    4.896865   15.501326    ( 0.0000,  0.0000,  0.0000)
  19 In     1.696324    2.938119   18.272307    ( 0.0000,  0.0000,  0.0000)
  20 In    -0.000000    5.876238   10.000000    ( 0.0000,  0.0000,  0.0000)
  21 In     1.696324    6.855611   12.770085    ( 0.0000,  0.0000,  0.0000)
  22 In     0.000000    7.834984   15.501326    ( 0.0000,  0.0000,  0.0000)
  23 In     0.000000    5.876238   18.272307    ( 0.0000,  0.0000,  0.0000)
  24 In     6.785295    0.000000   10.000000    ( 0.0000,  0.0000,  0.0000)
  25 In     8.481619    0.979373   12.770085    ( 0.0000,  0.0000,  0.0000)
  26 In     6.785295    1.958746   15.501326    ( 0.0000,  0.0000,  0.0000)
  27 In     6.785295   -0.000000   18.272307    ( 0.0000,  0.0000,  0.0000)
  28 In     5.088971    2.938119   10.000000    ( 0.0000,  0.0000,  0.0000)
  29 In     6.785295    3.917492   12.770085    ( 0.0000,  0.0000,  0.0000)
  30 In     5.088971    4.896865   15.501326    ( 0.0000,  0.0000,  0.0000)
  31 In     5.088971    2.938119   18.272307    ( 0.0000,  0.0000,  0.0000)
  32 In     3.392647    5.876238   10.000000    ( 0.0000,  0.0000,  0.0000)
  33 In     5.088971    6.855611   12.770085    ( 0.0000,  0.0000,  0.0000)
  34 In     3.392647    7.834984   15.501326    ( 0.0000,  0.0000,  0.0000)
  35 In     3.392647    5.876238   18.272307    ( 0.0000,  0.0000,  0.0000)
  36 O      1.696324    4.896865   19.251680    ( 0.0000,  0.0000,  0.0000)

Unit cell:
           periodic     x           y           z      points  spacing
  1. axis:    yes   10.177942    0.000000    0.000000    48     0.1836
  2. axis:    yes   -5.088971    8.814357    0.000000    48     0.1836
  3. axis:    no     0.000000    0.000000   28.310255   156     0.1815

  Lengths:  10.177942  10.177942  28.310255
  Angles:   90.000000  90.000000 120.000000

Effective grid spacing dv^(1/3) = 0.1919

     iter     time        total  log10-change:
                         energy  eigst   dens
iter:   1 21:02:32 -5695.827473
iter:   2 21:02:58 -5695.583195  -0.84  -1.46
iter:   3 21:03:25 -5694.731445  -1.21  -1.48
iter:   4 21:03:52 -5694.602312  -1.92  -1.57
iter:   5 21:04:19 -5695.247712  -1.53  -1.60
iter:   6 21:04:45 -5694.656627  -1.56  -1.69
iter:   7 21:05:12 -5694.512832  -1.99  -2.24
iter:   8 21:05:38 -5694.491556c -2.49  -2.42
iter:   9 21:06:05 -5694.484480c -2.70  -2.57
iter:  10 21:06:31 -5694.474897c -2.96  -2.66
iter:  11 21:06:58 -5694.471947c -3.29  -2.76
iter:  12 21:07:24 -5694.467823c -3.47  -2.88
iter:  13 21:07:51 -5694.468522c -3.73  -3.08
iter:  14 21:08:18 -5694.468412c -4.09  -3.16
iter:  15 21:08:44 -5694.469212c -4.26  -3.28
iter:  16 21:09:11 -5694.469145c -4.65  -3.44
iter:  17 21:09:37 -5694.468904c -4.93  -3.50
iter:  18 21:10:04 -5694.468531c -4.84  -3.63
iter:  19 21:10:31 -5694.468579c -5.48  -3.85
iter:  20 21:10:57 -5694.468583c -5.85  -3.99
iter:  21 21:11:24 -5694.468557c -5.73  -4.07c
iter:  22 21:11:50 -5694.468564c -6.40  -4.18c
iter:  23 21:12:17 -5694.468575c -6.53  -4.29c
iter:  24 21:12:43 -5694.468571c -7.24  -4.48c
iter:  25 21:13:10 -5694.468565c -7.30  -4.54c
iter:  26 21:13:37 -5694.468567c -7.06  -4.75c
iter:  27 21:14:03 -5694.468564c -7.59c -4.82c

Converged after 27 iterations.

Dipole moment: (-7.660115, -13.327387, -0.192053) |e|*Ang

Energy contributions relative to reference atoms: (reference = -5761155.960066)

Kinetic:       +1221.351477
Potential:     -1139.076057
External:        +0.000000
XC:            -5780.025947
Entropy (-ST):   -0.592964
Local:           +3.578446
--------------------------
Free energy:   -5694.765046
Extrapolated:  -5694.468564

Showing only first 2 kpts
 Kpt  Band  Eigenvalues  Occupancy
  0   235     -4.28085    1.79756
  0   236     -4.15170    1.41871
  0   237     -4.04264    0.90117
  0   238     -4.03340    0.85563

  1   235     -4.21336    1.63777
  1   236     -4.14937    1.40907
  1   237     -4.13232    1.33570
  1   238     -4.10741    1.22098


Fermi level: -4.06247

No gap

Forces in eV/Ang:
  0 In   -0.02088    0.01206    0.07045
  1 In   -0.01007   -0.00184    0.02317
  2 In   -0.04607    0.01808   -0.03732
  3 In   -0.03777    0.02181    0.06892
  4 In    0.01618   -0.02109    0.05735
  5 In    0.03990    0.01549    0.01978
  6 In    0.00503   -0.05687   -0.05663
  7 In   -0.07348   -0.04503   -0.03032
  8 In   -0.00065    0.00963    0.06584
  9 In    0.00918   -0.00530    0.03617
 10 In   -0.01281    0.00740    0.02765
 11 In    0.01237   -0.05527    0.09106
 12 In   -0.00866   -0.00425    0.06584
 13 In    0.00038    0.00705    0.04007
 14 In    0.03457    0.03709   -0.05580
 15 In    0.05405    0.01692    0.09106
 16 In   -0.01784    0.03881    0.02396
 17 In   -0.02705    0.01562    0.03075
 18 In    0.00509   -0.00294   -0.16986
 19 In   -0.00005   -0.27720    0.18167
 20 In    0.03717   -0.02146    0.04682
 21 In    0.00653   -0.04230    0.01978
 22 In    0.05177    0.02408   -0.05663
 23 In   -0.25223    0.14562    0.18447
 24 In    0.02635   -0.00347    0.05735
 25 In   -0.00788    0.00455    0.02726
 26 In    0.00863   -0.00498    0.02087
 27 In    0.00226    0.08615   -0.03032
 28 In   -0.00324    0.00187    0.03876
 29 In   -0.00592   -0.00385    0.04007
 30 In   -0.01484   -0.04848   -0.05580
 31 In    0.06402   -0.03696   -0.02137
 32 In   -0.04253   -0.00396    0.02396
 33 In   -0.00344    0.00964    0.02317
 34 In   -0.03870    0.03086   -0.03732
 35 In    0.24004    0.13864    0.18167
 36 O     0.01846   -0.01066   -0.29415

      Step     Time          Energy         fmax
BFGS:    0 21:14:12    -5694.468564        0.3448
System changes: positions 

Initializing position-dependent things.

Density initialized from wave functions
                                                  
                                                  
                                                  
                                                  
                                                  
                      O                           
           In      In      In                     
                                                  
            IIn     IIn     InIn                  
               In       In      In                
              In      In       In                 
                                                  
               InIn     IIn     IIn               
                                                  
                  In      In      In              
                    In       In      In           
           In      In      In                     
                                                  
             In      In       In                  
               In       In      In                
                                                  
                                                  
                                                  
                                                  

Positions:
   0 In    -0.000000    0.000000   10.000000    ( 0.0000,  0.0000,  0.0000)
   1 In     1.696324    0.979373   12.770085    ( 0.0000,  0.0000,  0.0000)
   2 In    -0.000658    1.959004   15.500793    ( 0.0000,  0.0000,  0.0000)
   3 In    -0.000540    0.000312   18.273292    ( 0.0000,  0.0000,  0.0000)
   4 In    -1.696324    2.938119   10.000000    ( 0.0000,  0.0000,  0.0000)
   5 In     0.000000    3.917492   12.770085    ( 0.0000,  0.0000,  0.0000)
   6 In    -1.696252    4.896052   15.500517    ( 0.0000,  0.0000,  0.0000)
   7 In    -1.697373    2.937476   18.271874    ( 0.0000,  0.0000,  0.0000)
   8 In    -3.392647    5.876238   10.000000    ( 0.0000,  0.0000,  0.0000)
   9 In    -1.696324    6.855611   12.770085    ( 0.0000,  0.0000,  0.0000)
  10 In    -3.392830    7.835089   15.501721    ( 0.0000,  0.0000,  0.0000)
  11 In    -3.392471    5.875448   18.273608    ( 0.0000,  0.0000,  0.0000)
  12 In     3.392647    0.000000   10.000000    ( 0.0000,  0.0000,  0.0000)
  13 In     5.088971    0.979373   12.770085    ( 0.0000,  0.0000,  0.0000)
  14 In     3.393141    1.959276   15.500529    ( 0.0000,  0.0000,  0.0000)
  15 In     3.393420    0.000242   18.273608    ( 0.0000,  0.0000,  0.0000)
  16 In     1.696324    2.938119   10.000000    ( 0.0000,  0.0000,  0.0000)
  17 In     3.392647    3.917492   12.770085    ( 0.0000,  0.0000,  0.0000)
  18 In     1.696396    4.896823   15.498899    ( 0.0000,  0.0000,  0.0000)
  19 In     1.696323    2.934159   18.274902    ( 0.0000,  0.0000,  0.0000)
  20 In    -0.000000    5.876238   10.000000    ( 0.0000,  0.0000,  0.0000)
  21 In     1.696324    6.855611   12.770085    ( 0.0000,  0.0000,  0.0000)
  22 In     0.000740    7.835328   15.500517    ( 0.0000,  0.0000,  0.0000)
  23 In    -0.003603    5.878318   18.274942    ( 0.0000,  0.0000,  0.0000)
  24 In     6.785295    0.000000   10.000000    ( 0.0000,  0.0000,  0.0000)
  25 In     8.481619    0.979373   12.770085    ( 0.0000,  0.0000,  0.0000)
  26 In     6.785418    1.958675   15.501624    ( 0.0000,  0.0000,  0.0000)
  27 In     6.785327    0.001231   18.271874    ( 0.0000,  0.0000,  0.0000)
  28 In     5.088971    2.938119   10.000000    ( 0.0000,  0.0000,  0.0000)
  29 In     6.785295    3.917492   12.770085    ( 0.0000,  0.0000,  0.0000)
  30 In     5.088759    4.896172   15.500529    ( 0.0000,  0.0000,  0.0000)
  31 In     5.089886    2.937591   18.272002    ( 0.0000,  0.0000,  0.0000)
  32 In     3.392647    5.876238   10.000000    ( 0.0000,  0.0000,  0.0000)
  33 In     5.088971    6.855611   12.770085    ( 0.0000,  0.0000,  0.0000)
  34 In     3.392095    7.835424   15.500793    ( 0.0000,  0.0000,  0.0000)
  35 In     3.396077    5.878218   18.274902    ( 0.0000,  0.0000,  0.0000)
  36 O      1.696587    4.896712   19.247478    ( 0.0000,  0.0000,  0.0000)

Unit cell:
           periodic     x           y           z      points  spacing
  1. axis:    yes   10.177942    0.000000    0.000000    48     0.1836
  2. axis:    yes   -5.088971    8.814357    0.000000    48     0.1836
  3. axis:    no     0.000000    0.000000   28.310255   156     0.1815

  Lengths:  10.177942  10.177942  28.310255
  Angles:   90.000000  90.000000 120.000000

Effective grid spacing dv^(1/3) = 0.1919

     iter     time        total  log10-change:
                         energy  eigst   dens
iter:   1 21:15:00 -5694.476472  -3.70
iter:   2 21:15:27 -5694.476311  -4.68  -3.56
iter:   3 21:15:53 -5694.476163c -5.37  -3.73
iter:   4 21:16:20 -5694.476090c -5.08  -3.92
iter:   5 21:16:47 -5694.476099c -6.07  -4.26c
iter:   6 21:17:14 -5694.476099c -6.48  -4.29c
iter:   7 21:17:41 -5694.476092c -6.04  -4.42c
iter:   8 21:18:07 -5694.476074c -6.64  -4.50c
iter:   9 21:18:34 -5694.476080c -7.27  -4.72c
iter:  10 21:19:01 -5694.476088c -7.31  -4.80c
iter:  11 21:19:28 -5694.476090c -7.63c -5.07c

Converged after 11 iterations.

Dipole moment: (-7.492712, -13.422687, -0.189642) |e|*Ang

Energy contributions relative to reference atoms: (reference = -5761155.960066)

Kinetic:       +1220.886852
Potential:     -1138.670265
External:        +0.000000
XC:            -5779.984041
Entropy (-ST):   -0.592844
Local:           +3.587787
--------------------------
Free energy:   -5694.772512
Extrapolated:  -5694.476090

Showing only first 2 kpts
 Kpt  Band  Eigenvalues  Occupancy
  0   235     -4.28060    1.79940
  0   236     -4.14938    1.41435
  0   237     -4.04174    0.90295
  0   238     -4.03244    0.85712

  1   235     -4.21166    1.63650
  1   236     -4.14713    1.40498
  1   237     -4.13126    1.33658
  1   238     -4.10738    1.22685


Fermi level: -4.06121

No gap

Forces in eV/Ang:
  0 In   -0.02052    0.01185    0.07098
  1 In   -0.01016   -0.00134    0.02292
  2 In   -0.04163    0.01814   -0.03395
  3 In   -0.03732    0.02155    0.06459
  4 In    0.01830   -0.02024    0.05748
  5 In    0.04062    0.01553    0.01518
  6 In    0.00631   -0.05251   -0.05228
  7 In   -0.06918   -0.04269   -0.02936
  8 In   -0.00050    0.01051    0.06627
  9 In    0.00952   -0.00549    0.03571
 10 In   -0.01183    0.00683    0.03069
 11 In    0.01150   -0.05474    0.08511
 12 In   -0.00935   -0.00483    0.06627
 13 In    0.00080    0.00738    0.03972
 14 In    0.03069    0.03587   -0.05108
 15 In    0.05315    0.01741    0.08511
 16 In   -0.01825    0.03949    0.02351
 17 In   -0.02746    0.01585    0.02601
 18 In    0.00468   -0.00270   -0.15717
 19 In    0.00001   -0.26305    0.16958
 20 In    0.03808   -0.02198    0.04678
 21 In    0.00686   -0.04294    0.01518
 22 In    0.04863    0.02079   -0.05228
 23 In   -0.23756    0.13715    0.17391
 24 In    0.02668   -0.00572    0.05748
 25 In   -0.00833    0.00481    0.02692
 26 In    0.00805   -0.00465    0.01814
 27 In    0.00238    0.08126   -0.02936
 28 In   -0.00512    0.00295    0.03885
 29 In   -0.00599   -0.00438    0.03972
 30 In   -0.01572   -0.04451   -0.05108
 31 In    0.06021   -0.03476   -0.02078
 32 In   -0.04332   -0.00394    0.02351
 33 In   -0.00392    0.00946    0.02292
 34 In   -0.03653    0.02699   -0.03395
 35 In    0.22782    0.13152    0.16958
 36 O     0.01464   -0.00845   -0.28036

BFGS:    1 21:19:36    -5694.476090        0.3248
System changes: positions 

Initializing position-dependent things.

Density initialized from wave functions
                                                  
                                                  
                                                  
                                                  
                                                  
                       O                          
           In      In      In                     
                                                  
            IIn     IIn     InIn                  
               In       In      In                
              In      In       In                 
                                                  
               InIn     IIn     IIn               
                                                  
                  In      In      In              
                    In       In      In           
           In      In      In                     
                                                  
             In      In       In                  
               In       In      In                
                                                  
                                                  
                                                  
                                                  

Positions:
   0 In    -0.000000    0.000000   10.000000    ( 0.0000,  0.0000,  0.0000)
   1 In     1.696324    0.979373   12.770085    ( 0.0000,  0.0000,  0.0000)
   2 In    -0.011180    1.963587   15.492213    ( 0.0000,  0.0000,  0.0000)
   3 In    -0.009967    0.005755   18.289613    ( 0.0000,  0.0000,  0.0000)
   4 In    -1.696324    2.938119   10.000000    ( 0.0000,  0.0000,  0.0000)
   5 In     0.000000    3.917492   12.770085    ( 0.0000,  0.0000,  0.0000)
   6 In    -1.694658    4.882784   15.487307    ( 0.0000,  0.0000,  0.0000)
   7 In    -1.714852    2.926689   18.264457    ( 0.0000,  0.0000,  0.0000)
   8 In    -3.392647    5.876238   10.000000    ( 0.0000,  0.0000,  0.0000)
   9 In    -1.696324    6.855611   12.770085    ( 0.0000,  0.0000,  0.0000)
  10 In    -3.395821    7.836816   15.509469    ( 0.0000,  0.0000,  0.0000)
  11 In    -3.389566    5.861621   18.295112    ( 0.0000,  0.0000,  0.0000)
  12 In     3.392647    0.000000   10.000000    ( 0.0000,  0.0000,  0.0000)
  13 In     5.088971    0.979373   12.770085    ( 0.0000,  0.0000,  0.0000)
  14 In     3.400896    1.968338   15.487620    ( 0.0000,  0.0000,  0.0000)
  15 In     3.406847    0.004640   18.295112    ( 0.0000,  0.0000,  0.0000)
  16 In     1.696324    2.938119   10.000000    ( 0.0000,  0.0000,  0.0000)
  17 In     3.392647    3.917492   12.770085    ( 0.0000,  0.0000,  0.0000)
  18 In     1.697579    4.896140   15.459186    ( 0.0000,  0.0000,  0.0000)
  19 In     1.696326    2.867697   18.317750    ( 0.0000,  0.0000,  0.0000)
  20 In    -0.000000    5.876238   10.000000    ( 0.0000,  0.0000,  0.0000)
  21 In     1.696324    6.855611   12.770085    ( 0.0000,  0.0000,  0.0000)
  22 In     0.013027    7.840581   15.487307    ( 0.0000,  0.0000,  0.0000)
  23 In    -0.063625    5.912972   18.318883    ( 0.0000,  0.0000,  0.0000)
  24 In     6.785295    0.000000   10.000000    ( 0.0000,  0.0000,  0.0000)
  25 In     8.481619    0.979373   12.770085    ( 0.0000,  0.0000,  0.0000)
  26 In     6.787451    1.957501   15.506209    ( 0.0000,  0.0000,  0.0000)
  27 In     6.785929    0.021761   18.264457    ( 0.0000,  0.0000,  0.0000)
  28 In     5.088971    2.938119   10.000000    ( 0.0000,  0.0000,  0.0000)
  29 In     6.785295    3.917492   12.770085    ( 0.0000,  0.0000,  0.0000)
  30 In     5.084788    4.884925   15.487620    ( 0.0000,  0.0000,  0.0000)
  31 In     5.105098    2.928808   18.266753    ( 0.0000,  0.0000,  0.0000)
  32 In     3.392647    5.876238   10.000000    ( 0.0000,  0.0000,  0.0000)
  33 In     5.088971    6.855611   12.770085    ( 0.0000,  0.0000,  0.0000)
  34 In     3.382865    7.842245   15.492213    ( 0.0000,  0.0000,  0.0000)
  35 In     3.453635    5.911446   18.317750    ( 0.0000,  0.0000,  0.0000)
  36 O      1.700288    4.894576   19.176646    ( 0.0000,  0.0000,  0.0000)

Unit cell:
           periodic     x           y           z      points  spacing
  1. axis:    yes   10.177942    0.000000    0.000000    48     0.1836
  2. axis:    yes   -5.088971    8.814357    0.000000    48     0.1836
  3. axis:    no     0.000000    0.000000   28.310255   156     0.1815

  Lengths:  10.177942  10.177942  28.310255
  Angles:   90.000000  90.000000 120.000000

Effective grid spacing dv^(1/3) = 0.1919

     iter     time        total  log10-change:
                         energy  eigst   dens
iter:   1 21:20:24 -5694.620527  -1.30
iter:   2 21:20:51 -5694.595663  -2.29  -2.46
iter:   3 21:21:18 -5694.578289c -2.97  -2.58
iter:   4 21:21:45 -5694.557619c -2.66  -2.72
iter:   5 21:22:12 -5694.556199c -3.67  -3.03
iter:   6 21:22:39 -5694.555491c -4.06  -3.10
iter:   7 21:23:06 -5694.557310c -3.72  -3.24
iter:   8 21:23:32 -5694.555799c -4.36  -3.30
iter:   9 21:23:59 -5694.555867c -4.77  -3.51
iter:  10 21:24:26 -5694.556109c -5.11  -3.60
iter:  11 21:24:53 -5694.556178c -5.33  -3.73
iter:  12 21:25:20 -5694.556172c -5.66  -3.93
iter:  13 21:25:47 -5694.556171c -6.28  -4.01c
iter:  14 21:26:14 -5694.556170c -6.10  -4.04c
iter:  15 21:26:40 -5694.556141c -6.16  -4.09c
iter:  16 21:27:07 -5694.556123c -6.40  -4.26c
iter:  17 21:27:34 -5694.556149c -6.28  -4.41c
iter:  18 21:28:01 -5694.556133c -6.81  -4.42c
iter:  19 21:28:28 -5694.556144c -6.66  -4.51c
iter:  20 21:28:55 -5694.556148c -7.03  -4.66c
iter:  21 21:29:21 -5694.556150c -7.50c -4.80c

Converged after 21 iterations.

Dipole moment: (-4.613573, -15.041572, -0.152540) |e|*Ang

Energy contributions relative to reference atoms: (reference = -5761155.960066)

Kinetic:       +1219.228481
Potential:     -1137.443901
External:        +0.000000
XC:            -5779.635005
Entropy (-ST):   -0.590990
Local:           +3.589770
--------------------------
Free energy:   -5694.851646
Extrapolated:  -5694.556150

Showing only first 2 kpts
 Kpt  Band  Eigenvalues  Occupancy
  0   235     -4.27522    1.82576
  0   236     -4.11261    1.34661
  0   237     -4.02925    0.94484
  0   238     -4.01448    0.87164

  1   235     -4.18629    1.62306
  1   236     -4.12524    1.40090
  1   237     -4.10435    1.30977
  1   238     -4.09972    1.28869


Fermi level: -4.04029

No gap

Forces in eV/Ang:
  0 In   -0.02131    0.01230    0.07524
  1 In   -0.01232    0.00212    0.02707
  2 In    0.01504   -0.00132    0.01076
  3 In   -0.04107    0.02371    0.00425
  4 In    0.03023   -0.01761    0.06142
  5 In    0.03583    0.00955   -0.03213
  6 In    0.00548    0.00863    0.01172
  7 In   -0.01491   -0.01069    0.00308
  8 In   -0.00061    0.01381    0.06900
  9 In    0.00996   -0.00575    0.03926
 10 In    0.00404   -0.00233    0.05135
 11 In    0.01104   -0.06548    0.00879
 12 In   -0.01226   -0.00638    0.06900
 13 In    0.00978    0.01256    0.03211
 14 In   -0.01310    0.00024    0.01518
 15 In    0.06223    0.02318    0.00879
 16 In   -0.02136    0.03760    0.01944
 17 In   -0.02283    0.01318   -0.02321
 18 In    0.00186   -0.00107    0.00543
 19 In    0.00218    0.07165    0.14210
 20 In    0.04071   -0.02350    0.04595
 21 In    0.00965   -0.03581   -0.03213
 22 In   -0.00473   -0.00906    0.01172
 23 In    0.07872   -0.04545    0.15610
 24 In    0.03037   -0.01737    0.06142
 25 In   -0.01761    0.01017    0.01874
 26 In   -0.00212    0.00122   -0.01888
 27 In    0.00180    0.01826    0.00308
 28 In   -0.01495    0.00863    0.04141
 29 In   -0.00599   -0.01475    0.03211
 30 In   -0.00676    0.01123    0.01518
 31 In    0.01357   -0.00783    0.00172
 32 In   -0.04324   -0.00030    0.01944
 33 In   -0.00799    0.00961    0.02707
 34 In    0.00867   -0.01236    0.01076
 35 In   -0.06096   -0.03772    0.14210
 36 O    -0.01605    0.00927   -0.39829

BFGS:    2 21:29:30    -5694.556150        0.3987
System changes: positions 

Initializing position-dependent things.

Density initialized from wave functions
                                                  
                                                  
                                                  
                                                  
                                                  
                       O                          
           In      In      In                     
                                                  
            IIn     IIn     InIn                  
               In       In      In                
              In       In      In                 
                                                  
               InIn     IIn     IIn               
                                                  
                  In      In      In              
                    In       In      In           
           In      In      In                     
                                                  
             In      In       In                  
               In       In      In                
                                                  
                                                  
                                                  
                                                  

Positions:
   0 In    -0.000000    0.000000   10.000000    ( 0.0000,  0.0000,  0.0000)
   1 In     1.696324    0.979373   12.770085    ( 0.0000,  0.0000,  0.0000)
   2 In    -0.015208    1.965443   15.488898    ( 0.0000,  0.0000,  0.0000)
   3 In    -0.014651    0.008459   18.296405    ( 0.0000,  0.0000,  0.0000)
   4 In    -1.696324    2.938119   10.000000    ( 0.0000,  0.0000,  0.0000)
   5 In     0.000000    3.917492   12.770085    ( 0.0000,  0.0000,  0.0000)
   6 In    -1.693896    4.877500   15.482109    ( 0.0000,  0.0000,  0.0000)
   7 In    -1.722331    2.922045   18.261470    ( 0.0000,  0.0000,  0.0000)
   8 In    -3.392647    5.876238   10.000000    ( 0.0000,  0.0000,  0.0000)
   9 In    -1.696324    6.855611   12.770085    ( 0.0000,  0.0000,  0.0000)
  10 In    -3.396970    7.837480   15.513663    ( 0.0000,  0.0000,  0.0000)
  11 In    -3.388154    5.854647   18.304124    ( 0.0000,  0.0000,  0.0000)
  12 In     3.392647    0.000000   10.000000    ( 0.0000,  0.0000,  0.0000)
  13 In     5.088971    0.979373   12.770085    ( 0.0000,  0.0000,  0.0000)
  14 In     3.403827    1.972067   15.482613    ( 0.0000,  0.0000,  0.0000)
  15 In     3.413592    0.006904   18.304124    ( 0.0000,  0.0000,  0.0000)
  16 In     1.696324    2.938119   10.000000    ( 0.0000,  0.0000,  0.0000)
  17 In     3.392647    3.917492   12.770085    ( 0.0000,  0.0000,  0.0000)
  18 In     1.698101    4.895839   15.442968    ( 0.0000,  0.0000,  0.0000)
  19 In     1.696370    2.841799   18.338168    ( 0.0000,  0.0000,  0.0000)
  20 In    -0.000000    5.876238   10.000000    ( 0.0000,  0.0000,  0.0000)
  21 In     1.696324    6.855611   12.770085    ( 0.0000,  0.0000,  0.0000)
  22 In     0.017984    7.842564   15.482109    ( 0.0000,  0.0000,  0.0000)
  23 In    -0.086739    5.926316   18.340025    ( 0.0000,  0.0000,  0.0000)
  24 In     6.785295    0.000000   10.000000    ( 0.0000,  0.0000,  0.0000)
  25 In     8.481619    0.979373   12.770085    ( 0.0000,  0.0000,  0.0000)
  26 In     6.788245    1.957043   15.507722    ( 0.0000,  0.0000,  0.0000)
  27 In     6.786211    0.030559   18.261470    ( 0.0000,  0.0000,  0.0000)
  28 In     5.088971    2.938119   10.000000    ( 0.0000,  0.0000,  0.0000)
  29 In     6.785295    3.917492   12.770085    ( 0.0000,  0.0000,  0.0000)
  30 In     5.083025    4.880523   15.482613    ( 0.0000,  0.0000,  0.0000)
  31 In     5.111619    2.925043   18.264630    ( 0.0000,  0.0000,  0.0000)
  32 In     3.392647    5.876238   10.000000    ( 0.0000,  0.0000,  0.0000)
  33 In     5.088971    6.855611   12.770085    ( 0.0000,  0.0000,  0.0000)
  34 In     3.379243    7.844806   15.488898    ( 0.0000,  0.0000,  0.0000)
  35 In     3.476086    5.924357   18.338168    ( 0.0000,  0.0000,  0.0000)
  36 O      1.701495    4.893879   19.139670    ( 0.0000,  0.0000,  0.0000)

Unit cell:
           periodic     x           y           z      points  spacing
  1. axis:    yes   10.177942    0.000000    0.000000    48     0.1836
  2. axis:    yes   -5.088971    8.814357    0.000000    48     0.1836
  3. axis:    no     0.000000    0.000000   28.310255   156     0.1815

  Lengths:  10.177942  10.177942  28.310255
  Angles:   90.000000  90.000000 120.000000

Effective grid spacing dv^(1/3) = 0.1919

     iter     time        total  log10-change:
                         energy  eigst   dens
iter:   1 21:30:18 -5694.575913  -2.01
iter:   2 21:30:45 -5694.574009  -3.03  -2.97
iter:   3 21:31:12 -5694.569110c -3.26  -3.04
iter:   4 21:31:38 -5694.568729c -3.99  -3.26
iter:   5 21:32:05 -5694.568732c -4.57  -3.34
iter:   6 21:32:32 -5694.568693c -4.41  -3.46
iter:   7 21:32:59 -5694.568566c -4.85  -3.63
iter:   8 21:33:26 -5694.568476c -5.25  -3.76
iter:   9 21:33:52 -5694.568504c -5.83  -3.86
iter:  10 21:34:19 -5694.568562c -5.85  -3.97
iter:  11 21:34:46 -5694.568571c -6.14  -4.09c
iter:  12 21:35:13 -5694.568549c -6.30  -4.28c
iter:  13 21:35:40 -5694.568572c -6.73  -4.46c
iter:  14 21:36:06 -5694.568567c -6.81  -4.50c
iter:  15 21:36:33 -5694.568561c -7.29  -4.64c
iter:  16 21:37:00 -5694.568552c -7.40c -4.73c

Converged after 16 iterations.

Dipole moment: (-3.288275, -15.776313, -0.132620) |e|*Ang

Energy contributions relative to reference atoms: (reference = -5761155.960066)

Kinetic:       +1218.929586
Potential:     -1137.244574
External:        +0.000000
XC:            -5779.549180
Entropy (-ST):   -0.590573
Local:           +3.590903
--------------------------
Free energy:   -5694.863839
Extrapolated:  -5694.568552

Showing only first 2 kpts
 Kpt  Band  Eigenvalues  Occupancy
  0   235     -4.26994    1.83323
  0   236     -4.09777    1.32551
  0   237     -4.02361    0.96698
  0   238     -4.00410    0.87018

  1   235     -4.17552    1.62095
  1   236     -4.11945    1.41876
  1   237     -4.09852    1.32883
  1   238     -4.08229    1.25467


Fermi level: -4.03021

No gap

Forces in eV/Ang:
  0 In   -0.02252    0.01300    0.07573
  1 In   -0.01268    0.00383    0.02979
  2 In    0.03494   -0.00687    0.02715
  3 In   -0.04560    0.02633   -0.01245
  4 In    0.03317   -0.01739    0.06078
  5 In    0.03244    0.00644   -0.05221
  6 In    0.00573    0.02681    0.03453
  7 In    0.00518    0.00109    0.01439
  8 In   -0.00072    0.01402    0.06922
  9 In    0.01015   -0.00586    0.04189
 10 In    0.01081   -0.00624    0.05790
 11 In    0.01210   -0.07671   -0.00084
 12 In   -0.01251   -0.00639    0.06922
 13 In    0.01175    0.01395    0.02983
 14 In   -0.02602   -0.01143    0.03910
 15 In    0.07248    0.02787   -0.00084
 16 In   -0.02267    0.03444    0.01452
 17 In   -0.01917    0.01106   -0.04422
 18 In    0.00193   -0.00111    0.05883
 19 In    0.00280    0.18369    0.13094
 20 In    0.04016   -0.02319    0.04265
 21 In    0.01064   -0.03132   -0.05221
 22 In   -0.02035   -0.01837    0.03453
 23 In    0.18008   -0.10397    0.15062
 24 In    0.03165   -0.02003    0.06078
 25 In   -0.02016    0.01164    0.01642
 26 In   -0.00599    0.00346   -0.03307
 27 In    0.00164   -0.00503    0.01439
 28 In   -0.01712    0.00988    0.04042
 29 In   -0.00621   -0.01715    0.02983
 30 In   -0.00311    0.02825    0.03910
 31 In   -0.00282    0.00163    0.01191
 32 In   -0.04116    0.00241    0.01452
 33 In   -0.00966    0.00906    0.02979
 34 In    0.02342   -0.02682    0.02715
 35 In   -0.15768   -0.09426    0.13094
 36 O    -0.06073    0.03506   -0.40344

BFGS:    3 21:37:09    -5694.568552        0.4095
System changes: positions 

Initializing position-dependent things.

Density initialized from wave functions
                                                  
                                                  
                                                  
                                                  
                                                  
                       O                          
           In      In       In                    
                                                  
            IIn     IIn     InIn                  
               In       In      In                
              In       In      In                 
                                 In               
               InIn     IIn     In                
                                                  
                  In      In      In              
                    In       In      In           
           In      In      In                     
                                                  
             In      In       In                  
               In       In      In                
                                                  
                                                  
                                                  
                                                  

Positions:
   0 In    -0.000000    0.000000   10.000000    ( 0.0000,  0.0000,  0.0000)
   1 In     1.696324    0.979373   12.770085    ( 0.0000,  0.0000,  0.0000)
   2 In    -0.017335    1.966598   15.487122    ( 0.0000,  0.0000,  0.0000)
   3 In    -0.018747    0.010824   18.300874    ( 0.0000,  0.0000,  0.0000)
   4 In    -1.696324    2.938119   10.000000    ( 0.0000,  0.0000,  0.0000)
   5 In     0.000000    3.917492   12.770085    ( 0.0000,  0.0000,  0.0000)
   6 In    -1.693263    4.874345   15.479170    ( 0.0000,  0.0000,  0.0000)
   7 In    -1.727389    2.918864   18.259680    ( 0.0000,  0.0000,  0.0000)
   8 In    -3.392647    5.876238   10.000000    ( 0.0000,  0.0000,  0.0000)
   9 In    -1.696324    6.855611   12.770085    ( 0.0000,  0.0000,  0.0000)
  10 In    -3.397557    7.837818   15.517634    ( 0.0000,  0.0000,  0.0000)
  11 In    -3.386948    5.848374   18.310388    ( 0.0000,  0.0000,  0.0000)
  12 In     3.392647    0.000000   10.000000    ( 0.0000,  0.0000,  0.0000)
  13 In     5.088971    0.979373   12.770085    ( 0.0000,  0.0000,  0.0000)
  14 In     3.405371    1.974426   15.479893    ( 0.0000,  0.0000,  0.0000)
  15 In     3.419628    0.008996   18.310388    ( 0.0000,  0.0000,  0.0000)
  16 In     1.696324    2.938119   10.000000    ( 0.0000,  0.0000,  0.0000)
  17 In     3.392647    3.917492   12.770085    ( 0.0000,  0.0000,  0.0000)
  18 In     1.698502    4.895607   15.432867    ( 0.0000,  0.0000,  0.0000)
  19 In     1.696453    2.827360   18.354706    ( 0.0000,  0.0000,  0.0000)
  20 In    -0.000000    5.876238   10.000000    ( 0.0000,  0.0000,  0.0000)
  21 In     1.696324    6.855611   12.770085    ( 0.0000,  0.0000,  0.0000)
  22 In     0.021033    7.843593   15.479170    ( 0.0000,  0.0000,  0.0000)
  23 In    -0.099342    5.933593   18.357438    ( 0.0000,  0.0000,  0.0000)
  24 In     6.785295    0.000000   10.000000    ( 0.0000,  0.0000,  0.0000)
  25 In     8.481619    0.979373   12.770085    ( 0.0000,  0.0000,  0.0000)
  26 In     6.788680    1.956792   15.508143    ( 0.0000,  0.0000,  0.0000)
  27 In     6.786437    0.036530   18.259680    ( 0.0000,  0.0000,  0.0000)
  28 In     5.088971    2.938119   10.000000    ( 0.0000,  0.0000,  0.0000)
  29 In     6.785295    3.917492   12.770085    ( 0.0000,  0.0000,  0.0000)
  30 In     5.081753    4.878005   15.479893    ( 0.0000,  0.0000,  0.0000)
  31 In     5.116064    2.922477   18.263398    ( 0.0000,  0.0000,  0.0000)
  32 In     3.392647    5.876238   10.000000    ( 0.0000,  0.0000,  0.0000)
  33 In     5.088971    6.855611   12.770085    ( 0.0000,  0.0000,  0.0000)
  34 In     3.377179    7.846070   15.487122    ( 0.0000,  0.0000,  0.0000)
  35 In     3.488632    5.931505   18.354706    ( 0.0000,  0.0000,  0.0000)
  36 O      1.701071    4.894124   19.106730    ( 0.0000,  0.0000,  0.0000)

Unit cell:
           periodic     x           y           z      points  spacing
  1. axis:    yes   10.177942    0.000000    0.000000    48     0.1836
  2. axis:    yes   -5.088971    8.814357    0.000000    48     0.1836
  3. axis:    no     0.000000    0.000000   28.310255   156     0.1815

  Lengths:  10.177942  10.177942  28.310255
  Angles:   90.000000  90.000000 120.000000

Effective grid spacing dv^(1/3) = 0.1919

     iter     time        total  log10-change:
                         energy  eigst   dens
iter:   1 21:37:57 -5694.584625  -2.30
iter:   2 21:38:23 -5694.581855  -3.32  -3.08
iter:   3 21:38:50 -5694.579872c -3.78  -3.15
iter:   4 21:39:17 -5694.578049c -3.87  -3.21
iter:   5 21:39:44 -5694.578202c -4.76  -3.51
iter:   6 21:40:11 -5694.578082c -4.51  -3.56
iter:   7 21:40:38 -5694.577874c -5.13  -3.72
iter:   8 21:41:04 -5694.577800c -5.45  -3.90
iter:   9 21:41:31 -5694.577826c -5.75  -4.02c
iter:  10 21:41:58 -5694.577817c -6.06  -4.24c
iter:  11 21:42:25 -5694.577825c -6.59  -4.32c
iter:  12 21:42:52 -5694.577829c -6.55  -4.39c
iter:  13 21:43:19 -5694.577831c -7.47c -4.67c

Converged after 13 iterations.

Dipole moment: (-2.257730, -16.346891, -0.113721) |e|*Ang

Energy contributions relative to reference atoms: (reference = -5761155.960066)

Kinetic:       +1219.102612
Potential:     -1137.423620
External:        +0.000000
XC:            -5779.552935
Entropy (-ST):   -0.590575
Local:           +3.591400
--------------------------
Free energy:   -5694.873119
Extrapolated:  -5694.577831

Showing only first 2 kpts
 Kpt  Band  Eigenvalues  Occupancy
  0   235     -4.26261    1.83661
  0   236     -4.08603    1.31569
  0   237     -4.01709    0.98216
  0   238     -3.99359    0.86550

  1   235     -4.16570    1.62012
  1   236     -4.11354    1.43366
  1   237     -4.09021    1.33439
  1   238     -4.06761    1.23053


Fermi level: -4.02066

No gap

Forces in eV/Ang:
  0 In   -0.02284    0.01319    0.07266
  1 In   -0.01270    0.00582    0.03461
  2 In    0.05045   -0.00888    0.03963
  3 In   -0.04470    0.02581   -0.02044
  4 In    0.03617   -0.01622    0.05613
  5 In    0.03336    0.00614   -0.06605
  6 In    0.00889    0.03847    0.04926
  7 In    0.02219    0.01126    0.01810
  8 In   -0.00020    0.01501    0.06641
  9 In    0.01086   -0.00627    0.04584
 10 In    0.01473   -0.00851    0.06336
 11 In    0.01260   -0.07974    0.00231
 12 In   -0.01310   -0.00733    0.06641
 13 In    0.01043    0.01357    0.03176
 14 In   -0.03647   -0.01658    0.05501
 15 In    0.07535    0.02896    0.00231
 16 In   -0.02387    0.03184    0.01268
 17 In   -0.01985    0.01146   -0.05833
 18 In    0.00036   -0.00021    0.07837
 19 In    0.00237    0.17180    0.12031
 20 In    0.03901   -0.02252    0.04184
 21 In    0.01136   -0.03196   -0.06605
 22 In   -0.02887   -0.02693    0.04926
 23 In    0.16778   -0.09687    0.13853
 24 In    0.03213   -0.02321    0.05613
 25 In   -0.01934    0.01117    0.01880
 26 In   -0.00872    0.00504   -0.04040
 27 In    0.00134   -0.02485    0.01810
 28 In   -0.01898    0.01096    0.03585
 29 In   -0.00654   -0.01581    0.03176
 30 In   -0.00388    0.03987    0.05501
 31 In   -0.01801    0.01040    0.01577
 32 In   -0.03951    0.00475    0.01268
 33 In   -0.01139    0.00809    0.03461
 34 In    0.03291   -0.03925    0.03963
 35 In   -0.14760   -0.08796    0.12031
 36 O    -0.02337    0.01350   -0.29190

BFGS:    4 21:43:27    -5694.577831        0.2931
System changes: positions 

Initializing position-dependent things.

Density initialized from wave functions
                                                  
                                                  
                                                  
                                                  
                                                  
                       O                          
           In      In       In                    
                     In                           
            IIn     In      InIn                  
               In       In      In                
              In       In      In                 
                 In      In      In               
               In       In      In                
                                                  
                  In      In      In              
                    In       In      In           
           In      In      In                     
                                                  
             In      In       In                  
               In       In      In                
                                                  
                                                  
                                                  
                                                  

Positions:
   0 In    -0.000000    0.000000   10.000000    ( 0.0000,  0.0000,  0.0000)
   1 In     1.696324    0.979373   12.770085    ( 0.0000,  0.0000,  0.0000)
   2 In    -0.018837    1.967942   15.485796    ( 0.0000,  0.0000,  0.0000)
   3 In    -0.025511    0.014729   18.306430    ( 0.0000,  0.0000,  0.0000)
   4 In    -1.696324    2.938119   10.000000    ( 0.0000,  0.0000,  0.0000)
   5 In     0.000000    3.917492   12.770085    ( 0.0000,  0.0000,  0.0000)
   6 In    -1.692135    4.871092   15.476507    ( 0.0000,  0.0000,  0.0000)
   7 In    -1.733641    2.914860   18.257704    ( 0.0000,  0.0000,  0.0000)
   8 In    -3.392647    5.876238   10.000000    ( 0.0000,  0.0000,  0.0000)
   9 In    -1.696324    6.855611   12.770085    ( 0.0000,  0.0000,  0.0000)
  10 In    -3.397958    7.838050   15.524777    ( 0.0000,  0.0000,  0.0000)
  11 In    -3.384963    5.837693   18.319068    ( 0.0000,  0.0000,  0.0000)
  12 In     3.392647    0.000000   10.000000    ( 0.0000,  0.0000,  0.0000)
  13 In     5.088971    0.979373   12.770085    ( 0.0000,  0.0000,  0.0000)
  14 In     3.406466    1.977209   15.477688    ( 0.0000,  0.0000,  0.0000)
  15 In     3.429870    0.012617   18.319068    ( 0.0000,  0.0000,  0.0000)
  16 In     1.696324    2.938119   10.000000    ( 0.0000,  0.0000,  0.0000)
  17 In     3.392647    3.917492   12.770085    ( 0.0000,  0.0000,  0.0000)
  18 In     1.699044    4.895294   15.421104    ( 0.0000,  0.0000,  0.0000)
  19 In     1.696623    2.811640   18.380496    ( 0.0000,  0.0000,  0.0000)
  20 In    -0.000000    5.876238   10.000000    ( 0.0000,  0.0000,  0.0000)
  21 In     1.696324    6.855611   12.770085    ( 0.0000,  0.0000,  0.0000)
  22 In     0.024414    7.844242   15.476507    ( 0.0000,  0.0000,  0.0000)
  23 In    -0.112617    5.941257   18.384869    ( 0.0000,  0.0000,  0.0000)
  24 In     6.785295    0.000000   10.000000    ( 0.0000,  0.0000,  0.0000)
  25 In     8.481619    0.979373   12.770085    ( 0.0000,  0.0000,  0.0000)
  26 In     6.789032    1.956588   15.507634    ( 0.0000,  0.0000,  0.0000)
  27 In     6.786779    0.043948   18.257704    ( 0.0000,  0.0000,  0.0000)
  28 In     5.088971    2.938119   10.000000    ( 0.0000,  0.0000,  0.0000)
  29 In     6.785295    3.917492   12.770085    ( 0.0000,  0.0000,  0.0000)
  30 In     5.079891    4.875666   15.477688    ( 0.0000,  0.0000,  0.0000)
  31 In     5.121591    2.919286   18.262126    ( 0.0000,  0.0000,  0.0000)
  32 In     3.392647    5.876238   10.000000    ( 0.0000,  0.0000,  0.0000)
  33 In     5.088971    6.855611   12.770085    ( 0.0000,  0.0000,  0.0000)
  34 In     3.375265    7.846699   15.485796    ( 0.0000,  0.0000,  0.0000)
  35 In     3.502331    5.939218   18.380496    ( 0.0000,  0.0000,  0.0000)
  36 O      1.700437    4.894490   19.054887    ( 0.0000,  0.0000,  0.0000)

Unit cell:
           periodic     x           y           z      points  spacing
  1. axis:    yes   10.177942    0.000000    0.000000    48     0.1836
  2. axis:    yes   -5.088971    8.814357    0.000000    48     0.1836
  3. axis:    no     0.000000    0.000000   28.310255   156     0.1815

  Lengths:  10.177942  10.177942  28.310255
  Angles:   90.000000  90.000000 120.000000

Effective grid spacing dv^(1/3) = 0.1919

     iter     time        total  log10-change:
                         energy  eigst   dens
iter:   1 21:44:15 -5694.607532  -1.98
iter:   2 21:44:42 -5694.600696  -3.01  -2.96
iter:   3 21:45:09 -5694.595026c -3.35  -3.00
iter:   4 21:45:36 -5694.591728c -3.62  -3.06
iter:   5 21:46:02 -5694.591780c -4.53  -3.34
iter:   6 21:46:29 -5694.591438c -4.15  -3.40
iter:   7 21:46:56 -5694.590954c -4.85  -3.55
iter:   8 21:47:23 -5694.590850c -5.12  -3.78
iter:   9 21:47:49 -5694.590874c -5.44  -3.89
iter:  10 21:48:16 -5694.590830c -5.67  -4.03c
iter:  11 21:48:43 -5694.590839c -6.05  -4.14c
iter:  12 21:49:10 -5694.590851c -6.14  -4.20c
iter:  13 21:49:37 -5694.590855c -6.97  -4.53c
iter:  14 21:50:04 -5694.590857c -7.24  -4.61c
iter:  15 21:50:31 -5694.590857c -6.96  -4.63c
iter:  16 21:50:57 -5694.590857c -7.39  -4.70c
iter:  17 21:51:24 -5694.590861c -7.22  -4.74c
iter:  18 21:51:51 -5694.590862c -7.66c -4.96c

Converged after 18 iterations.

Dipole moment: (-0.740902, -17.187720, -0.083527) |e|*Ang

Energy contributions relative to reference atoms: (reference = -5761155.960066)

Kinetic:       +1219.607833
Potential:     -1137.891301
External:        +0.000000
XC:            -5779.600661
Entropy (-ST):   -0.591081
Local:           +3.588807
--------------------------
Free energy:   -5694.886402
Extrapolated:  -5694.590862

Showing only first 2 kpts
 Kpt  Band  Eigenvalues  Occupancy
  0   235     -4.24865    1.83924
  0   236     -4.06831    1.30669
  0   237     -4.00550    1.00282
  0   238     -3.97551    0.85395

  1   235     -4.14965    1.61913
  1   236     -4.10320    1.45530
  1   237     -4.07456    1.33473
  1   238     -4.04532    1.19924


Fermi level: -4.00493

No gap

Forces in eV/Ang:
  0 In   -0.02211    0.01276    0.07594
  1 In   -0.01317    0.00638    0.03584
  2 In    0.06148   -0.01353    0.05057
  3 In   -0.05116    0.02953   -0.01442
  4 In    0.04167   -0.01327    0.06111
  5 In    0.02832    0.00203   -0.08045
  6 In    0.00809    0.04935    0.06269
  7 In    0.03850    0.01914    0.02161
  8 In   -0.00027    0.01648    0.06905
  9 In    0.01037   -0.00598    0.04730
 10 In    0.01799   -0.01039    0.05725
 11 In    0.01312   -0.07464    0.01579
 12 In   -0.01441   -0.00801    0.06905
 13 In    0.01286    0.01494    0.03071
 14 In   -0.04360   -0.02539    0.06935
 15 In    0.07120    0.02596    0.01579
 16 In   -0.02444    0.03060    0.01199
 17 In   -0.01477    0.00853   -0.07380
 18 In   -0.00137    0.00079    0.09016
 19 In    0.00265    0.15700    0.06792
 20 In    0.03923   -0.02265    0.04182
 21 In    0.01240   -0.02554   -0.08045
 22 In   -0.03869   -0.03168    0.06269
 23 In    0.16344   -0.09436    0.07878
 24 In    0.03233   -0.02946    0.06111
 25 In   -0.02157    0.01245    0.01785
 26 In   -0.01073    0.00620   -0.04835
 27 In    0.00267   -0.04291    0.02161
 28 In   -0.02395    0.01383    0.04047
 29 In   -0.00651   -0.01861    0.03071
 30 In    0.00019    0.05045    0.06935
 31 In   -0.03562    0.02057    0.02171
 32 In   -0.03872    0.00587    0.01199
 33 In   -0.01211    0.00821    0.03584
 34 In    0.04246   -0.04648    0.05057
 35 In   -0.13464   -0.08079    0.06792
 36 O    -0.03292    0.01901   -0.21892

BFGS:    5 21:52:00    -5694.590862        0.2222
System changes: positions 

Initializing position-dependent things.

Density initialized from wave functions
                                                  
                                                  
                                                  
                                                  
                                                  
                   In  O    In                    
           In                                     
             In      In       In                  
            In      In      In                    
               In       In      In                
              In       In      In                 
                 In      In      In               
               In       In      In                
                                                  
                  In      In      In              
                    In       In      In           
           In      In      In                     
                                                  
             In      In       In                  
               In       In      In                
                                                  
                                                  
                                                  
                                                  

Positions:
   0 In    -0.000000    0.000000   10.000000    ( 0.0000,  0.0000,  0.0000)
   1 In     1.696324    0.979373   12.770085    ( 0.0000,  0.0000,  0.0000)
   2 In    -0.017762    1.968544   15.486575    ( 0.0000,  0.0000,  0.0000)
   3 In    -0.033274    0.019211   18.310385    ( 0.0000,  0.0000,  0.0000)
   4 In    -1.696324    2.938119   10.000000    ( 0.0000,  0.0000,  0.0000)
   5 In     0.000000    3.917492   12.770085    ( 0.0000,  0.0000,  0.0000)
   6 In    -1.690885    4.870264   15.476647    ( 0.0000,  0.0000,  0.0000)
   7 In    -1.737634    2.912110   18.256921    ( 0.0000,  0.0000,  0.0000)
   8 In    -3.392647    5.876238   10.000000    ( 0.0000,  0.0000,  0.0000)
   9 In    -1.696324    6.855611   12.770085    ( 0.0000,  0.0000,  0.0000)
  10 In    -3.397611    7.837849   15.533246    ( 0.0000,  0.0000,  0.0000)
  11 In    -3.382759    5.825551   18.326573    ( 0.0000,  0.0000,  0.0000)
  12 In     3.392647    0.000000   10.000000    ( 0.0000,  0.0000,  0.0000)
  13 In     5.088971    0.979373   12.770085    ( 0.0000,  0.0000,  0.0000)
  14 In     3.405693    1.978593   15.478468    ( 0.0000,  0.0000,  0.0000)
  15 In     3.441488    0.016779   18.326573    ( 0.0000,  0.0000,  0.0000)
  16 In     1.696324    2.938119   10.000000    ( 0.0000,  0.0000,  0.0000)
  17 In     3.392647    3.917492   12.770085    ( 0.0000,  0.0000,  0.0000)
  18 In     1.699476    4.895045   15.414909    ( 0.0000,  0.0000,  0.0000)
  19 In     1.696884    2.806082   18.405895    ( 0.0000,  0.0000,  0.0000)
  20 In    -0.000000    5.876238   10.000000    ( 0.0000,  0.0000,  0.0000)
  21 In     1.696324    6.855611   12.770085    ( 0.0000,  0.0000,  0.0000)
  22 In     0.025756    7.843574   15.476647    ( 0.0000,  0.0000,  0.0000)
  23 In    -0.115999    5.943210   18.412228    ( 0.0000,  0.0000,  0.0000)
  24 In     6.785295    0.000000   10.000000    ( 0.0000,  0.0000,  0.0000)
  25 In     8.481619    0.979373   12.770085    ( 0.0000,  0.0000,  0.0000)
  26 In     6.788922    1.956652   15.505312    ( 0.0000,  0.0000,  0.0000)
  27 In     6.787164    0.048780   18.256921    ( 0.0000,  0.0000,  0.0000)
  28 In     5.088971    2.938119   10.000000    ( 0.0000,  0.0000,  0.0000)
  29 In     6.785295    3.917492   12.770085    ( 0.0000,  0.0000,  0.0000)
  30 In     5.078306    4.875643   15.478468    ( 0.0000,  0.0000,  0.0000)
  31 In     5.125096    2.917262   18.261871    ( 0.0000,  0.0000,  0.0000)
  32 In     3.392647    5.876238   10.000000    ( 0.0000,  0.0000,  0.0000)
  33 In     5.088971    6.855611   12.770085    ( 0.0000,  0.0000,  0.0000)
  34 In     3.375281    7.845467   15.486575    ( 0.0000,  0.0000,  0.0000)
  35 In     3.507275    5.941771   18.405895    ( 0.0000,  0.0000,  0.0000)
  36 O      1.698279    4.895736   18.999061    ( 0.0000,  0.0000,  0.0000)

Unit cell:
           periodic     x           y           z      points  spacing
  1. axis:    yes   10.177942    0.000000    0.000000    48     0.1836
  2. axis:    yes   -5.088971    8.814357    0.000000    48     0.1836
  3. axis:    no     0.000000    0.000000   28.310255   156     0.1815

  Lengths:  10.177942  10.177942  28.310255
  Angles:   90.000000  90.000000 120.000000

Effective grid spacing dv^(1/3) = 0.1919

     iter     time        total  log10-change:
                         energy  eigst   dens
iter:   1 21:52:48 -5694.624857  -2.00
iter:   2 21:53:14 -5694.613491  -3.05  -2.91
iter:   3 21:53:41 -5694.607149c -3.48  -2.96
iter:   4 21:54:08 -5694.601292c -3.59  -3.05
iter:   5 21:54:35 -5694.601338c -4.56  -3.32
iter:   6 21:55:02 -5694.600615c -4.11  -3.39
iter:   7 21:55:29 -5694.600118c -4.79  -3.56
iter:   8 21:55:55 -5694.600019c -5.16  -3.79
iter:   9 21:56:22 -5694.599995c -5.30  -3.90
iter:  10 21:56:49 -5694.599940c -5.58  -4.01c
iter:  11 21:57:16 -5694.599977c -5.77  -4.12c
iter:  12 21:57:43 -5694.599975c -6.42  -4.26c
iter:  13 21:58:09 -5694.599967c -7.00  -4.43c
iter:  14 21:58:36 -5694.599967c -6.93  -4.47c
iter:  15 21:59:03 -5694.599975c -6.82  -4.49c
iter:  16 21:59:30 -5694.599975c -7.29  -4.63c
iter:  17 21:59:57 -5694.599988c -7.10  -4.67c
iter:  18 22:00:23 -5694.599993c -7.65c -5.03c

Converged after 18 iterations.

Dipole moment: (0.696166, -17.990514, -0.050284) |e|*Ang

Energy contributions relative to reference atoms: (reference = -5761155.960066)

Kinetic:       +1220.665187
Potential:     -1138.821779
External:        +0.000000
XC:            -5779.733917
Entropy (-ST):   -0.592076
Local:           +3.586553
--------------------------
Free energy:   -5694.896031
Extrapolated:  -5694.599993

Showing only first 2 kpts
 Kpt  Band  Eigenvalues  Occupancy
  0   235     -4.23176    1.83927
  0   236     -4.05073    1.30366
  0   237     -3.99174    1.01862
  0   238     -3.95522    0.83745

  1   235     -4.13225    1.61762
  1   236     -4.09038    1.47136
  1   237     -4.05638    1.32910
  1   238     -4.02342    1.17519


Fermi level: -3.98802

No gap

Forces in eV/Ang:
  0 In   -0.02207    0.01274    0.07417
  1 In   -0.01303    0.00777    0.04016
  2 In    0.06714   -0.01471    0.05558
  3 In   -0.03685    0.02128   -0.00140
  4 In    0.04483   -0.01113    0.05994
  5 In    0.02588    0.00007   -0.08769
  6 In    0.01016    0.05749    0.07105
  7 In    0.04529    0.02102    0.01936
  8 In    0.00016    0.01721    0.06712
  9 In    0.01096   -0.00633    0.05118
 10 In    0.01754   -0.01013    0.05246
 11 In    0.00601   -0.03296    0.02698
 12 In   -0.01482   -0.00874    0.06712
 13 In    0.01160    0.01420    0.03475
 14 In   -0.04973   -0.02967    0.07721
 15 In    0.03155    0.01128    0.02698
 16 In   -0.02513    0.02792    0.00974
 17 In   -0.01199    0.00692   -0.08078
 18 In   -0.00211    0.00122    0.09188
 19 In    0.00191    0.05439   -0.02049
 20 In    0.03766   -0.02174    0.04022
 21 In    0.01288   -0.02244   -0.08769
 22 In   -0.04471   -0.03754    0.07105
 23 In    0.06008   -0.03469   -0.01271
 24 In    0.03205   -0.03326    0.05994
 25 In   -0.02030    0.01172    0.02234
 26 In   -0.01000    0.00577   -0.04688
 27 In    0.00444   -0.04973    0.01936
 28 In   -0.02624    0.01515    0.03918
 29 In   -0.00650   -0.01715    0.03475
 30 In    0.00084    0.05790    0.07721
 31 In   -0.04393    0.02536    0.02245
 32 In   -0.03674    0.00780    0.00974
 33 In   -0.01325    0.00740    0.04016
 34 In    0.04631   -0.05079    0.05558
 35 In   -0.04614   -0.02885   -0.02049
 36 O    -0.00496    0.00286   -0.05697

BFGS:    6 22:00:32    -5694.599993        0.0965
System changes: positions 

Initializing position-dependent things.

Density initialized from wave functions
                                                  
                                                  
                                                  
                                                  
                                                  
                       O                          
           In      In       In                    
             In      In       In                  
            In      In      In                    
               In       In      In                
              In       In      In                 
                 In      In      In               
               In       In      In                
                                                  
                  In      In      In              
                    In       In      In           
           In      In      In                     
                                                  
             In      In       In                  
               In       In      In                
                                                  
                                                  
                                                  
                                                  

Positions:
   0 In    -0.000000    0.000000   10.000000    ( 0.0000,  0.0000,  0.0000)
   1 In     1.696324    0.979373   12.770085    ( 0.0000,  0.0000,  0.0000)
   2 In    -0.014777    1.967626   15.489006    ( 0.0000,  0.0000,  0.0000)
   3 In    -0.033380    0.019272   18.308172    ( 0.0000,  0.0000,  0.0000)
   4 In    -1.696324    2.938119   10.000000    ( 0.0000,  0.0000,  0.0000)
   5 In     0.000000    3.917492   12.770085    ( 0.0000,  0.0000,  0.0000)
   6 In    -1.690813    4.873289   15.480012    ( 0.0000,  0.0000,  0.0000)
   7 In    -1.734563    2.913856   18.258365    ( 0.0000,  0.0000,  0.0000)
   8 In    -3.392647    5.876238   10.000000    ( 0.0000,  0.0000,  0.0000)
   9 In    -1.696324    6.855611   12.770085    ( 0.0000,  0.0000,  0.0000)
  10 In    -3.396782    7.837371   15.534002    ( 0.0000,  0.0000,  0.0000)
  11 In    -3.382837    5.825612   18.324429    ( 0.0000,  0.0000,  0.0000)
  12 In     3.392647    0.000000   10.000000    ( 0.0000,  0.0000,  0.0000)
  13 In     5.088971    0.979373   12.770085    ( 0.0000,  0.0000,  0.0000)
  14 In     3.403489    1.976799   15.481971    ( 0.0000,  0.0000,  0.0000)
  15 In     3.441396    0.016817   18.324429    ( 0.0000,  0.0000,  0.0000)
  16 In     1.696324    2.938119   10.000000    ( 0.0000,  0.0000,  0.0000)
  17 In     3.392647    3.917492   12.770085    ( 0.0000,  0.0000,  0.0000)
  18 In     1.699308    4.895142   15.422171    ( 0.0000,  0.0000,  0.0000)
  19 In     1.696952    2.817404   18.402065    ( 0.0000,  0.0000,  0.0000)
  20 In    -0.000000    5.876238   10.000000    ( 0.0000,  0.0000,  0.0000)
  21 In     1.696324    6.855611   12.770085    ( 0.0000,  0.0000,  0.0000)
  22 In     0.023173    7.841999   15.480012    ( 0.0000,  0.0000,  0.0000)
  23 In    -0.105375    5.937076   18.408630    ( 0.0000,  0.0000,  0.0000)
  24 In     6.785295    0.000000   10.000000    ( 0.0000,  0.0000,  0.0000)
  25 In     8.481619    0.979373   12.770085    ( 0.0000,  0.0000,  0.0000)
  26 In     6.788407    1.956949   15.503467    ( 0.0000,  0.0000,  0.0000)
  27 In     6.787187    0.045248   18.258365    ( 0.0000,  0.0000,  0.0000)
  28 In     5.088971    2.938119   10.000000    ( 0.0000,  0.0000,  0.0000)
  29 In     6.785295    3.917492   12.770085    ( 0.0000,  0.0000,  0.0000)
  30 In     5.078758    4.878449   15.481971    ( 0.0000,  0.0000,  0.0000)
  31 In     5.122360    2.918842   18.263070    ( 0.0000,  0.0000,  0.0000)
  32 In     3.392647    5.876238   10.000000    ( 0.0000,  0.0000,  0.0000)
  33 In     5.088971    6.855611   12.770085    ( 0.0000,  0.0000,  0.0000)
  34 In     3.377568    7.843341   15.489006    ( 0.0000,  0.0000,  0.0000)
  35 In     3.497504    5.936051   18.402065    ( 0.0000,  0.0000,  0.0000)
  36 O      1.697275    4.896315   19.001888    ( 0.0000,  0.0000,  0.0000)

Unit cell:
           periodic     x           y           z      points  spacing
  1. axis:    yes   10.177942    0.000000    0.000000    48     0.1836
  2. axis:    yes   -5.088971    8.814357    0.000000    48     0.1836
  3. axis:    no     0.000000    0.000000   28.310255   156     0.1815

  Lengths:  10.177942  10.177942  28.310255
  Angles:   90.000000  90.000000 120.000000

Effective grid spacing dv^(1/3) = 0.1919

     iter     time        total  log10-change:
                         energy  eigst   dens
iter:   1 22:01:20 -5694.607175  -2.92
iter:   2 22:01:47 -5694.605135  -3.89  -3.18
iter:   3 22:02:14 -5694.604271c -4.58  -3.27
iter:   4 22:02:40 -5694.603269c -4.56  -3.48
iter:   5 22:03:07 -5694.603289c -5.00  -3.72
iter:   6 22:03:34 -5694.603265c -5.39  -3.88
iter:   7 22:04:01 -5694.603208c -5.70  -3.99
iter:   8 22:04:27 -5694.603259c -5.69  -4.23c
iter:   9 22:04:54 -5694.603237c -6.40  -4.24c
iter:  10 22:05:21 -5694.603236c -6.58  -4.42c
iter:  11 22:05:48 -5694.603229c -6.97  -4.54c
iter:  12 22:06:15 -5694.603219c -7.23  -4.66c
iter:  13 22:06:41 -5694.603222c -7.25  -4.84c
iter:  14 22:07:08 -5694.603225c -7.92c -4.99c

Converged after 14 iterations.

Dipole moment: (0.425585, -17.854797, -0.049680) |e|*Ang

Energy contributions relative to reference atoms: (reference = -5761155.960066)

Kinetic:       +1221.245758
Potential:     -1139.300249
External:        +0.000000
XC:            -5779.836965
Entropy (-ST):   -0.592401
Local:           +3.584432
--------------------------
Free energy:   -5694.899425
Extrapolated:  -5694.603225

Showing only first 2 kpts
 Kpt  Band  Eigenvalues  Occupancy
  0   235     -4.22951    1.83778
  0   236     -4.04984    1.30527
  0   237     -3.98862    1.00926
  0   238     -3.95490    0.84198

  1   235     -4.13054    1.61621
  1   236     -4.08701    1.46304
  1   237     -4.05450    1.32627
  1   238     -4.02264    1.17743


Fermi level: -3.98677

No gap

Forces in eV/Ang:
  0 In   -0.02126    0.01228    0.07607
  1 In   -0.01275    0.00526    0.04062
  2 In    0.05829   -0.01193    0.05005
  3 In   -0.03187    0.01840    0.00024
  4 In    0.04498   -0.01034    0.06264
  5 In    0.02689    0.00145   -0.08127
  6 In    0.01095    0.05313    0.06679
  7 In    0.04025    0.01800    0.01820
  8 In    0.00069    0.01773    0.06898
  9 In    0.00967   -0.00558    0.05086
 10 In    0.01399   -0.00808    0.04445
 11 In    0.00852   -0.03049    0.02706
 12 In   -0.01501   -0.00946    0.06898
 13 In    0.00933    0.01258    0.03736
 14 In   -0.04610   -0.02642    0.07067
 15 In    0.03066    0.00787    0.02706
 16 In   -0.02496    0.02992    0.01304
 17 In   -0.01301    0.00751   -0.07245
 18 In   -0.00182    0.00105    0.08207
 19 In    0.00157   -0.07176   -0.02856
 20 In    0.03822   -0.02206    0.04340
 21 In    0.01219   -0.02401   -0.08127
 22 In   -0.04053   -0.03605    0.06679
 23 In   -0.06474    0.03738   -0.02458
 24 In    0.03144   -0.03379    0.06264
 25 In   -0.01788    0.01032    0.02481
 26 In   -0.00726    0.00419   -0.03646
 27 In    0.00453   -0.04386    0.01820
 28 In   -0.02640    0.01524    0.04181
 29 In   -0.00623   -0.01437    0.03736
 30 In   -0.00017    0.05313    0.07067
 31 In   -0.03696    0.02134    0.01867
 32 In   -0.03839    0.00665    0.01304
 33 In   -0.01093    0.00841    0.04062
 34 In    0.03948   -0.04452    0.05005
 35 In    0.06293    0.03452   -0.02856
 36 O     0.00911   -0.00526    0.01808

BFGS:    7 22:07:17    -5694.603225        0.0884
System changes: positions 

Initializing position-dependent things.

Density initialized from wave functions
                                                  
                                                  
                                                  
                                                  
                                                  
                      O                           
           In      In       In                    
             In      In       In                  
            In      In      In                    
               In       In      In                
              In       In      In                 
                 In      In      In               
               In       In      In                
                                                  
                  In      In      In              
                    In       In      In           
           In      In      In                     
                                                  
             In      In       In                  
               In       In      In                
                                                  
                                                  
                                                  
                                                  

Positions:
   0 In    -0.000000    0.000000   10.000000    ( 0.0000,  0.0000,  0.0000)
   1 In     1.696324    0.979373   12.770085    ( 0.0000,  0.0000,  0.0000)
   2 In    -0.012871    1.967084   15.490607    ( 0.0000,  0.0000,  0.0000)
   3 In    -0.033528    0.019357   18.307176    ( 0.0000,  0.0000,  0.0000)
   4 In    -1.696324    2.938119   10.000000    ( 0.0000,  0.0000,  0.0000)
   5 In     0.000000    3.917492   12.770085    ( 0.0000,  0.0000,  0.0000)
   6 In    -1.690681    4.875233   15.482244    ( 0.0000,  0.0000,  0.0000)
   7 In    -1.732645    2.914896   18.259210    ( 0.0000,  0.0000,  0.0000)
   8 In    -3.392647    5.876238   10.000000    ( 0.0000,  0.0000,  0.0000)
   9 In    -1.696324    6.855611   12.770085    ( 0.0000,  0.0000,  0.0000)
  10 In    -3.396289    7.837086   15.534525    ( 0.0000,  0.0000,  0.0000)
  11 In    -3.382832    5.825742   18.323697    ( 0.0000,  0.0000,  0.0000)
  12 In     3.392647    0.000000   10.000000    ( 0.0000,  0.0000,  0.0000)
  13 In     5.088971    0.979373   12.770085    ( 0.0000,  0.0000,  0.0000)
  14 In     3.402029    1.975679   15.484276    ( 0.0000,  0.0000,  0.0000)
  15 In     3.441286    0.016748   18.323697    ( 0.0000,  0.0000,  0.0000)
  16 In     1.696324    2.938119   10.000000    ( 0.0000,  0.0000,  0.0000)
  17 In     3.392647    3.917492   12.770085    ( 0.0000,  0.0000,  0.0000)
  18 In     1.699199    4.895205   15.426356    ( 0.0000,  0.0000,  0.0000)
  19 In     1.696988    2.820481   18.399013    ( 0.0000,  0.0000,  0.0000)
  20 In    -0.000000    5.876238   10.000000    ( 0.0000,  0.0000,  0.0000)
  21 In     1.696324    6.855611   12.770085    ( 0.0000,  0.0000,  0.0000)
  22 In     0.021555    7.840913   15.482244    ( 0.0000,  0.0000,  0.0000)
  23 In    -0.102547    5.935443   18.405619    ( 0.0000,  0.0000,  0.0000)
  24 In     6.785295    0.000000   10.000000    ( 0.0000,  0.0000,  0.0000)
  25 In     8.481619    0.979373   12.770085    ( 0.0000,  0.0000,  0.0000)
  26 In     6.788119    1.957116   15.502370    ( 0.0000,  0.0000,  0.0000)
  27 In     6.787246    0.043066   18.259210    ( 0.0000,  0.0000,  0.0000)
  28 In     5.088971    2.938119   10.000000    ( 0.0000,  0.0000,  0.0000)
  29 In     6.785295    3.917492   12.770085    ( 0.0000,  0.0000,  0.0000)
  30 In     5.078998    4.880274   15.484276    ( 0.0000,  0.0000,  0.0000)
  31 In     5.120642    2.919834   18.263800    ( 0.0000,  0.0000,  0.0000)
  32 In     3.392647    5.876238   10.000000    ( 0.0000,  0.0000,  0.0000)
  33 In     5.088971    6.855611   12.770085    ( 0.0000,  0.0000,  0.0000)
  34 In     3.378991    7.841961   15.490607    ( 0.0000,  0.0000,  0.0000)
  35 In     3.494857    5.934481   18.399013    ( 0.0000,  0.0000,  0.0000)
  36 O      1.697149    4.896388   19.005990    ( 0.0000,  0.0000,  0.0000)

Unit cell:
           periodic     x           y           z      points  spacing
  1. axis:    yes   10.177942    0.000000    0.000000    48     0.1836
  2. axis:    yes   -5.088971    8.814357    0.000000    48     0.1836
  3. axis:    no     0.000000    0.000000   28.310255   156     0.1815

  Lengths:  10.177942  10.177942  28.310255
  Angles:   90.000000  90.000000 120.000000

Effective grid spacing dv^(1/3) = 0.1919

     iter     time        total  log10-change:
                         energy  eigst   dens
iter:   1 22:08:05 -5694.606041  -3.56
iter:   2 22:08:32 -5694.605209  -4.55  -3.41
iter:   3 22:08:58 -5694.604933c -5.28  -3.55
iter:   4 22:09:25 -5694.604550c -5.11  -3.73
iter:   5 22:09:52 -5694.604589c -5.53  -4.03c
iter:   6 22:10:19 -5694.604582c -5.86  -4.23c
iter:   7 22:10:46 -5694.604593c -6.40  -4.34c
iter:   8 22:11:12 -5694.604611c -6.64  -4.55c
iter:   9 22:11:39 -5694.604587c -7.02  -4.59c
iter:  10 22:12:06 -5694.604587c -7.37  -4.83c
iter:  11 22:12:33 -5694.604591c -8.10c -4.94c

Converged after 11 iterations.

Dipole moment: (0.256632, -17.769665, -0.051808) |e|*Ang

Energy contributions relative to reference atoms: (reference = -5761155.960066)

Kinetic:       +1221.240762
Potential:     -1139.289543
External:        +0.000000
XC:            -5779.843028
Entropy (-ST):   -0.592547
Local:           +3.583491
--------------------------
Free energy:   -5694.900865
Extrapolated:  -5694.604591

Showing only first 2 kpts
 Kpt  Band  Eigenvalues  Occupancy
  0   235     -4.23035    1.83734
  0   236     -4.05076    1.30433
  0   237     -3.98905    1.00572
  0   238     -3.95670    0.84523

  1   235     -4.13152    1.61570
  1   236     -4.08739    1.46007
  1   237     -4.05534    1.32496
  1   238     -4.02440    1.18046


Fermi level: -3.98791

No gap

Forces in eV/Ang:
  0 In   -0.02333    0.01347    0.07537
  1 In   -0.01272    0.00414    0.04250
  2 In    0.04942   -0.00950    0.04283
  3 In   -0.02608    0.01506    0.00692
  4 In    0.04186   -0.01251    0.06118
  5 In    0.02579    0.00131   -0.07227
  6 In    0.01086    0.04797    0.06004
  7 In    0.03081    0.01261    0.01529
  8 In    0.00045    0.01549    0.06817
  9 In    0.00924   -0.00534    0.05294
 10 In    0.01199   -0.00692    0.04087
 11 In    0.00950   -0.02567    0.03373
 12 In   -0.01319   -0.00813    0.06817
 13 In    0.00837    0.01189    0.03862
 14 In   -0.04139   -0.02243    0.06172
 15 In    0.02698    0.00461    0.03373
 16 In   -0.02488    0.02945    0.01067
 17 In   -0.01192    0.00688   -0.06228
 18 In   -0.00090    0.00052    0.07265
 19 In    0.00204   -0.09072   -0.02589
 20 In    0.03774   -0.02179    0.04097
 21 In    0.01175   -0.02299   -0.07227
 22 In   -0.03611   -0.03339    0.06004
 23 In   -0.08391    0.04845   -0.02452
 24 In    0.03177   -0.03000    0.06118
 25 In   -0.01681    0.00970    0.02567
 26 In   -0.00487    0.00281   -0.02820
 27 In    0.00448   -0.03299    0.01529
 28 In   -0.02335    0.01348    0.04031
 29 In   -0.00611   -0.01320    0.03862
 30 In   -0.00127    0.04706    0.06172
 31 In   -0.02704    0.01561    0.01572
 32 In   -0.03794    0.00682    0.01067
 33 In   -0.00995    0.00894    0.04250
 34 In    0.03294   -0.03805    0.04283
 35 In    0.07959    0.04359   -0.02589
 36 O     0.01045   -0.00603    0.01026

BFGS:    8 22:12:42    -5694.604591        0.0999
System changes: positions 

Initializing position-dependent things.

Density initialized from wave functions
                                                  
                                                  
                                                  
                                                  
                                                  
                      O                           
           In      In       In                    
             In      In       In                  
            In      In      In                    
               In       In      In                
              In       In      In                 
                 In      In      In               
               In       In      In                
                                                  
                  In      In      In              
                    In       In      In           
           In      In      In                     
                                                  
             In      In       In                  
               In       In      In                
                                                  
                                                  
                                                  
                                                  

Positions:
   0 In    -0.000000    0.000000   10.000000    ( 0.0000,  0.0000,  0.0000)
   1 In     1.696324    0.979373   12.770085    ( 0.0000,  0.0000,  0.0000)
   2 In    -0.005702    1.965463   15.496654    ( 0.0000,  0.0000,  0.0000)
   3 In    -0.036889    0.021298   18.306117    ( 0.0000,  0.0000,  0.0000)
   4 In    -1.696324    2.938119   10.000000    ( 0.0000,  0.0000,  0.0000)
   5 In     0.000000    3.917492   12.770085    ( 0.0000,  0.0000,  0.0000)
   6 In    -1.689574    4.881957   15.490447    ( 0.0000,  0.0000,  0.0000)
   7 In    -1.727502    2.917350   18.261748    ( 0.0000,  0.0000,  0.0000)
   8 In    -3.392647    5.876238   10.000000    ( 0.0000,  0.0000,  0.0000)
   9 In    -1.696324    6.855611   12.770085    ( 0.0000,  0.0000,  0.0000)
  10 In    -3.394456    7.836028   15.539652    ( 0.0000,  0.0000,  0.0000)
  11 In    -3.381910    5.822193   18.325361    ( 0.0000,  0.0000,  0.0000)
  12 In     3.392647    0.000000   10.000000    ( 0.0000,  0.0000,  0.0000)
  13 In     5.088971    0.979373   12.770085    ( 0.0000,  0.0000,  0.0000)
  14 In     3.396406    1.972245   15.492896    ( 0.0000,  0.0000,  0.0000)
  15 In     3.444820    0.017723   18.325361    ( 0.0000,  0.0000,  0.0000)
  16 In     1.696324    2.938119   10.000000    ( 0.0000,  0.0000,  0.0000)
  17 In     3.392647    3.917492   12.770085    ( 0.0000,  0.0000,  0.0000)
  18 In     1.698992    4.895324   15.438292    ( 0.0000,  0.0000,  0.0000)
  19 In     1.697228    2.822565   18.396082    ( 0.0000,  0.0000,  0.0000)
  20 In    -0.000000    5.876238   10.000000    ( 0.0000,  0.0000,  0.0000)
  21 In     1.696324    6.855611   12.770085    ( 0.0000,  0.0000,  0.0000)
  22 In     0.016285    7.836592   15.490447    ( 0.0000,  0.0000,  0.0000)
  23 In    -0.100234    5.934108   18.403305    ( 0.0000,  0.0000,  0.0000)
  24 In     6.785295    0.000000   10.000000    ( 0.0000,  0.0000,  0.0000)
  25 In     8.481619    0.979373   12.770085    ( 0.0000,  0.0000,  0.0000)
  26 In     6.787164    1.957667   15.497842    ( 0.0000,  0.0000,  0.0000)
  27 In     6.787693    0.037386   18.261748    ( 0.0000,  0.0000,  0.0000)
  28 In     5.088971    2.938119   10.000000    ( 0.0000,  0.0000,  0.0000)
  29 In     6.785295    3.917492   12.770085    ( 0.0000,  0.0000,  0.0000)
[...]
  14 In     3.390392    1.968953   15.504083    ( 0.0000,  0.0000,  0.0000)
  15 In     3.449523    0.018690   18.344523    ( 0.0000,  0.0000,  0.0000)
  16 In     1.696324    2.938119   10.000000    ( 0.0000,  0.0000,  0.0000)
  17 In     3.392647    3.917492   12.770085    ( 0.0000,  0.0000,  0.0000)
  18 In     1.699398    4.895090   15.454671    ( 0.0000,  0.0000,  0.0000)
  19 In     1.697873    2.805328   18.404398    ( 0.0000,  0.0000,  0.0000)
  20 In    -0.000000    5.876238   10.000000    ( 0.0000,  0.0000,  0.0000)
  21 In     1.696324    6.855611   12.770085    ( 0.0000,  0.0000,  0.0000)
  22 In     0.010572    7.830763   15.501815    ( 0.0000,  0.0000,  0.0000)
  23 In    -0.114715    5.942469   18.413077    ( 0.0000,  0.0000,  0.0000)
  24 In     6.785295    0.000000   10.000000    ( 0.0000,  0.0000,  0.0000)
  25 In     8.481619    0.979373   12.770085    ( 0.0000,  0.0000,  0.0000)
  26 In     6.786865    1.957840   15.494382    ( 0.0000,  0.0000,  0.0000)
  27 In     6.789230    0.035680   18.263638    ( 0.0000,  0.0000,  0.0000)
  28 In     5.088971    2.938119   10.000000    ( 0.0000,  0.0000,  0.0000)
  29 In     6.785295    3.917492   12.770085    ( 0.0000,  0.0000,  0.0000)
  30 In     5.079003    4.893715   15.504083    ( 0.0000,  0.0000,  0.0000)
  31 In     5.115400    2.922860   18.268533    ( 0.0000,  0.0000,  0.0000)
  32 In     3.392647    5.876238   10.000000    ( 0.0000,  0.0000,  0.0000)
  33 In     5.088971    6.855611   12.770085    ( 0.0000,  0.0000,  0.0000)
  34 In     3.388281    7.831466   15.504058    ( 0.0000,  0.0000,  0.0000)
  35 In     3.508422    5.941291   18.404398    ( 0.0000,  0.0000,  0.0000)
  36 O      1.697509    4.896180   18.978911    ( 0.0000,  0.0000,  0.0000)

Unit cell:
           periodic     x           y           z      points  spacing
  1. axis:    yes   10.177942    0.000000    0.000000    48     0.1836
  2. axis:    yes   -5.088971    8.814357    0.000000    48     0.1836
  3. axis:    no     0.000000    0.000000   28.310255   156     0.1815

  Lengths:  10.177942  10.177942  28.310255
  Angles:   90.000000  90.000000 120.000000

Effective grid spacing dv^(1/3) = 0.1919

     iter     time        total  log10-change:
                         energy  eigst   dens
iter:   1 22:48:34 -5694.616278  -4.01
iter:   2 22:49:01 -5694.615901  -5.05  -3.73
iter:   3 22:49:27 -5694.615769c -5.67  -3.96
iter:   4 22:49:54 -5694.615714c -6.12  -4.19c
iter:   5 22:50:21 -5694.615726c -6.29  -4.32c
iter:   6 22:50:47 -5694.615705c -6.56  -4.57c
iter:   7 22:51:14 -5694.615702c -7.13  -4.68c
iter:   8 22:51:41 -5694.615705c -7.58c -4.92c

Converged after 8 iterations.

Dipole moment: (0.703558, -18.075908, -0.048221) |e|*Ang

Energy contributions relative to reference atoms: (reference = -5761155.960066)

Kinetic:       +1220.046427
Potential:     -1138.366781
External:        +0.000000
XC:            -5779.582870
Entropy (-ST):   -0.595472
Local:           +3.585256
--------------------------
Free energy:   -5694.913441
Extrapolated:  -5694.615705

Showing only first 2 kpts
 Kpt  Band  Eigenvalues  Occupancy
  0   235     -4.23182    1.83889
  0   236     -4.04461    1.27418
  0   237     -3.99117    1.01416
  0   238     -3.96114    0.86484

  1   235     -4.13245    1.61726
  1   236     -4.09206    1.47664
  1   237     -4.05087    1.30287
  1   238     -4.02640    1.18806


Fermi level: -3.98834

No gap

Forces in eV/Ang:
  0 In   -0.02645    0.01527    0.07397
  1 In   -0.01173    0.00397    0.06002
  2 In   -0.00342   -0.00300    0.00335
  3 In   -0.00201    0.00116    0.02433
  4 In    0.04051   -0.01421    0.05926
  5 In    0.02822    0.00511   -0.03967
  6 In   -0.00447    0.00581    0.01186
  7 In   -0.00002   -0.00073    0.00412
  8 In    0.00053    0.01300    0.06635
  9 In    0.01100   -0.00635    0.06790
 10 In   -0.00140    0.00081    0.00875
 11 In   -0.00125    0.01372    0.04987
 12 In   -0.01099   -0.00696    0.06635
 13 In    0.00313    0.00740    0.06223
 14 In    0.00083   -0.00707    0.00768
 15 In   -0.01251   -0.00578    0.04987
 16 In   -0.02563    0.02676    0.00802
 17 In   -0.01389    0.00802   -0.02331
 18 In    0.00169   -0.00098    0.02976
 19 In    0.00070    0.00549   -0.00200
 20 In    0.03513   -0.02028    0.03871
 21 In    0.00969   -0.02699   -0.03967
 22 In   -0.00726    0.00097    0.01186
 23 In    0.00394   -0.00227    0.00144
 24 In    0.03256   -0.02797    0.05926
 25 In   -0.01246    0.00719    0.04395
 26 In    0.00082   -0.00048    0.00392
 27 In    0.00062    0.00038    0.00412
 28 In   -0.02131    0.01230    0.03707
 29 In   -0.00485   -0.00641    0.06223
 30 In    0.00654    0.00282    0.00768
 31 In    0.00684   -0.00395    0.00429
 32 In   -0.03599    0.00882    0.00802
 33 In   -0.00930    0.00817    0.06002
 34 In    0.00089    0.00447    0.00335
 35 In   -0.00440   -0.00335   -0.00200
 36 O     0.00196   -0.00113   -0.01308

BFGS:   15 22:51:49    -5694.615705        0.0517
System changes: positions 

Initializing position-dependent things.

Density initialized from wave functions
                                                  
                                                  
                                                  
                                                  
                                                  
                   In O     In                    
           In                                     
             In      In       In                  
            In      In      In                    
               In       In      In                
              In       In      In                 
                 In      In      In               
               In       In      In                
                                                  
                  In      In      In              
                    In       In      In           
           In      In      In                     
                                                  
             In      In       In                  
               In       In      In                
                                                  
                                                  
                                                  
                                                  

Positions:
   0 In    -0.000000    0.000000   10.000000    ( 0.0000,  0.0000,  0.0000)
   1 In     1.696324    0.979373   12.770085    ( 0.0000,  0.0000,  0.0000)
   2 In    -0.001890    1.964008   15.505454    ( 0.0000,  0.0000,  0.0000)
   3 In    -0.040245    0.023235   18.329917    ( 0.0000,  0.0000,  0.0000)
   4 In    -1.696324    2.938119   10.000000    ( 0.0000,  0.0000,  0.0000)
   5 In     0.000000    3.917492   12.770085    ( 0.0000,  0.0000,  0.0000)
   6 In    -1.687744    4.892603   15.507558    ( 0.0000,  0.0000,  0.0000)
   7 In    -1.727026    2.914226   18.264353    ( 0.0000,  0.0000,  0.0000)
   8 In    -3.392647    5.876238   10.000000    ( 0.0000,  0.0000,  0.0000)
   9 In    -1.696324    6.855611   12.770085    ( 0.0000,  0.0000,  0.0000)
  10 In    -3.391370    7.834246   15.557440    ( 0.0000,  0.0000,  0.0000)
  11 In    -3.381698    5.826414   18.369912    ( 0.0000,  0.0000,  0.0000)
  12 In     3.392647    0.000000   10.000000    ( 0.0000,  0.0000,  0.0000)
  13 In     5.088971    0.979373   12.770085    ( 0.0000,  0.0000,  0.0000)
  14 In     3.391248    1.967189   15.508034    ( 0.0000,  0.0000,  0.0000)
  15 In     3.441270    0.015429   18.369912    ( 0.0000,  0.0000,  0.0000)
  16 In     1.696324    2.938119   10.000000    ( 0.0000,  0.0000,  0.0000)
  17 In     3.392647    3.917492   12.770085    ( 0.0000,  0.0000,  0.0000)
  18 In     1.700258    4.894594   15.472623    ( 0.0000,  0.0000,  0.0000)
  19 In     1.698497    2.802058   18.407338    ( 0.0000,  0.0000,  0.0000)
  20 In    -0.000000    5.876238   10.000000    ( 0.0000,  0.0000,  0.0000)
  21 In     1.696324    6.855611   12.770085    ( 0.0000,  0.0000,  0.0000)
  22 In     0.007981    7.829685   15.507558    ( 0.0000,  0.0000,  0.0000)
  23 In    -0.116700    5.943614   18.417090    ( 0.0000,  0.0000,  0.0000)
  24 In     6.785295    0.000000   10.000000    ( 0.0000,  0.0000,  0.0000)
  25 In     8.481619    0.979373   12.770085    ( 0.0000,  0.0000,  0.0000)
  26 In     6.787903    1.957240   15.497994    ( 0.0000,  0.0000,  0.0000)
  27 In     6.790636    0.038536   18.264353    ( 0.0000,  0.0000,  0.0000)
  28 In     5.088971    2.938119   10.000000    ( 0.0000,  0.0000,  0.0000)
  29 In     6.785295    3.917492   12.770085    ( 0.0000,  0.0000,  0.0000)
  30 In     5.080960    4.893855   15.508034    ( 0.0000,  0.0000,  0.0000)
  31 In     5.120291    2.920036   18.269240    ( 0.0000,  0.0000,  0.0000)
  32 In     3.392647    5.876238   10.000000    ( 0.0000,  0.0000,  0.0000)
  33 In     5.088971    6.855611   12.770085    ( 0.0000,  0.0000,  0.0000)
  34 In     3.387145    7.833989   15.505454    ( 0.0000,  0.0000,  0.0000)
  35 In     3.511566    5.942386   18.407338    ( 0.0000,  0.0000,  0.0000)
  36 O      1.697294    4.896304   18.970645    ( 0.0000,  0.0000,  0.0000)

Unit cell:
           periodic     x           y           z      points  spacing
  1. axis:    yes   10.177942    0.000000    0.000000    48     0.1836
  2. axis:    yes   -5.088971    8.814357    0.000000    48     0.1836
  3. axis:    no     0.000000    0.000000   28.310255   156     0.1815

  Lengths:  10.177942  10.177942  28.310255
  Angles:   90.000000  90.000000 120.000000

Effective grid spacing dv^(1/3) = 0.1919

     iter     time        total  log10-change:
                         energy  eigst   dens
iter:   1 22:52:37 -5694.628843  -2.45
iter:   2 22:53:04 -5694.620770  -3.50  -2.93
iter:   3 22:53:31 -5694.618135c -4.03  -3.19
iter:   4 22:53:57 -5694.617862c -4.64  -3.46
iter:   5 22:54:24 -5694.617893c -4.83  -3.54
iter:   6 22:54:51 -5694.617797c -4.93  -3.75
iter:   7 22:55:17 -5694.617820c -5.58  -3.89
iter:   8 22:55:44 -5694.617853c -6.03  -4.12c
iter:   9 22:56:10 -5694.617856c -6.05  -4.18c
iter:  10 22:56:37 -5694.617854c -6.39  -4.41c
iter:  11 22:57:04 -5694.617855c -7.09  -4.49c
iter:  12 22:57:30 -5694.617850c -7.41c -4.53c

Converged after 12 iterations.

Dipole moment: (0.492657, -17.950714, -0.043244) |e|*Ang

Energy contributions relative to reference atoms: (reference = -5761155.960066)

Kinetic:       +1219.346884
Potential:     -1137.836528
External:        +0.000000
XC:            -5779.415696
Entropy (-ST):   -0.597162
Local:           +3.586070
--------------------------
Free energy:   -5694.916432
Extrapolated:  -5694.617850

Showing only first 2 kpts
 Kpt  Band  Eigenvalues  Occupancy
  0   235     -4.23182    1.84036
  0   236     -4.04128    1.26337
  0   237     -3.98977    1.01214
  0   238     -3.96522    0.88983

  1   235     -4.13362    1.62391
  1   236     -4.09344    1.48575
  1   237     -4.04566    1.28360
  1   238     -4.02738    1.19755


Fermi level: -3.98734

No gap

Forces in eV/Ang:
  0 In   -0.02620    0.01513    0.08033
  1 In   -0.00940    0.00024    0.06214
  2 In    0.00504   -0.00299    0.00816
  3 In   -0.02533    0.01462    0.03590
  4 In    0.04311   -0.01207    0.06256
  5 In    0.03033    0.00872   -0.02696
  6 In   -0.00944   -0.00201    0.01254
  7 In    0.01378    0.01325    0.00681
  8 In   -0.00005    0.01266    0.07309
  9 In    0.00840   -0.00485    0.07009
 10 In   -0.00492    0.00284    0.01822
 11 In   -0.00260    0.00219    0.03113
 12 In   -0.01099   -0.00628    0.07309
 13 In    0.00360    0.00771    0.06780
 14 In    0.00082   -0.00740    0.01060
 15 In   -0.00320    0.00116    0.03113
 16 In   -0.02560    0.02804    0.00895
 17 In   -0.01417    0.00818   -0.01140
 18 In   -0.00148    0.00085    0.00792
 19 In   -0.00106    0.01156   -0.00180
 20 In    0.03664   -0.02115    0.03812
 21 In    0.00761   -0.03063   -0.02696
 22 In   -0.00298    0.00918    0.01254
 23 In    0.00045   -0.00026   -0.00200
 24 In    0.03201   -0.03130    0.06256
 25 In   -0.01533    0.00885    0.04325
 26 In   -0.00433    0.00250   -0.01886
 27 In   -0.00458   -0.01855    0.00681
 28 In   -0.02535    0.01464    0.04079
 29 In   -0.00488   -0.00697    0.06780
 30 In    0.00682    0.00299    0.01060
 31 In   -0.00900    0.00519    0.00925
 32 In   -0.03708    0.00815    0.00895
 33 In   -0.00491    0.00802    0.06214
 34 In    0.00511   -0.00287    0.00816
 35 In   -0.01055   -0.00486   -0.00180
 36 O     0.00823   -0.00475    0.02639

BFGS:   16 22:57:39    -5694.617850        0.0463
Timing:                                      incl.     excl.
-------------------------------------------------------------------
Density initialized from wave functions:     1.633     0.873   0.0% |
 Symmetrize density:                         0.760     0.760   0.0% |
Forces:                                    146.677   146.677   2.1% ||
Hamiltonian:                                71.946     0.002   0.0% |
 Atomic:                                     0.004     0.004   0.0% |
  XC Correction:                             0.000     0.000   0.0% |
 Calculate atomic Hamiltonians:              0.005     0.005   0.0% |
 Communicate:                                3.275     3.275   0.0% |
 Hartree integrate/restrict:                 0.071     0.071   0.0% |
 Initialize Hamiltonian:                     0.000     0.000   0.0% |
 Poisson:                                    1.453     0.048   0.0% |
  Communicate from 1D:                       0.250     0.250   0.0% |
  Communicate from 2D:                       0.213     0.213   0.0% |
  Communicate to 1D:                         0.207     0.207   0.0% |
  Communicate to 2D:                         0.268     0.268   0.0% |
  FFT 1D:                                    0.226     0.226   0.0% |
  FFT 2D:                                    0.241     0.241   0.0% |
 XC 3D grid:                                66.903     5.864   0.1% |
  VdW-DF integral:                          61.039     0.699   0.0% |
   Convolution:                              7.465     7.465   0.1% |
   FFT:                                      4.042     4.042   0.1% |
   gather:                                  16.727    16.727   0.2% |
   hmm1:                                     1.190     1.190   0.0% |
   hmm2:                                     2.362     2.362   0.0% |
   iFFT:                                     4.247     4.247   0.1% |
   potential:                               19.481     0.301   0.0% |
    collect:                                 1.806     1.806   0.0% |
    p1:                                     11.440    11.440   0.2% |
    p2:                                      3.793     3.793   0.1% |
    sum:                                     2.141     2.141   0.0% |
   splines:                                  4.827     4.827   0.1% |
 vbar:                                       0.233     0.233   0.0% |
LCAO initialization:                        15.261     0.906   0.0% |
 LCAO eigensolver:                           4.497     0.013   0.0% |
  Calculate projections:                     0.000     0.000   0.0% |
  DenseAtomicCorrection:                     0.000     0.000   0.0% |
  Distribute overlap matrix:                 2.880     2.880   0.0% |
  Orbital Layouts:                           1.446     1.446   0.0% |
  Potential matrix:                          0.010     0.010   0.0% |
  Sum over cells:                            0.147     0.147   0.0% |
 LCAO to grid:                               9.081     9.081   0.1% |
 Set positions (LCAO WFS):                   0.776     0.636   0.0% |
  Basic WFS set positions:                   0.002     0.002   0.0% |
  Basis functions set positions:             0.000     0.000   0.0% |
  P tci:                                     0.001     0.001   0.0% |
  ST tci:                                    0.089     0.089   0.0% |
  mktci:                                     0.048     0.048   0.0% |
Redistribute:                                0.014     0.014   0.0% |
SCF-cycle:                                6426.742     0.539   0.0% |
 Davidson:                                5501.836  1150.337  16.5% |------|
  Apply hamiltonian:                       186.205   186.205   2.7% ||
  Subspace diag:                           797.969     0.103   0.0% |
   calc_h_matrix:                          395.482   211.495   3.0% ||
    Apply hamiltonian:                     183.987   183.987   2.6% ||
   diagonalize:                             25.117    25.117   0.4% |
   rotate_psi:                             377.268   377.268   5.4% |-|
  calc. matrices:                         2385.607  1400.183  20.1% |-------|
   Apply hamiltonian:                      985.424   985.424  14.2% |-----|
  diagonalize:                             216.379   216.379   3.1% ||
  rotate_psi:                              765.339   765.339  11.0% |---|
 Density:                                   23.020     0.006   0.0% |
  Atomic density matrices:                   0.931     0.931   0.0% |
  Mix:                                       1.480     1.480   0.0% |
  Multipole moments:                         0.044     0.044   0.0% |
  Pseudo density:                           20.561     9.818   0.1% |
   Symmetrize density:                      10.743    10.743   0.2% |
 Hamiltonian:                              857.086     0.027   0.0% |
  Atomic:                                    0.058     0.058   0.0% |
   XC Correction:                            0.001     0.001   0.0% |
  Calculate atomic Hamiltonians:             0.070     0.070   0.0% |
  Communicate:                              36.036    36.036   0.5% |
  Hartree integrate/restrict:                0.940     0.940   0.0% |
  Poisson:                                  19.120     0.589   0.0% |
   Communicate from 1D:                      3.302     3.302   0.0% |
   Communicate from 2D:                      2.811     2.811   0.0% |
   Communicate to 1D:                        2.721     2.721   0.0% |
   Communicate to 2D:                        3.521     3.521   0.1% |
   FFT 1D:                                   2.978     2.978   0.0% |
   FFT 2D:                                   3.198     3.198   0.0% |
  XC 3D grid:                              800.584    76.232   1.1% |
   VdW-DF integral:                        724.352     9.220   0.1% |
    Convolution:                            97.522    97.522   1.4% ||
    FFT:                                    55.433    55.433   0.8% |
    gather:                                210.233   210.233   3.0% ||
    hmm1:                                   15.412    15.412   0.2% |
    hmm2:                                   31.407    31.407   0.5% |
    iFFT:                                   55.430    55.430   0.8% |
    potential:                             249.694     4.108   0.1% |
     collect:                               22.979    22.979   0.3% |
     p1:                                   149.652   149.652   2.1% ||
     p2:                                    48.727    48.727   0.7% |
     sum:                                   24.228    24.228   0.3% |
    splines:                                 0.001     0.001   0.0% |
  vbar:                                      0.251     0.251   0.0% |
 Orthonormalize:                            44.259     0.009   0.0% |
  calc_s_matrix:                             6.340     6.340   0.1% |
  inverse-cholesky:                         23.859    23.859   0.3% |
  projections:                               0.003     0.003   0.0% |
  rotate_psi_s:                             14.049    14.049   0.2% |
Set symmetry:                                0.002     0.002   0.0% |
Other:                                     299.473   299.473   4.3% |-|
-------------------------------------------------------------------
Total:                                              6961.748 100.0%

Memory usage: 1.74 GiB
Date: Wed Sep 27 22:57:39 2023
