
  ___ ___ ___ _ _ _  
 |   |   |_  | | | | 
 | | | | | . | | | | 
 |__ |  _|___|_____|  22.8.0
 |___|_|             

User:   s204775@c193.nifl.fysik.dtu.dk
Date:   Wed Sep 27 22:11:33 2023
Arch:   x86_64
Pid:    11692
CWD:    /home/cat/s204775/projects/Bachelor_project/O_missing_features
Python: 3.10.4
gpaw:   /home/modules/software/GPAW/22.8.0-intel-2022a/lib/python3.10/site-packages/gpaw
_gpaw:  /home/modules/software/GPAW/22.8.0-intel-2022a/lib/python3.10/site-packages/
        _gpaw.cpython-310-x86_64-linux-gnu.so
ase:    /home/modules/software/ASE/3.22.1-intel-2022a/lib/python3.10/site-packages/ase (version 3.22.1)
numpy:  /home/modules/software/SciPy-bundle/2022.05-intel-2022a/lib/python3.10/site-packages/numpy (version 1.22.3)
scipy:  /home/modules/software/SciPy-bundle/2022.05-intel-2022a/lib/python3.10/site-packages/scipy (version 1.8.1)
libxc:  5.2.3
units:  Angstrom and eV
cores: 40
OpenMP: False
OMP_NUM_THREADS: 1

Input parameters:
  basis: dzp
  h: 0.18
  kpts: {size: (4, 4, 1)}
  xc: BEEF-vdW

System changes: positions, numbers, cell, pbc, initial_charges, initial_magmoms 

Initialize ...

species:
  Ir:
    name: Iridium
    id: fcdd1dd1ce91fa61afbba7769971f98a
    Z: 77.0
    valence: 15
    core: 62
    charge: 0.0
    file: /home/modules/software/GPAW-setups/0.9.20000/Ir.PBE.gz
    compensation charges: {type: gauss,
                           rc: 0.40,
                           lmax: 2}
    cutoffs: {filter: 2.40,
              core: 2.36}
    valence states:
      #              energy  rcut
      - 6s(2.00)    -6.307   1.296
      - 5p(6.00)   -54.741   1.328
      - 6p(0.00)    -1.224   1.328
      - 5d(7.00)    -7.169   1.286
      -  s          20.905   1.296
      -  d          20.043   1.286
  
    # LCAO basis set for Ir:
    #   Name: dzp
    #   File: /home/modules/software/GPAW-setups/0.9.20000/Ir.dzp.basis.gz
    #   Number of radial functions: 9
    #   Number of spherical harmonics: 27
    #     l=0, rc=8.4062 Bohr: 6s-sz confined orbital
    #     l=1, rc=3.6406 Bohr: 5p-sz confined orbital
    #     l=1, rc=12.7031 Bohr: 6p-sz confined orbital
    #     l=2, rc=6.0469 Bohr: 5d-sz confined orbital
    #     l=0, rc=4.9844 Bohr: 6s-dz split-valence wave
    #     l=1, rc=2.4062 Bohr: 5p-dz split-valence wave
    #     l=1, rc=7.7969 Bohr: 6p-dz split-valence wave
    #     l=2, rc=3.5938 Bohr: 5d-dz split-valence wave
    #     l=1, rc=8.4062 Bohr: p-type Gaussian polarization
    #   Number of RI-basis functions 0

  O:
    name: Oxygen
    id: 32ecd46bf208036f09c70b0ec9a88b78
    Z: 8.0
    valence: 6
    core: 2
    charge: 0.0
    file: /home/modules/software/GPAW-setups/0.9.20000/O.PBE.gz
    compensation charges: {type: gauss,
                           rc: 0.21,
                           lmax: 2}
    cutoffs: {filter: 1.17,
              core: 0.83}
    valence states:
      #              energy  rcut
      - 2s(2.00)   -23.961   0.688
      - 2p(4.00)    -9.029   0.598
      -  s           3.251   0.688
      -  p          18.182   0.598
      -  d           0.000   0.619
  
    # LCAO basis set for O:
    #   Name: dzp
    #   File: /home/modules/software/GPAW-setups/0.9.20000/O.dzp.basis.gz
    #   Number of radial functions: 5
    #   Number of spherical harmonics: 13
    #     l=0, rc=4.3438 Bohr: 2s-sz confined orbital
    #     l=1, rc=5.3906 Bohr: 2p-sz confined orbital
    #     l=0, rc=2.2969 Bohr: 2s-dz split-valence wave
    #     l=1, rc=2.8906 Bohr: 2p-dz split-valence wave
    #     l=2, rc=5.3906 Bohr: d-type Gaussian polarization
    #   Number of RI-basis functions 0

Reference energy: -17443495.428383  # eV

Spin-paired calculation

Convergence criteria:
 Maximum [total energy] change in last 3 cyles: 0.0005 eV / electron
 Maximum integral of absolute [dens]ity change: 0.0001 electrons / valence electron
 Maximum integral of absolute [eigenst]ate change: 4e-08 eV^2 / valence electron
 Maximum number of scf [iter]ations: 333
 (Square brackets indicate name in SCF output, whereas a 'c' in
 the SCF output indicates the quantity has converged.)

Symmetries present (total): 1

  ( 1  0  0)
  ( 0  1  0)
  ( 0  0  1)

16 k-points: 4 x 4 x 1 Monkhorst-Pack grid
8 k-points in the irreducible part of the Brillouin zone
       k-points in crystal coordinates                weights
   0:     0.12500000   -0.37500000    0.00000000          2/16
   1:     0.12500000   -0.12500000    0.00000000          2/16
   2:     0.12500000    0.12500000    0.00000000          2/16
   3:     0.12500000    0.37500000    0.00000000          2/16
   4:     0.37500000   -0.37500000    0.00000000          2/16
   5:     0.37500000   -0.12500000    0.00000000          2/16
   6:     0.37500000    0.12500000    0.00000000          2/16
   7:     0.37500000    0.37500000    0.00000000          2/16

Wave functions: Uniform real-space grid
  Kinetic energy operator: 8*3+1=25 point O(h^6) finite-difference Laplacian
  ScaLapack parameters: grid=1x1, blocksize=None
  Wavefunction extrapolation:
    Improved wavefunction reuse through dual PAW basis 

Occupation numbers: Fermi-Dirac:
  width: 0.1000  # eV
 

Eigensolver
   Davidson(niter=2) 

Densities:
  Coarse grid: 40*40*148 grid
  Fine grid: 80*80*296 grid
  Total Charge: 0.000000 

Density mixing:
  Method: separate
  Backend: pulay
  Linear mixing parameter: 0.05
  old densities: 5
  Damping of long wavelength oscillations: 50 

Hamiltonian:
  XC and Coulomb potentials evaluated on a 80*80*296 grid
  Using the BEEF-vdW Exchange-Correlation functional
  Interpolation: tri-quintic (5. degree polynomial)
  Poisson solver: FastPoissonSolver using
    Stencil: 8*3+1=25 point O(h^6) finite-difference Laplacian
    FFT axes: [0, 1]
    FST axes: [2]
 

XC parameters: BEEF-vdW with 2 nearest neighbor stencil

Memory estimate:
  Process memory now: 213.56 MiB
  Calculator: 569.60 MiB
    Density: 59.96 MiB
      Arrays: 9.35 MiB
      Localized functions: 47.07 MiB
      Mixer: 3.54 MiB
    Hamiltonian: 9.92 MiB
      Arrays: 6.12 MiB
      XC: 0.00 MiB
      Poisson: 0.00 MiB
      vbar: 3.81 MiB
    Wavefunctions: 499.71 MiB
      Arrays psit_nG: 235.06 MiB
      Eigensolver: 255.43 MiB
      Projections: 0.67 MiB
      Projectors: 8.56 MiB

Total number of cores used: 40
Parallelization over k-points: 8
Domain decomposition: 1 x 1 x 5

Number of atoms: 37
Number of atomic orbitals: 985
Number of bands in calculation: 332
Number of valence electrons: 546
Bands to converge: occupied

... initialized

Initializing position-dependent things.

Density initialized from atomic densities
Creating initial wave functions:
  332 bands from LCAO basis set

                                            
                                            
                                            
                                            
                                            
          Ir     Ir O   Ir                  
                                            
           IIr    IIr    IIr                
              Ir     Ir     Ir              
             Ir     Ir     Ir               
              IIr    IIr    IIr             
                                            
                Ir     Ir     Ir            
                  Ir     Ir     Ir          
          Ir     Ir     Ir                  
            Ir     Ir     Ir                
              Ir     Ir     Ir              
                                            
                                            
                                            
                                            

Positions:
   0 Ir     0.000000    0.000000    9.999999    ( 0.0000,  0.0000,  0.0000)
   1 Ir     1.378048    0.795616   12.250341    ( 0.0000,  0.0000,  0.0000)
   2 Ir     0.000000    1.592386   14.460828    ( 0.0000,  0.0000,  0.0000)
   3 Ir     0.000000   -0.000000   16.669904    ( 0.0000,  0.0000,  0.0000)
   4 Ir    -1.378048    2.386848    9.999999    ( 0.0000,  0.0000,  0.0000)
   5 Ir     0.000000    3.182464   12.250341    ( 0.0000,  0.0000,  0.0000)
   6 Ir    -1.378795    3.977649   14.461289    ( 0.0000,  0.0000,  0.0000)
   7 Ir    -1.377934    2.386749   16.674368    ( 0.0000,  0.0000,  0.0000)
   8 Ir    -2.756095    4.773697    9.999999    ( 0.0000,  0.0000,  0.0000)
   9 Ir    -1.378048    5.569313   12.250341    ( 0.0000,  0.0000,  0.0000)
  10 Ir    -2.755096    6.364352   14.460828    ( 0.0000,  0.0000,  0.0000)
  11 Ir    -2.756125    4.773845   16.674368    ( 0.0000,  0.0000,  0.0000)
  12 Ir     2.756095    0.000000    9.999999    ( 0.0000,  0.0000,  0.0000)
  13 Ir     4.134143    0.795616   12.250341    ( 0.0000,  0.0000,  0.0000)
  14 Ir     2.756900    1.591697   14.460969    ( 0.0000,  0.0000,  0.0000)
  15 Ir     2.755952   -0.000048   16.674368    ( 0.0000,  0.0000,  0.0000)
  16 Ir     1.378048    2.386848    9.999999    ( 0.0000,  0.0000,  0.0000)
  17 Ir     2.756095    3.182464   12.250341    ( 0.0000,  0.0000,  0.0000)
  18 Ir     1.378795    3.977649   14.461289    ( 0.0000,  0.0000,  0.0000)
  19 Ir     1.377934    2.386749   16.674368    ( 0.0000,  0.0000,  0.0000)
  20 Ir     0.000000    4.773697    9.999999    ( 0.0000,  0.0000,  0.0000)
  21 Ir     1.378048    5.569313   12.250341    ( 0.0000,  0.0000,  0.0000)
  22 Ir     0.000000    6.365791   14.461289    ( 0.0000,  0.0000,  0.0000)
  23 Ir     0.000000    4.773697   16.672467    ( 0.0000,  0.0000,  0.0000)
  24 Ir     5.512190    0.000000    9.999999    ( 0.0000,  0.0000,  0.0000)
  25 Ir     6.890238    0.795616   12.250341    ( 0.0000,  0.0000,  0.0000)
  26 Ir     5.511385    1.591697   14.460969    ( 0.0000,  0.0000,  0.0000)
  27 Ir     5.512333   -0.000048   16.674368    ( 0.0000,  0.0000,  0.0000)
  28 Ir     4.134143    2.386848    9.999999    ( 0.0000,  0.0000,  0.0000)
  29 Ir     5.512190    3.182464   12.250341    ( 0.0000,  0.0000,  0.0000)
  30 Ir     4.134143    3.977150   14.460969    ( 0.0000,  0.0000,  0.0000)
  31 Ir     4.134143    2.386848   16.673700    ( 0.0000,  0.0000,  0.0000)
  32 Ir     2.756095    4.773697    9.999999    ( 0.0000,  0.0000,  0.0000)
  33 Ir     4.134143    5.569313   12.250341    ( 0.0000,  0.0000,  0.0000)
  34 Ir     2.755096    6.364352   14.460828    ( 0.0000,  0.0000,  0.0000)
  35 Ir     2.756125    4.773845   16.674368    ( 0.0000,  0.0000,  0.0000)
  36 O      1.377934    3.977998   17.469993    ( 0.0000,  0.0000,  0.0000)

Unit cell:
           periodic     x           y           z      points  spacing
  1. axis:    yes    8.268285    0.000000    0.000000    40     0.1790
  2. axis:    yes   -4.134143    7.160545    0.000000    40     0.1790
  3. axis:    no     0.000000    0.000000   26.751025   148     0.1808

  Lengths:   8.268285   8.268285  26.751025
  Angles:   90.000000  90.000000 120.000000

Effective grid spacing dv^(1/3) = 0.1884

     iter     time        total  log10-change:
                         energy  eigst   dens
iter:   1 22:13:11 -11739.586279
iter:   2 22:13:53 -11773.283263  -0.68  -1.45
iter:   3 22:14:36 -11737.739365  -1.26  -1.24
iter:   4 22:15:18 -11736.847777  -2.04  -1.49
iter:   5 22:16:01 -11737.440351  -1.27  -1.55
iter:   6 22:16:43 -11737.875503  -1.78  -1.93
iter:   7 22:17:26 -11737.626228  -2.53  -2.05
iter:   8 22:18:08 -11737.546029  -3.09  -2.08
iter:   9 22:18:50 -11737.468293c -2.80  -2.15
iter:  10 22:19:33 -11737.513642c -2.17  -2.26
iter:  11 22:20:15 -11737.413280c -2.82  -2.42
iter:  12 22:20:58 -11737.415025c -3.32  -2.66
iter:  13 22:21:40 -11737.408509c -3.24  -2.69
iter:  14 22:22:23 -11737.418722c -3.45  -2.92
iter:  15 22:23:05 -11737.416713c -3.80  -3.09
iter:  16 22:23:47 -11737.417646c -4.21  -3.16
iter:  17 22:24:30 -11737.418771c -4.35  -3.24
iter:  18 22:25:12 -11737.415856c -4.39  -3.21
iter:  19 22:25:55 -11737.415544c -5.12  -3.54
iter:  20 22:26:37 -11737.414606c -4.97  -3.59
iter:  21 22:27:20 -11737.414591c -5.48  -3.84
iter:  22 22:28:02 -11737.414434c -6.18  -3.95
iter:  23 22:28:44 -11737.414488c -6.38  -3.95
iter:  24 22:29:27 -11737.414603c -6.12  -4.02c
iter:  25 22:30:09 -11737.414462c -6.05  -3.89
iter:  26 22:30:52 -11737.414441c -6.85  -4.14c
iter:  27 22:31:34 -11737.414421c -6.98  -4.50c
iter:  28 22:32:17 -11737.414438c -7.44c -4.63c

Converged after 28 iterations.

Dipole moment: (-4.420784, -7.536519, 0.106475) |e|*Ang

Energy contributions relative to reference atoms: (reference = -17443495.428383)

Kinetic:       +1168.704381
Potential:     -1110.734879
External:        +0.000000
XC:            -11788.510458
Entropy (-ST):   -1.520830
Local:           -6.113068
--------------------------
Free energy:   -11738.174853
Extrapolated:  -11737.414438

Showing only first 2 kpts
 Kpt  Band  Eigenvalues  Occupancy
  0   271     -5.61754    1.17979
  0   272     -5.56836    0.93595
  0   273     -5.52372    0.72033
  0   274     -5.49937    0.61229

  1   271     -5.74116    1.66396
  1   272     -5.64683    1.31690
  1   273     -5.62104    1.19666
  1   274     -5.57664    0.97728


Fermi level: -5.58119

No gap

Forces in eV/Ang:
  0 Ir   -0.02076    0.01200    0.29961
  1 Ir    0.01408   -0.00259   -0.33142
  2 Ir   -0.05706    0.02249   -0.17895
  3 Ir   -0.00824    0.00458    0.11770
  4 Ir    0.03982    0.02510    0.39021
  5 Ir   -0.03058   -0.01204   -0.29613
  6 Ir    0.00750   -0.07080   -0.17491
  7 Ir   -0.78868   -0.44959   -0.04499
  8 Ir    0.00615   -0.02872    0.32272
  9 Ir   -0.02236    0.01293   -0.34325
 10 Ir    0.00757   -0.00438   -0.21374
 11 Ir   -0.01997   -0.02244    0.09772
 12 Ir    0.02795    0.00905    0.32272
 13 Ir   -0.03589   -0.02300   -0.33105
 14 Ir    0.06091    0.01969   -0.18724
 15 Ir    0.00955    0.02841    0.09772
 16 Ir    0.00234    0.00896    0.32450
 17 Ir    0.02128   -0.01227   -0.29260
 18 Ir    0.00360   -0.00205   -1.64895
 19 Ir    0.02143   -6.71101   -2.18461
 20 Ir    0.00492   -0.00284    0.31000
 21 Ir   -0.00485    0.03253   -0.29612
 22 Ir    0.06509    0.02882   -0.17485
 23 Ir   -5.78164    3.33825   -2.15951
 24 Ir   -0.00181   -0.04702    0.39021
 25 Ir    0.00001   -0.00001   -0.33224
 26 Ir    0.01458   -0.00846   -0.20580
 27 Ir   -0.00492    0.90767   -0.04502
 28 Ir   -0.04193    0.02422    0.36942
 29 Ir    0.00198    0.04260   -0.33104
 30 Ir    0.01343   -0.06260   -0.18731
 31 Ir    0.76434   -0.44123   -0.04290
 32 Ir   -0.00659   -0.00650    0.32449
 33 Ir    0.00930   -0.01086   -0.33141
 34 Ir   -0.04801    0.03812   -0.17895
 35 Ir    5.81693    3.33389   -2.18145
 36 O    -0.03758    0.02738    9.35274

      Step     Time          Energy         fmax
BFGS:    0 22:32:41   -11737.414438        9.3529
System changes: positions 

Initializing position-dependent things.

Density initialized from wave functions
                                            
                                            
                                            
                                            
                                            
                    O                       
          Ir     Ir     Ir                  
           IIr    IIr    IIr                
              Ir     Ir     Ir              
             Ir     Ir     Ir               
              IIr    IIr    IIr             
                                            
                Ir     Ir     Ir            
                  Ir     Ir     Ir          
          Ir     Ir     Ir                  
            Ir     Ir     Ir                
              Ir     Ir     Ir              
                                            
                                            
                                            
                                            

Positions:
   0 Ir     0.000000    0.000000    9.999999    ( 0.0000,  0.0000,  0.0000)
   1 Ir     1.378048    0.795616   12.250341    ( 0.0000,  0.0000,  0.0000)
   2 Ir    -0.000815    1.592707   14.458272    ( 0.0000,  0.0000,  0.0000)
   3 Ir    -0.000118    0.000065   16.671585    ( 0.0000,  0.0000,  0.0000)
   4 Ir    -1.378048    2.386848    9.999999    ( 0.0000,  0.0000,  0.0000)
   5 Ir     0.000000    3.182464   12.250341    ( 0.0000,  0.0000,  0.0000)
   6 Ir    -1.378687    3.976638   14.458790    ( 0.0000,  0.0000,  0.0000)
   7 Ir    -1.389201    2.380326   16.673725    ( 0.0000,  0.0000,  0.0000)
   8 Ir    -2.756095    4.773697    9.999999    ( 0.0000,  0.0000,  0.0000)
   9 Ir    -1.378048    5.569313   12.250341    ( 0.0000,  0.0000,  0.0000)
  10 Ir    -2.754987    6.364289   14.457775    ( 0.0000,  0.0000,  0.0000)
  11 Ir    -2.756410    4.773524   16.675764    ( 0.0000,  0.0000,  0.0000)
  12 Ir     2.756095    0.000000    9.999999    ( 0.0000,  0.0000,  0.0000)
  13 Ir     4.134143    0.795616   12.250341    ( 0.0000,  0.0000,  0.0000)
  14 Ir     2.757771    1.591978   14.458294    ( 0.0000,  0.0000,  0.0000)
  15 Ir     2.756088    0.000358   16.675764    ( 0.0000,  0.0000,  0.0000)
  16 Ir     1.378048    2.386848    9.999999    ( 0.0000,  0.0000,  0.0000)
  17 Ir     2.756095    3.182464   12.250341    ( 0.0000,  0.0000,  0.0000)
  18 Ir     1.378846    3.977620   14.437733    ( 0.0000,  0.0000,  0.0000)
  19 Ir     1.378240    2.290877   16.643159    ( 0.0000,  0.0000,  0.0000)
  20 Ir     0.000000    4.773697    9.999999    ( 0.0000,  0.0000,  0.0000)
  21 Ir     1.378048    5.569313   12.250341    ( 0.0000,  0.0000,  0.0000)
  22 Ir     0.000930    6.366203   14.458791    ( 0.0000,  0.0000,  0.0000)
  23 Ir    -0.082595    4.821386   16.641617    ( 0.0000,  0.0000,  0.0000)
  24 Ir     5.512190    0.000000    9.999999    ( 0.0000,  0.0000,  0.0000)
  25 Ir     6.890238    0.795616   12.250341    ( 0.0000,  0.0000,  0.0000)
  26 Ir     5.511593    1.591576   14.458029    ( 0.0000,  0.0000,  0.0000)
  27 Ir     5.512263    0.012918   16.673725    ( 0.0000,  0.0000,  0.0000)
  28 Ir     4.134143    2.386848    9.999999    ( 0.0000,  0.0000,  0.0000)
  29 Ir     5.512190    3.182464   12.250341    ( 0.0000,  0.0000,  0.0000)
  30 Ir     4.134334    3.976256   14.458293    ( 0.0000,  0.0000,  0.0000)
  31 Ir     4.145062    2.380545   16.673087    ( 0.0000,  0.0000,  0.0000)
  32 Ir     2.756095    4.773697    9.999999    ( 0.0000,  0.0000,  0.0000)
  33 Ir     4.134143    5.569313   12.250341    ( 0.0000,  0.0000,  0.0000)
  34 Ir     2.754410    6.364896   14.458272    ( 0.0000,  0.0000,  0.0000)
  35 Ir     2.839224    4.821472   16.643205    ( 0.0000,  0.0000,  0.0000)
  36 O      1.377397    3.978390   17.603604    ( 0.0000,  0.0000,  0.0000)

Unit cell:
           periodic     x           y           z      points  spacing
  1. axis:    yes    8.268285    0.000000    0.000000    40     0.1790
  2. axis:    yes   -4.134143    7.160545    0.000000    40     0.1790
  3. axis:    no     0.000000    0.000000   26.751025   148     0.1808

  Lengths:   8.268285   8.268285  26.751025
  Angles:   90.000000  90.000000 120.000000

Effective grid spacing dv^(1/3) = 0.1884

     iter     time        total  log10-change:
                         energy  eigst   dens
iter:   1 22:34:26 -11752.083465  -0.45
iter:   2 22:35:09 -11808.452024  -0.85  -1.67
iter:   3 22:35:53 -11742.954515  -1.19  -1.19
iter:   4 22:36:36 -11740.021471  -1.64  -1.89
iter:   5 22:37:19 -11739.649728  -2.53  -2.29
iter:   6 22:38:02 -11739.570726  -2.47  -2.57
iter:   7 22:38:46 -11739.516510c -3.05  -2.49
iter:   8 22:39:29 -11739.466148c -3.24  -2.59
iter:   9 22:40:12 -11739.451681c -3.13  -2.72
iter:  10 22:40:55 -11739.454635c -3.40  -2.80
iter:  11 22:41:39 -11739.425494c -3.57  -2.72
iter:  12 22:42:22 -11739.425114c -4.25  -3.18
iter:  13 22:43:05 -11739.424861c -4.12  -3.24
iter:  14 22:43:48 -11739.426474c -4.48  -3.27
iter:  15 22:44:31 -11739.425537c -4.84  -3.37
iter:  16 22:45:15 -11739.426565c -5.22  -3.45
iter:  17 22:45:58 -11739.425089c -5.36  -3.40
iter:  18 22:46:41 -11739.424981c -5.12  -3.68
iter:  19 22:47:24 -11739.425226c -5.13  -3.85
iter:  20 22:48:08 -11739.425003c -5.83  -3.96
iter:  21 22:48:51 -11739.425113c -6.26  -3.91
iter:  22 22:49:34 -11739.425031c -5.64  -4.07c
iter:  23 22:50:17 -11739.424991c -6.56  -3.94
iter:  24 22:51:01 -11739.424989c -7.06  -4.37c
iter:  25 22:51:44 -11739.424960c -7.06  -4.48c
iter:  26 22:52:27 -11739.425020c -7.19  -4.65c
iter:  27 22:53:11 -11739.424955c -7.03  -4.77c
iter:  28 22:53:54 -11739.424989c -7.42c -4.81c

Converged after 28 iterations.

Dipole moment: (-3.376145, -8.122055, 0.042844) |e|*Ang

Energy contributions relative to reference atoms: (reference = -17443495.428383)

Kinetic:       +1136.914843
Potential:     -1084.811242
External:        +0.000000
XC:            -11784.872091
Entropy (-ST):   -1.509311
Local:           -5.901843
--------------------------
Free energy:   -11740.179644
Extrapolated:  -11739.424989

Showing only first 2 kpts
 Kpt  Band  Eigenvalues  Occupancy
  0   271     -5.68044    1.17902
  0   272     -5.63757    0.96665
  0   273     -5.59571    0.76197
  0   274     -5.55656    0.58768

  1   271     -5.79525    1.63812
  1   272     -5.69301    1.23909
  1   273     -5.66408    1.09887
  1   274     -5.64986    1.02804


Fermi level: -5.64425

No gap

Forces in eV/Ang:
  0 Ir   -0.02662    0.01539    0.30763
  1 Ir    0.01399   -0.01606   -0.35619
  2 Ir   -0.08527    0.03209   -0.21636
  3 Ir   -0.12511    0.07181    0.00475
  4 Ir    0.05321    0.03260    0.33768
  5 Ir   -0.12042   -0.06305   -0.37460
  6 Ir   -0.00288   -0.09662   -0.22240
  7 Ir   -0.32984   -0.18857   -0.07130
  8 Ir    0.00411   -0.03693    0.33059
  9 Ir   -0.03549    0.02051   -0.36117
 10 Ir    0.01344   -0.00784   -0.27785
 11 Ir   -0.00669   -0.14917   -0.00614
 12 Ir    0.03404    0.01492    0.33059
 13 Ir   -0.02754   -0.01756   -0.37084
 14 Ir    0.09313    0.02987   -0.22542
 15 Ir    0.12602    0.08007   -0.00613
 16 Ir    0.00299   -0.00202    0.32392
 17 Ir    0.10738   -0.06199   -0.36931
 18 Ir    0.00132   -0.00079   -0.59362
 19 Ir   -0.00560   -1.21287    0.00621
 20 Ir   -0.00186    0.00109    0.30573
 21 Ir   -0.00560    0.13583   -0.37463
 22 Ir    0.08226    0.05078   -0.22246
 23 Ir   -1.07264    0.61896    0.02254
 24 Ir   -0.00161   -0.06240    0.33763
 25 Ir   -0.00459    0.00264   -0.36810
 26 Ir    0.01601   -0.00929   -0.32296
 27 Ir   -0.00161    0.37990   -0.07126
 28 Ir   -0.05513    0.03184    0.31343
 29 Ir    0.00143    0.03264   -0.37089
 30 Ir    0.02059   -0.09548   -0.22520
 31 Ir    0.32125   -0.18546   -0.06785
 32 Ir    0.00324   -0.00157    0.32393
 33 Ir    0.02091   -0.00407   -0.35616
 34 Ir   -0.07041    0.05763   -0.21621
 35 Ir    1.04886    0.61173    0.00516
 36 O    -0.01415    0.00774    3.10379

BFGS:    1 22:54:19   -11739.424989        3.1038
System changes: positions 

Initializing position-dependent things.

Density initialized from wave functions
                                            
                                            
                                            
                                            
                                            
                    O                       
          Ir     Ir     Ir                  
           IIr    IIr    IIr                
              Ir     Ir     Ir              
             Ir     Ir     Ir               
               Ir     Ir     Ir             
              Ir     Ir     Ir              
                Ir     Ir     Ir            
                  Ir     Ir     Ir          
          Ir     Ir     Ir                  
            Ir     Ir     Ir                
              Ir     Ir     Ir              
                                            
                                            
                                            
                                            

Positions:
   0 Ir     0.000000    0.000000    9.999999    ( 0.0000,  0.0000,  0.0000)
   1 Ir     1.378048    0.795616   12.250341    ( 0.0000,  0.0000,  0.0000)
   2 Ir    -0.002414    1.593310   14.454205    ( 0.0000,  0.0000,  0.0000)
   3 Ir    -0.002445    0.001401   16.671703    ( 0.0000,  0.0000,  0.0000)
   4 Ir    -1.378048    2.386848    9.999999    ( 0.0000,  0.0000,  0.0000)
   5 Ir     0.000000    3.182464   12.250341    ( 0.0000,  0.0000,  0.0000)
   6 Ir    -1.378739    3.974824   14.454612    ( 0.0000,  0.0000,  0.0000)
   7 Ir    -1.395534    2.376706   16.672389    ( 0.0000,  0.0000,  0.0000)
   8 Ir    -2.756095    4.773697    9.999999    ( 0.0000,  0.0000,  0.0000)
   9 Ir    -1.378048    5.569313   12.250341    ( 0.0000,  0.0000,  0.0000)
  10 Ir    -2.754736    6.364143   14.452556    ( 0.0000,  0.0000,  0.0000)
  11 Ir    -2.756539    4.770746   16.675675    ( 0.0000,  0.0000,  0.0000)
  12 Ir     2.756095    0.000000    9.999999    ( 0.0000,  0.0000,  0.0000)
  13 Ir     4.134143    0.795616   12.250341    ( 0.0000,  0.0000,  0.0000)
  14 Ir     2.759517    1.592539   14.454056    ( 0.0000,  0.0000,  0.0000)
  15 Ir     2.758433    0.001853   16.675675    ( 0.0000,  0.0000,  0.0000)
  16 Ir     1.378048    2.386848    9.999999    ( 0.0000,  0.0000,  0.0000)
  17 Ir     2.756095    3.182464   12.250341    ( 0.0000,  0.0000,  0.0000)
  18 Ir     1.378871    3.977605   14.426277    ( 0.0000,  0.0000,  0.0000)
  19 Ir     1.378142    2.266613   16.642714    ( 0.0000,  0.0000,  0.0000)
  20 Ir     0.000000    4.773697    9.999999    ( 0.0000,  0.0000,  0.0000)
  21 Ir     1.378048    5.569313   12.250341    ( 0.0000,  0.0000,  0.0000)
  22 Ir     0.002475    6.367154   14.454612    ( 0.0000,  0.0000,  0.0000)
  23 Ir    -0.104014    4.833746   16.641481    ( 0.0000,  0.0000,  0.0000)
  24 Ir     5.512190    0.000000    9.999999    ( 0.0000,  0.0000,  0.0000)
  25 Ir     6.890238    0.795616   12.250341    ( 0.0000,  0.0000,  0.0000)
  26 Ir     5.511894    1.591402   14.451973    ( 0.0000,  0.0000,  0.0000)
  27 Ir     5.512232    0.020212   16.672389    ( 0.0000,  0.0000,  0.0000)
  28 Ir     4.134143    2.386848    9.999999    ( 0.0000,  0.0000,  0.0000)
  29 Ir     5.512190    3.182464   12.250341    ( 0.0000,  0.0000,  0.0000)
  30 Ir     4.134720    3.974466   14.454059    ( 0.0000,  0.0000,  0.0000)
  31 Ir     4.151228    2.376985   16.671815    ( 0.0000,  0.0000,  0.0000)
  32 Ir     2.756095    4.773697    9.999999    ( 0.0000,  0.0000,  0.0000)
  33 Ir     4.134143    5.569313   12.250341    ( 0.0000,  0.0000,  0.0000)
  34 Ir     2.753089    6.365977   14.454208    ( 0.0000,  0.0000,  0.0000)
  35 Ir     2.860210    4.833696   16.642740    ( 0.0000,  0.0000,  0.0000)
  36 O      1.377125    3.978540   17.663689    ( 0.0000,  0.0000,  0.0000)

Unit cell:
           periodic     x           y           z      points  spacing
  1. axis:    yes    8.268285    0.000000    0.000000    40     0.1790
  2. axis:    yes   -4.134143    7.160545    0.000000    40     0.1790
  3. axis:    no     0.000000    0.000000   26.751025   148     0.1808

  Lengths:   8.268285   8.268285  26.751025
  Angles:   90.000000  90.000000 120.000000

Effective grid spacing dv^(1/3) = 0.1884

     iter     time        total  log10-change:
                         energy  eigst   dens
iter:   1 22:56:02 -11741.806170  -1.54
iter:   2 22:56:45 -11763.574813  -1.41  -1.96
iter:   3 22:57:29 -11739.946493  -1.78  -1.38
iter:   4 22:58:12 -11739.682059  -2.71  -2.37
iter:   5 22:58:55 -11739.655726  -3.33  -2.84
iter:   6 22:59:38 -11739.650302c -3.70  -3.06
iter:   7 23:00:21 -11739.643243c -4.03  -3.10
iter:   8 23:01:04 -11739.646917c -4.07  -3.32
iter:   9 23:01:47 -11739.642207c -4.26  -3.08
iter:  10 23:02:30 -11739.639765c -4.54  -3.32
iter:  11 23:03:13 -11739.639855c -4.99  -3.62
iter:  12 23:03:56 -11739.639458c -5.40  -3.63
iter:  13 23:04:39 -11739.639825c -5.36  -3.70
iter:  14 23:05:23 -11739.639514c -5.41  -3.81
iter:  15 23:06:06 -11739.639475c -5.79  -3.79
iter:  16 23:06:49 -11739.639483c -6.55  -3.85
iter:  17 23:07:32 -11739.639414c -6.11  -4.04c
iter:  18 23:08:15 -11739.639512c -5.90  -4.11c
iter:  19 23:08:58 -11739.639382c -6.18  -4.27c
iter:  20 23:09:41 -11739.639460c -6.77  -4.24c
iter:  21 23:10:24 -11739.639456c -6.94  -4.40c
iter:  22 23:11:07 -11739.639383c -6.63  -4.29c
iter:  23 23:11:50 -11739.639418c -6.91  -4.51c
iter:  24 23:12:34 -11739.639402c -7.50c -4.72c

Converged after 24 iterations.

Dipole moment: (-2.615683, -8.548242, 0.018643) |e|*Ang

Energy contributions relative to reference atoms: (reference = -17443495.428383)

Kinetic:       +1130.602414
Potential:     -1079.591126
External:        +0.000000
XC:            -11784.008304
Entropy (-ST):   -1.503661
Local:           -5.890556
--------------------------
Free energy:   -11740.391233
Extrapolated:  -11739.639402

Showing only first 2 kpts
 Kpt  Band  Eigenvalues  Occupancy
  0   271     -5.70548    1.18770
  0   272     -5.66248    0.97494
  0   273     -5.62032    0.76840
  0   274     -5.57607    0.57225

  1   271     -5.81133    1.61641
  1   272     -5.71397    1.22828
  1   273     -5.68826    1.10347
  1   274     -5.67821    1.05351


Fermi level: -5.66749

No gap

Forces in eV/Ang:
  0 Ir   -0.02917    0.01685    0.29853
  1 Ir    0.01345   -0.01749   -0.38041
  2 Ir   -0.04231    0.03749   -0.14943
  3 Ir   -0.12184    0.07011   -0.04616
  4 Ir    0.05804    0.03527    0.31419
  5 Ir   -0.14545   -0.07751   -0.41726
  6 Ir    0.02169   -0.06244   -0.15607
  7 Ir   -0.16130   -0.09484   -0.07828
  8 Ir    0.00397   -0.04007    0.32100
  9 Ir   -0.03699    0.02137   -0.38401
 10 Ir    0.01197   -0.00693   -0.21444
 11 Ir   -0.00262   -0.14086   -0.05280
 12 Ir    0.03668    0.01661    0.32100
 13 Ir   -0.02614   -0.01643   -0.41353
 14 Ir    0.05147    0.03556   -0.15104
 15 Ir    0.12078    0.07253   -0.05281
 16 Ir    0.00328   -0.00600    0.30899
 17 Ir    0.13189   -0.07613   -0.41206
 18 Ir    0.00154   -0.00092   -0.21494
 19 Ir    0.00235   -0.11278    0.41209
 20 Ir   -0.00449    0.00261    0.29025
 21 Ir   -0.00559    0.16474   -0.41728
 22 Ir    0.06492    0.01239   -0.15609
 23 Ir   -0.11295    0.06502    0.41705
 24 Ir   -0.00151   -0.06791    0.31415
 25 Ir   -0.00466    0.00267   -0.40973
 26 Ir    0.01458   -0.00845   -0.28832
 27 Ir    0.00147    0.18704   -0.07826
 28 Ir   -0.05966    0.03446    0.28939
 29 Ir    0.00114    0.03087   -0.41355
 30 Ir   -0.00510   -0.06236   -0.15101
 31 Ir    0.15922   -0.09195   -0.07309
 32 Ir    0.00684    0.00017    0.30900
 33 Ir    0.02187   -0.00289   -0.38038
 34 Ir   -0.05365    0.01783   -0.14943
 35 Ir    0.09954    0.05460    0.41164
 36 O    -0.02211    0.01317    1.76061

BFGS:    2 23:12:59   -11739.639402        1.7608
System changes: positions 

Initializing position-dependent things.

Density initialized from wave functions
                                            
                                            
                                            
                                            
                                            
                    O                       
          Ir     Ir     Ir                  
           IIr    IIr    IIr                
              Ir     Ir     Ir              
             Ir     Ir     Ir               
               Ir     Ir     Ir             
              Ir     Ir     Ir              
                Ir     Ir     Ir            
                  Ir     Ir     Ir          
          Ir     Ir     Ir                  
            Ir     Ir     Ir                
              Ir     Ir     Ir              
                                            
                                            
                                            
                                            

Positions:
   0 Ir     0.000000    0.000000    9.999999    ( 0.0000,  0.0000,  0.0000)
   1 Ir     1.378048    0.795616   12.250341    ( 0.0000,  0.0000,  0.0000)
   2 Ir    -0.003971    1.594434   14.449190    ( 0.0000,  0.0000,  0.0000)
   3 Ir    -0.006187    0.003553   16.670630    ( 0.0000,  0.0000,  0.0000)
   4 Ir    -1.378048    2.386848    9.999999    ( 0.0000,  0.0000,  0.0000)
   5 Ir     0.000000    3.182464   12.250341    ( 0.0000,  0.0000,  0.0000)
   6 Ir    -1.378210    3.972696   14.449400    ( 0.0000,  0.0000,  0.0000)
   7 Ir    -1.401746    2.373089   16.670018    ( 0.0000,  0.0000,  0.0000)
   8 Ir    -2.756095    4.773697    9.999999    ( 0.0000,  0.0000,  0.0000)
   9 Ir    -1.378048    5.569313   12.250341    ( 0.0000,  0.0000,  0.0000)
  10 Ir    -2.754359    6.363924   14.445561    ( 0.0000,  0.0000,  0.0000)
  11 Ir    -2.756651    4.766389   16.674366    ( 0.0000,  0.0000,  0.0000)
  12 Ir     2.756095    0.000000    9.999999    ( 0.0000,  0.0000,  0.0000)
  13 Ir     4.134143    0.795616   12.250341    ( 0.0000,  0.0000,  0.0000)
  14 Ir     2.761348    1.593601   14.448948    ( 0.0000,  0.0000,  0.0000)
  15 Ir     2.762154    0.004122   16.674366    ( 0.0000,  0.0000,  0.0000)
  16 Ir     1.378048    2.386848    9.999999    ( 0.0000,  0.0000,  0.0000)
  17 Ir     2.756095    3.182464   12.250341    ( 0.0000,  0.0000,  0.0000)
  18 Ir     1.378919    3.977576   14.416876    ( 0.0000,  0.0000,  0.0000)
  19 Ir     1.378179    2.254074   16.652068    ( 0.0000,  0.0000,  0.0000)
  20 Ir     0.000000    4.773697    9.999999    ( 0.0000,  0.0000,  0.0000)
  21 Ir     1.378048    5.569313   12.250341    ( 0.0000,  0.0000,  0.0000)
  22 Ir     0.004583    6.367759   14.449399    ( 0.0000,  0.0000,  0.0000)
  23 Ir    -0.115365    4.840293   16.651062    ( 0.0000,  0.0000,  0.0000)
  24 Ir     5.512190    0.000000    9.999999    ( 0.0000,  0.0000,  0.0000)
  25 Ir     6.890238    0.795616   12.250341    ( 0.0000,  0.0000,  0.0000)
  26 Ir     5.512354    1.591135   14.442887    ( 0.0000,  0.0000,  0.0000)
  27 Ir     5.512257    0.027399   16.670019    ( 0.0000,  0.0000,  0.0000)
  28 Ir     4.134143    2.386848    9.999999    ( 0.0000,  0.0000,  0.0000)
  29 Ir     5.512190    3.182464   12.250341    ( 0.0000,  0.0000,  0.0000)
  30 Ir     4.134714    3.972349   14.448953    ( 0.0000,  0.0000,  0.0000)
  31 Ir     4.157330    2.373462   16.669594    ( 0.0000,  0.0000,  0.0000)
  32 Ir     2.756095    4.773697    9.999999    ( 0.0000,  0.0000,  0.0000)
  33 Ir     4.134143    5.569313   12.250341    ( 0.0000,  0.0000,  0.0000)
  34 Ir     2.751336    6.366760   14.449194    ( 0.0000,  0.0000,  0.0000)
  35 Ir     2.871110    4.839941   16.652079    ( 0.0000,  0.0000,  0.0000)
  36 O      1.376477    3.978924   17.729059    ( 0.0000,  0.0000,  0.0000)

Unit cell:
           periodic     x           y           z      points  spacing
  1. axis:    yes    8.268285    0.000000    0.000000    40     0.1790
  2. axis:    yes   -4.134143    7.160545    0.000000    40     0.1790
  3. axis:    no     0.000000    0.000000   26.751025   148     0.1808

  Lengths:   8.268285   8.268285  26.751025
  Angles:   90.000000  90.000000 120.000000

Effective grid spacing dv^(1/3) = 0.1884

     iter     time        total  log10-change:
                         energy  eigst   dens
iter:   1 23:14:43 -11742.768973  -1.63
iter:   2 23:15:26 -11782.368636  -1.13  -1.83
iter:   3 23:16:10 -11739.888259  -1.58  -1.27
iter:   4 23:16:53 -11739.988406  -2.30  -2.55
iter:   5 23:17:36 -11739.762143c -3.33  -2.36
iter:   6 23:18:20 -11739.750902c -3.80  -2.93
iter:   7 23:19:03 -11739.743914c -3.92  -3.12
iter:   8 23:19:47 -11739.744220c -3.99  -3.34
iter:   9 23:20:30 -11739.743011c -4.40  -3.22
iter:  10 23:21:14 -11739.740699c -4.66  -3.36
iter:  11 23:21:57 -11739.740941c -5.21  -3.64
iter:  12 23:22:40 -11739.740640c -5.52  -3.68
iter:  13 23:23:24 -11739.740609c -5.49  -3.62
iter:  14 23:24:07 -11739.740573c -5.43  -3.88
iter:  15 23:24:50 -11739.740446c -5.75  -3.94
iter:  16 23:25:34 -11739.740499c -6.51  -3.82
iter:  17 23:26:17 -11739.740375c -6.07  -4.10c
iter:  18 23:27:01 -11739.740517c -6.31  -4.30c
iter:  19 23:27:44 -11739.740364c -6.42  -4.25c
iter:  20 23:28:27 -11739.740399c -6.92  -4.32c
iter:  21 23:29:11 -11739.740436c -6.98  -4.53c
iter:  22 23:29:54 -11739.740355c -7.21  -4.48c
iter:  23 23:30:37 -11739.740404c -7.50c -4.77c

Converged after 23 iterations.

Dipole moment: (-1.716379, -9.053369, -0.002997) |e|*Ang

Energy contributions relative to reference atoms: (reference = -17443495.428383)

Kinetic:       +1125.300281
Potential:     -1075.181197
External:        +0.000000
XC:            -11783.242424
Entropy (-ST):   -1.497573
Local:           -5.868277
--------------------------
Free energy:   -11740.489191
Extrapolated:  -11739.740404

Showing only first 2 kpts
 Kpt  Band  Eigenvalues  Occupancy
  0   271     -5.72711    1.20269
  0   272     -5.68113    0.97562
  0   273     -5.64011    0.77446
  0   274     -5.58935    0.55115

  1   271     -5.82249    1.59310
  1   272     -5.73189    1.22549
  1   273     -5.70805    1.10978
  1   274     -5.70003    1.06999


Fermi level: -5.68600

No gap

Forces in eV/Ang:
  0 Ir   -0.03098    0.01790    0.29382
  1 Ir    0.01301   -0.01255   -0.41282
  2 Ir    0.02707    0.03248   -0.03440
  3 Ir   -0.08684    0.05012   -0.10792
  4 Ir    0.06198    0.03716    0.30639
  5 Ir   -0.15142   -0.08138   -0.45870
  6 Ir    0.05022   -0.00120   -0.03731
  7 Ir   -0.03226   -0.02338   -0.10228
  8 Ir    0.00412   -0.04241    0.31572
  9 Ir   -0.03297    0.01904   -0.41640
 10 Ir    0.00893   -0.00514   -0.10040
 11 Ir    0.00088   -0.09785   -0.11248
 12 Ir    0.03879    0.01765    0.31572
 13 Ir   -0.03022   -0.01884   -0.46547
 14 Ir   -0.01587    0.03120   -0.02754
 15 Ir    0.08517    0.04815   -0.11252
 16 Ir    0.00348   -0.01007    0.29910
 17 Ir    0.13833   -0.07985   -0.45246
 18 Ir    0.00471   -0.00277    0.05766
 19 Ir    0.00472    0.50937    0.54808
 20 Ir   -0.00744    0.00431    0.28044
 21 Ir   -0.00522    0.17182   -0.45871
 22 Ir    0.02612   -0.04294   -0.03732
 23 Ir    0.42844   -0.24746    0.53532
 24 Ir   -0.00118   -0.07226    0.30635
 25 Ir    0.00095   -0.00057   -0.46111
 26 Ir    0.01332   -0.00771   -0.18705
 27 Ir    0.00407    0.03955   -0.10228
 28 Ir   -0.06306    0.03642    0.28148
 29 Ir    0.00119    0.03561   -0.46547
 30 Ir   -0.03494   -0.00195   -0.02765
 31 Ir    0.03122   -0.01808   -0.09572
 32 Ir    0.01046    0.00203    0.29910
 33 Ir    0.01738   -0.00498   -0.41281
 34 Ir   -0.01465   -0.03968   -0.03451
 35 Ir   -0.43851   -0.25873    0.54801
 36 O    -0.00878    0.00508    0.79228

BFGS:    3 23:31:02   -11739.740404        0.7923
System changes: positions 

Initializing position-dependent things.

Density initialized from wave functions
                                            
                                            
                                            
                                            
                                            
                    O                       
          Ir     Ir     Ir                  
            Ir    IIr     Ir                
           Ir            Ir                 
             IIr    IIr    IIr              
               Ir     Ir     Ir             
              Ir     Ir     Ir              
                Ir     Ir     Ir            
                  Ir     Ir     Ir          
          Ir     Ir     Ir                  
            Ir     Ir     Ir                
              Ir     Ir     Ir              
                                            
                                            
                                            
                                            

Positions:
   0 Ir     0.000000    0.000000    9.999999    ( 0.0000,  0.0000,  0.0000)
   1 Ir     1.378048    0.795616   12.250341    ( 0.0000,  0.0000,  0.0000)
   2 Ir    -0.004239    1.595691   14.445796    ( 0.0000,  0.0000,  0.0000)
   3 Ir    -0.009932    0.005711   16.667867    ( 0.0000,  0.0000,  0.0000)
   4 Ir    -1.378048    2.386848    9.999999    ( 0.0000,  0.0000,  0.0000)
   5 Ir     0.000000    3.182464   12.250341    ( 0.0000,  0.0000,  0.0000)
   6 Ir    -1.376896    3.971541   14.445849    ( 0.0000,  0.0000,  0.0000)
   7 Ir    -1.406099    2.370466   16.666600    ( 0.0000,  0.0000,  0.0000)
   8 Ir    -2.756095    4.773697    9.999999    ( 0.0000,  0.0000,  0.0000)
   9 Ir    -1.378048    5.569313   12.250341    ( 0.0000,  0.0000,  0.0000)
  10 Ir    -2.753973    6.363701   14.439741    ( 0.0000,  0.0000,  0.0000)
  11 Ir    -2.756701    4.762086   16.671372    ( 0.0000,  0.0000,  0.0000)
  12 Ir     2.756095    0.000000    9.999999    ( 0.0000,  0.0000,  0.0000)
  13 Ir     4.134143    0.795616   12.250341    ( 0.0000,  0.0000,  0.0000)
  14 Ir     2.761995    1.594799   14.445640    ( 0.0000,  0.0000,  0.0000)
  15 Ir     2.765857    0.006313   16.671371    ( 0.0000,  0.0000,  0.0000)
  16 Ir     1.378048    2.386848    9.999999    ( 0.0000,  0.0000,  0.0000)
  17 Ir     2.756095    3.182464   12.250341    ( 0.0000,  0.0000,  0.0000)
  18 Ir     1.379047    3.977501   14.412222    ( 0.0000,  0.0000,  0.0000)
  19 Ir     1.378287    2.254755   16.667150    ( 0.0000,  0.0000,  0.0000)
  20 Ir     0.000000    4.773697    9.999999    ( 0.0000,  0.0000,  0.0000)
  21 Ir     1.378048    5.569313   12.250341    ( 0.0000,  0.0000,  0.0000)
  22 Ir     0.006240    6.367197   14.445847    ( 0.0000,  0.0000,  0.0000)
  23 Ir    -0.115305    4.840253   16.666003    ( 0.0000,  0.0000,  0.0000)
  24 Ir     5.512190    0.000000    9.999999    ( 0.0000,  0.0000,  0.0000)
  25 Ir     6.890238    0.795616   12.250341    ( 0.0000,  0.0000,  0.0000)
  26 Ir     5.512880    1.590831   14.434205    ( 0.0000,  0.0000,  0.0000)
  27 Ir     5.512351    0.032477   16.666602    ( 0.0000,  0.0000,  0.0000)
  28 Ir     4.134143    2.386848    9.999999    ( 0.0000,  0.0000,  0.0000)
  29 Ir     5.512190    3.182464   12.250341    ( 0.0000,  0.0000,  0.0000)
  30 Ir     4.134000    3.971189   14.445644    ( 0.0000,  0.0000,  0.0000)
  31 Ir     4.161583    2.371005   16.666391    ( 0.0000,  0.0000,  0.0000)
  32 Ir     2.756095    4.773697    9.999999    ( 0.0000,  0.0000,  0.0000)
  33 Ir     4.134143    5.569313   12.250341    ( 0.0000,  0.0000,  0.0000)
  34 Ir     2.750113    6.366362   14.445798    ( 0.0000,  0.0000,  0.0000)
  35 Ir     2.870590    4.839511   16.667151    ( 0.0000,  0.0000,  0.0000)
  36 O      1.375982    3.979215   17.784149    ( 0.0000,  0.0000,  0.0000)

Unit cell:
           periodic     x           y           z      points  spacing
  1. axis:    yes    8.268285    0.000000    0.000000    40     0.1790
  2. axis:    yes   -4.134143    7.160545    0.000000    40     0.1790
  3. axis:    no     0.000000    0.000000   26.751025   148     0.1808

  Lengths:   8.268285   8.268285  26.751025
  Angles:   90.000000  90.000000 120.000000

Effective grid spacing dv^(1/3) = 0.1884

     iter     time        total  log10-change:
                         energy  eigst   dens
iter:   1 23:32:47 -11741.448041  -1.90
iter:   2 23:33:30 -11765.615127  -1.38  -1.95
iter:   3 23:34:14 -11739.847180  -1.82  -1.37
iter:   4 23:34:58 -11739.861859  -2.64  -2.80
iter:   5 23:35:41 -11739.806772c -3.64  -2.64
iter:   6 23:36:25 -11739.803151c -4.16  -3.10
iter:   7 23:37:08 -11739.800023c -4.27  -3.27
iter:   8 23:37:52 -11739.801028c -4.44  -3.52
iter:   9 23:38:35 -11739.799898c -4.81  -3.36
iter:  10 23:39:19 -11739.799341c -5.12  -3.63
iter:  11 23:40:02 -11739.799531c -5.61  -3.78
iter:  12 23:40:46 -11739.799249c -5.72  -3.84
iter:  13 23:41:29 -11739.799314c -5.74  -3.81
iter:  14 23:42:13 -11739.799299c -5.93  -4.10c
iter:  15 23:42:56 -11739.799196c -6.20  -4.07c
iter:  16 23:43:40 -11739.799246c -6.85  -4.07c
iter:  17 23:44:23 -11739.799176c -6.39  -4.27c
iter:  18 23:45:07 -11739.799271c -6.61  -4.45c
iter:  19 23:45:50 -11739.799194c -6.88  -4.45c
iter:  20 23:46:34 -11739.799207c -7.42c -4.48c

Converged after 20 iterations.

Dipole moment: (-0.926680, -9.500805, -0.018457) |e|*Ang

Energy contributions relative to reference atoms: (reference = -17443495.428383)

Kinetic:       +1121.197259
Potential:     -1071.734230
External:        +0.000000
XC:            -11782.650878
Entropy (-ST):   -1.492857
Local:           -5.864929
--------------------------
Free energy:   -11740.545635
Extrapolated:  -11739.799207

Showing only first 2 kpts
 Kpt  Band  Eigenvalues  Occupancy
  0   271     -5.74323    1.21946
  0   272     -5.69207    0.96731
  0   273     -5.65416    0.78132
  0   274     -5.59712    0.53204

  1   271     -5.82935    1.57416
  1   272     -5.74558    1.23064
  1   273     -5.72066    1.10980
  1   274     -5.71279    1.07079


Fermi level: -5.69861

No gap

Forces in eV/Ang:
  0 Ir   -0.03163    0.01827    0.28925
  1 Ir    0.01341   -0.00392   -0.44126
  2 Ir    0.08146    0.02007    0.06788
  3 Ir   -0.03492    0.02029   -0.13813
  4 Ir    0.06538    0.03849    0.30905
  5 Ir   -0.14166   -0.07652   -0.48643
  6 Ir    0.06400    0.04994    0.06796
  7 Ir    0.04567    0.01975   -0.11281
  8 Ir    0.00433   -0.04314    0.31080
  9 Ir   -0.02547    0.01471   -0.44588
 10 Ir    0.00556   -0.00318    0.00729
 11 Ir    0.00275   -0.03884   -0.14415
 12 Ir    0.03953    0.01783    0.31079
 13 Ir   -0.03972   -0.02460   -0.50401
 14 Ir   -0.06778    0.02029    0.07812
 15 Ir    0.03493    0.01712   -0.14419
 16 Ir    0.00345   -0.01290    0.29114
 17 Ir    0.13034   -0.07524   -0.47841
 18 Ir    0.00671   -0.00391    0.21069
 19 Ir    0.00148    0.71007    0.49077
 20 Ir   -0.00966    0.00559    0.27312
 21 Ir   -0.00455    0.16093   -0.48643
 22 Ir   -0.01128   -0.08045    0.06797
 23 Ir    0.60419   -0.34888    0.47078
 24 Ir   -0.00064   -0.07587    0.30902
 25 Ir    0.01193   -0.00691   -0.50001
 26 Ir    0.01171   -0.00677   -0.07329
 27 Ir    0.00568   -0.04952   -0.11283
 28 Ir   -0.06607    0.03816    0.28419
 29 Ir    0.00143    0.04670   -0.50402
 30 Ir   -0.05143    0.04844    0.07798
 31 Ir   -0.04737    0.02730   -0.10584
 32 Ir    0.01289    0.00348    0.29114
 33 Ir    0.01010   -0.00965   -0.44125
 34 Ir    0.02330   -0.08054    0.06774
 35 Ir   -0.61425   -0.35639    0.49092
 36 O    -0.00634    0.00372    0.36422

BFGS:    4 23:46:59   -11739.799207        0.8633
System changes: positions 

Initializing position-dependent things.

Density initialized from wave functions
                                            
                                            
                                            
                                            
                                            
                    O                       
          Ir     Ir     Ir                  
                                            
           IIr    IIr    IIr                
             IIr    IIr    IIr              
                                            
              IIr    IIr    IIr             
                                            
                Ir     Ir     Ir            
                  Ir     Ir     Ir          
          Ir     Ir     Ir                  
            Ir     Ir     Ir                
              Ir     Ir     Ir              
                                            
                                            
                                            
                                            

Positions:
   0 Ir     0.000000    0.000000    9.999999    ( 0.0000,  0.0000,  0.0000)
   1 Ir     1.378048    0.795616   12.250341    ( 0.0000,  0.0000,  0.0000)
   2 Ir    -0.002515    1.597903   14.442845    ( 0.0000,  0.0000,  0.0000)
   3 Ir    -0.015885    0.009144   16.660588    ( 0.0000,  0.0000,  0.0000)
   4 Ir    -1.378048    2.386848    9.999999    ( 0.0000,  0.0000,  0.0000)
   5 Ir     0.000000    3.182464   12.250341    ( 0.0000,  0.0000,  0.0000)
   6 Ir    -1.373465    3.971229   14.442686    ( 0.0000,  0.0000,  0.0000)
   7 Ir    -1.411546    2.367004   16.658910    ( 0.0000,  0.0000,  0.0000)
   8 Ir    -2.756095    4.773697    9.999999    ( 0.0000,  0.0000,  0.0000)
   9 Ir    -1.378048    5.569313   12.250341    ( 0.0000,  0.0000,  0.0000)
  10 Ir    -2.753292    6.363308   14.431856    ( 0.0000,  0.0000,  0.0000)
  11 Ir    -2.756714    4.755251   16.663579    ( 0.0000,  0.0000,  0.0000)
  12 Ir     2.756095    0.000000    9.999999    ( 0.0000,  0.0000,  0.0000)
  13 Ir     4.134143    0.795616   12.250341    ( 0.0000,  0.0000,  0.0000)
  14 Ir     2.761166    1.596940   14.443046    ( 0.0000,  0.0000,  0.0000)
  15 Ir     2.771771    0.009739   16.663576    ( 0.0000,  0.0000,  0.0000)
  16 Ir     1.378048    2.386848    9.999999    ( 0.0000,  0.0000,  0.0000)
  17 Ir     2.756095    3.182464   12.250341    ( 0.0000,  0.0000,  0.0000)
  18 Ir     1.379402    3.977293   14.409933    ( 0.0000,  0.0000,  0.0000)
  19 Ir     1.378432    2.269157   16.698755    ( 0.0000,  0.0000,  0.0000)
  20 Ir     0.000000    4.773697    9.999999    ( 0.0000,  0.0000,  0.0000)
  21 Ir     1.378048    5.569313   12.250341    ( 0.0000,  0.0000,  0.0000)
  22 Ir     0.008224    6.364378   14.442684    ( 0.0000,  0.0000,  0.0000)
  23 Ir    -0.103860    4.833636   16.696947    ( 0.0000,  0.0000,  0.0000)
  24 Ir     5.512190    0.000000    9.999999    ( 0.0000,  0.0000,  0.0000)
  25 Ir     6.890238    0.795616   12.250341    ( 0.0000,  0.0000,  0.0000)
  26 Ir     5.513922    1.590228   14.420369    ( 0.0000,  0.0000,  0.0000)
  27 Ir     5.512623    0.038919   16.658911    ( 0.0000,  0.0000,  0.0000)
  28 Ir     4.134143    2.386848    9.999999    ( 0.0000,  0.0000,  0.0000)
  29 Ir     5.512190    3.182464   12.250341    ( 0.0000,  0.0000,  0.0000)
  30 Ir     4.131731    3.970831   14.443046    ( 0.0000,  0.0000,  0.0000)
  31 Ir     4.166818    2.367980   16.659176    ( 0.0000,  0.0000,  0.0000)
  32 Ir     2.756095    4.773697    9.999999    ( 0.0000,  0.0000,  0.0000)
  33 Ir     4.134143    5.569313   12.250341    ( 0.0000,  0.0000,  0.0000)
  34 Ir     2.749056    6.363762   14.442842    ( 0.0000,  0.0000,  0.0000)
  35 Ir     2.858212    4.832188   16.698745    ( 0.0000,  0.0000,  0.0000)
  36 O      1.375086    3.979742   17.876920    ( 0.0000,  0.0000,  0.0000)

Unit cell:
           periodic     x           y           z      points  spacing
  1. axis:    yes    8.268285    0.000000    0.000000    40     0.1790
  2. axis:    yes   -4.134143    7.160545    0.000000    40     0.1790
  3. axis:    no     0.000000    0.000000   26.751025   148     0.1808

  Lengths:   8.268285   8.268285  26.751025
  Angles:   90.000000  90.000000 120.000000

Effective grid spacing dv^(1/3) = 0.1884

     iter     time        total  log10-change:
                         energy  eigst   dens
iter:   1 23:48:43 -11743.118942  -1.49
iter:   2 23:49:26 -11789.744629  -1.04  -1.80
iter:   3 23:50:10 -11740.069303  -1.54  -1.25
iter:   4 23:50:53 -11739.991631  -2.27  -2.42
iter:   5 23:51:36 -11739.886282c -3.33  -2.49
iter:   6 23:52:20 -11739.880872c -3.87  -2.94
iter:   7 23:53:03 -11739.876339c -3.98  -3.11
iter:   8 23:53:47 -11739.875799c -4.08  -3.31
iter:   9 23:54:30 -11739.876280c -4.53  -3.39
iter:  10 23:55:13 -11739.875210c -5.04  -3.45
iter:  11 23:55:57 -11739.875182c -5.25  -3.60
iter:  12 23:56:40 -11739.874841c -5.17  -3.75
iter:  13 23:57:24 -11739.875332c -5.59  -3.89
iter:  14 23:58:07 -11739.875012c -6.14  -3.87
iter:  15 23:58:51 -11739.874999c -6.20  -4.12c
iter:  16 23:59:34 -11739.875152c -6.08  -4.14c
iter:  17 00:00:17 -11739.875009c -6.73  -4.18c
iter:  18 00:01:01 -11739.875031c -7.07  -4.39c
iter:  19 00:01:44 -11739.874964c -6.71  -4.53c
iter:  20 00:02:28 -11739.875044c -7.40c -4.47c

Converged after 20 iterations.

Dipole moment: (0.306057, -10.205808, -0.042427) |e|*Ang

Energy contributions relative to reference atoms: (reference = -17443495.428383)

Kinetic:       +1113.975700
Potential:     -1065.583870
External:        +0.000000
XC:            -11781.674751
Entropy (-ST):   -1.486545
Local:           -5.848850
--------------------------
Free energy:   -11740.618317
Extrapolated:  -11739.875044

Showing only first 2 kpts
 Kpt  Band  Eigenvalues  Occupancy
  0   271     -5.77087    1.25038
  0   272     -5.70842    0.94364
  0   273     -5.67777    0.79335
  0   274     -5.61133    0.50561

  1   271     -5.84184    1.54461
  1   272     -5.77120    1.25195
  1   273     -5.73990    1.10063
  1   274     -5.73092    1.05602


Fermi level: -5.71970

No gap

Forces in eV/Ang:
  0 Ir   -0.03194    0.01845    0.27633
  1 Ir    0.01480    0.01604   -0.47368
  2 Ir    0.14271   -0.00673    0.19239
  3 Ir    0.06612   -0.03791   -0.11143
  4 Ir    0.07226    0.04089    0.31976
  5 Ir   -0.11055   -0.06049   -0.50153
  6 Ir    0.06721    0.11132    0.19592
  7 Ir    0.12955    0.06646   -0.07751
  8 Ir    0.00472   -0.04324    0.29717
  9 Ir   -0.00768    0.00444   -0.48138
 10 Ir   -0.00070    0.00042    0.15637
 11 Ir    0.00285    0.07434   -0.11972
 12 Ir    0.03981    0.01754    0.29717
 13 Ir   -0.06123   -0.03811   -0.54087
 14 Ir   -0.12507   -0.00158    0.20171
 15 Ir   -0.06312   -0.03948   -0.11973
 16 Ir    0.00324   -0.01714    0.27587
 17 Ir    0.10319   -0.05957   -0.48934
 18 Ir    0.00718   -0.00416    0.32900
 19 Ir   -0.00715    0.73202    0.30671
 20 Ir   -0.01299    0.00751    0.25979
 21 Ir   -0.00288    0.12594   -0.50153
 22 Ir   -0.06284   -0.11389    0.19593
 23 Ir    0.64293   -0.37121    0.33297
 24 Ir    0.00073   -0.08302    0.31974
 25 Ir    0.03679   -0.02125   -0.53959
 26 Ir    0.00855   -0.00494    0.11087
 27 Ir    0.00717   -0.14553   -0.07754
 28 Ir   -0.07215    0.04166    0.29453
 29 Ir    0.00238    0.07206   -0.54089
 30 Ir   -0.06114    0.10900    0.20160
 31 Ir   -0.13079    0.07546   -0.07304
 32 Ir    0.01646    0.00578    0.27587
 33 Ir   -0.00648   -0.02084   -0.47368
 34 Ir    0.07715   -0.12017    0.19228
 35 Ir   -0.63783   -0.35996    0.30702
 36 O    -0.00722    0.00431   -0.21831

BFGS:    5 00:02:52   -11739.875044        0.8137
System changes: positions 

Initializing position-dependent things.

Density initialized from wave functions
                                            
                                            
                                            
                                            
                                            
                    O                       
          Ir     Ir     Ir                  
                                            
           IIr    IIr    IIr                
             IIr    IIr    IIr              
                                            
              IIr    IIr    IIr             
                                            
                Ir     Ir     Ir            
                  Ir     Ir     Ir          
          Ir     Ir     Ir                  
            Ir     Ir     Ir                
              Ir     Ir     Ir              
                                            
                                            
                                            
                                            

Positions:
   0 Ir     0.000000    0.000000    9.999999    ( 0.0000,  0.0000,  0.0000)
   1 Ir     1.378048    0.795616   12.250341    ( 0.0000,  0.0000,  0.0000)
   2 Ir     0.000825    1.598884   14.444668    ( 0.0000,  0.0000,  0.0000)
   3 Ir    -0.017671    0.010178   16.655130    ( 0.0000,  0.0000,  0.0000)
   4 Ir    -1.378048    2.386848    9.999999    ( 0.0000,  0.0000,  0.0000)
   5 Ir     0.000000    3.182464   12.250341    ( 0.0000,  0.0000,  0.0000)
   6 Ir    -1.370585    3.972996   14.444463    ( 0.0000,  0.0000,  0.0000)
   7 Ir    -1.412124    2.366365   16.653783    ( 0.0000,  0.0000,  0.0000)
   8 Ir    -2.756095    4.773697    9.999999    ( 0.0000,  0.0000,  0.0000)
   9 Ir    -1.378048    5.569313   12.250341    ( 0.0000,  0.0000,  0.0000)
  10 Ir    -2.752963    6.363119   14.430588    ( 0.0000,  0.0000,  0.0000)
  11 Ir    -2.756678    4.753168   16.657714    ( 0.0000,  0.0000,  0.0000)
  12 Ir     2.756095    0.000000    9.999999    ( 0.0000,  0.0000,  0.0000)
  13 Ir     4.134143    0.795616   12.250341    ( 0.0000,  0.0000,  0.0000)
  14 Ir     2.758591    1.597983   14.445200    ( 0.0000,  0.0000,  0.0000)
  15 Ir     2.773591    0.010751   16.657710    ( 0.0000,  0.0000,  0.0000)
  16 Ir     1.378048    2.386848    9.999999    ( 0.0000,  0.0000,  0.0000)
  17 Ir     2.756095    3.182464   12.250341    ( 0.0000,  0.0000,  0.0000)
  18 Ir     1.379703    3.977118   14.414241    ( 0.0000,  0.0000,  0.0000)
  19 Ir     1.378371    2.288430   16.719853    ( 0.0000,  0.0000,  0.0000)
  20 Ir     0.000000    4.773697    9.999999    ( 0.0000,  0.0000,  0.0000)
  21 Ir     1.378048    5.569313   12.250341    ( 0.0000,  0.0000,  0.0000)
  22 Ir     0.008133    6.360998   14.444460    ( 0.0000,  0.0000,  0.0000)
  23 Ir    -0.087482    4.824175   16.718329    ( 0.0000,  0.0000,  0.0000)
  24 Ir     5.512190    0.000000    9.999999    ( 0.0000,  0.0000,  0.0000)
  25 Ir     6.890238    0.795616   12.250341    ( 0.0000,  0.0000,  0.0000)
  26 Ir     5.514599    1.589836   14.415353    ( 0.0000,  0.0000,  0.0000)
  27 Ir     5.512885    0.039734   16.653784    ( 0.0000,  0.0000,  0.0000)
  28 Ir     4.134143    2.386848    9.999999    ( 0.0000,  0.0000,  0.0000)
  29 Ir     5.512190    3.182464   12.250341    ( 0.0000,  0.0000,  0.0000)
  30 Ir     4.129540    3.972535   14.445195    ( 0.0000,  0.0000,  0.0000)
  31 Ir     4.167270    2.367716   16.654361    ( 0.0000,  0.0000,  0.0000)
  32 Ir     2.756095    4.773697    9.999999    ( 0.0000,  0.0000,  0.0000)
  33 Ir     4.134143    5.569313   12.250341    ( 0.0000,  0.0000,  0.0000)
  34 Ir     2.749874    6.360379   14.444660    ( 0.0000,  0.0000,  0.0000)
  35 Ir     2.841496    4.822603   16.719843    ( 0.0000,  0.0000,  0.0000)
  36 O      1.374496    3.980090   17.920400    ( 0.0000,  0.0000,  0.0000)

Unit cell:
           periodic     x           y           z      points  spacing
  1. axis:    yes    8.268285    0.000000    0.000000    40     0.1790
  2. axis:    yes   -4.134143    7.160545    0.000000    40     0.1790
  3. axis:    no     0.000000    0.000000   26.751025   148     0.1808

  Lengths:   8.268285   8.268285  26.751025
  Angles:   90.000000  90.000000 120.000000

Effective grid spacing dv^(1/3) = 0.1884

     iter     time        total  log10-change:
                         energy  eigst   dens
iter:   1 00:04:36 -11740.255519  -1.97
iter:   2 00:05:20 -11746.213932  -1.99  -2.29
iter:   3 00:06:03 -11739.932049  -2.46  -1.65
iter:   4 00:06:47 -11739.925978  -3.32  -3.09
iter:   5 00:07:30 -11739.925087c -4.12  -3.14
iter:   6 00:08:14 -11739.924900c -4.59  -3.31
iter:   7 00:08:57 -11739.923434c -4.72  -3.42
iter:   8 00:09:40 -11739.923864c -5.08  -3.67
iter:   9 00:10:24 -11739.923735c -5.37  -3.64
iter:  10 00:11:07 -11739.923615c -5.86  -3.89
iter:  11 00:11:51 -11739.923902c -6.01  -3.91
iter:  12 00:12:34 -11739.923701c -6.24  -4.05c
iter:  13 00:13:18 -11739.923844c -6.22  -4.09c
iter:  14 00:14:01 -11739.923744c -6.25  -4.27c
iter:  15 00:14:45 -11739.923731c -6.68  -4.34c
iter:  16 00:15:28 -11739.923756c -7.41c -4.48c

Converged after 16 iterations.

Dipole moment: (0.733009, -10.460764, -0.050040) |e|*Ang

Energy contributions relative to reference atoms: (reference = -17443495.428383)

Kinetic:       +1110.324386
Potential:     -1062.455292
External:        +0.000000
XC:            -11781.206840
Entropy (-ST):   -1.485572
Local:           -5.843224
--------------------------
Free energy:   -11740.666542
Extrapolated:  -11739.923756

Showing only first 2 kpts
 Kpt  Band  Eigenvalues  Occupancy
  0   271     -5.78182    1.26487
  0   272     -5.71271    0.92591
  0   273     -5.68629    0.79660
  0   274     -5.61730    0.49856

  1   271     -5.84636    1.53279
  1   272     -5.78302    1.27047
  1   273     -5.74521    1.08808
  1   274     -5.73619    1.04318


Fermi level: -5.72755

No gap

Forces in eV/Ang:
  0 Ir   -0.03097    0.01789    0.26983
  1 Ir    0.01639    0.02504   -0.47998
  2 Ir    0.12293   -0.01992    0.19490
  3 Ir    0.10619   -0.06107   -0.02698
  4 Ir    0.07621    0.04233    0.33668
  5 Ir   -0.08487   -0.04737   -0.48201
  6 Ir    0.04415    0.10076    0.20072
  7 Ir    0.11793    0.06084   -0.02385
  8 Ir    0.00481   -0.04186    0.29003
  9 Ir    0.00111   -0.00064   -0.48930
 10 Ir   -0.00270    0.00157    0.16451
 11 Ir    0.00334    0.11756   -0.03597
 12 Ir    0.03866    0.01677    0.29003
 13 Ir   -0.07600   -0.04866   -0.52918
 14 Ir   -0.10526   -0.01245    0.19957
 15 Ir   -0.10030   -0.06155   -0.03597
 16 Ir    0.00311   -0.01844    0.27032
 17 Ir    0.07967   -0.04600   -0.46812
 18 Ir    0.00359   -0.00207    0.28040
 19 Ir   -0.00646    0.50427    0.12820
 20 Ir   -0.01401    0.00810    0.25597
 21 Ir   -0.00142    0.09713   -0.48201
 22 Ir   -0.06522   -0.08863    0.20072
 23 Ir    0.46411   -0.26792    0.14887
 24 Ir    0.00145   -0.08717    0.33666
 25 Ir    0.05424   -0.03132   -0.53063
 26 Ir    0.00506   -0.00293    0.19110
 27 Ir    0.00624   -0.13266   -0.02389
 28 Ir   -0.07584    0.04379    0.31156
 29 Ir    0.00413    0.09012   -0.52922
 30 Ir   -0.04182    0.09732    0.19953
 31 Ir   -0.11581    0.06683   -0.02270
 32 Ir    0.01752    0.00654    0.27032
 33 Ir   -0.01348   -0.02671   -0.47999
 34 Ir    0.07870   -0.09646    0.19486
 35 Ir   -0.44023   -0.24668    0.12848
 36 O    -0.00302    0.00198   -0.12719

BFGS:    6 00:15:53   -11739.923756        0.5562
System changes: positions 

Initializing position-dependent things.

Density initialized from wave functions
                                            
                                            
                                            
                                            
                                            
                    O                       
          Ir     Ir     Ir                  
                                            
           IIr    IIr    IIr                
             IIr    IIr    IIr              
                                            
              IIr    IIr    IIr             
                                            
                Ir     Ir     Ir            
                  Ir     Ir     Ir          
          Ir     Ir     Ir                  
            Ir     Ir     Ir                
              Ir     Ir     Ir              
                                            
                                            
                                            
                                            

Positions:
   0 Ir     0.000000    0.000000    9.999999    ( 0.0000,  0.0000,  0.0000)
   1 Ir     1.378048    0.795616   12.250341    ( 0.0000,  0.0000,  0.0000)
   2 Ir     0.007416    1.599640   14.450927    ( 0.0000,  0.0000,  0.0000)
   3 Ir    -0.017451    0.010058   16.648536    ( 0.0000,  0.0000,  0.0000)
   4 Ir    -1.378048    2.386848    9.999999    ( 0.0000,  0.0000,  0.0000)
   5 Ir     0.000000    3.182464   12.250341    ( 0.0000,  0.0000,  0.0000)
   6 Ir    -1.366171    3.977160   14.450807    ( 0.0000,  0.0000,  0.0000)
   7 Ir    -1.410749    2.366620   16.647209    ( 0.0000,  0.0000,  0.0000)
   8 Ir    -2.756095    4.773697    9.999999    ( 0.0000,  0.0000,  0.0000)
   9 Ir    -1.378048    5.569313   12.250341    ( 0.0000,  0.0000,  0.0000)
  10 Ir    -2.752597    6.362908   14.432113    ( 0.0000,  0.0000,  0.0000)
  11 Ir    -2.756553    4.753251   16.650387    ( 0.0000,  0.0000,  0.0000)
  12 Ir     2.756095    0.000000    9.999999    ( 0.0000,  0.0000,  0.0000)
  13 Ir     4.134143    0.795616   12.250341    ( 0.0000,  0.0000,  0.0000)
  14 Ir     2.753385    1.599003   14.451928    ( 0.0000,  0.0000,  0.0000)
  15 Ir     2.773575    0.010604   16.650381    ( 0.0000,  0.0000,  0.0000)
  16 Ir     1.378048    2.386848    9.999999    ( 0.0000,  0.0000,  0.0000)
  17 Ir     2.756095    3.182464   12.250341    ( 0.0000,  0.0000,  0.0000)
  18 Ir     1.380121    3.976874   14.424941    ( 0.0000,  0.0000,  0.0000)
  19 Ir     1.378189    2.321622   16.748627    ( 0.0000,  0.0000,  0.0000)
  20 Ir     0.000000    4.773697    9.999999    ( 0.0000,  0.0000,  0.0000)
  21 Ir     1.378048    5.569313   12.250341    ( 0.0000,  0.0000,  0.0000)
  22 Ir     0.006731    6.355090   14.450804    ( 0.0000,  0.0000,  0.0000)
  23 Ir    -0.058327    4.807337   16.747760    ( 0.0000,  0.0000,  0.0000)
  24 Ir     5.512190    0.000000    9.999999    ( 0.0000,  0.0000,  0.0000)
  25 Ir     6.890238    0.795616   12.250341    ( 0.0000,  0.0000,  0.0000)
  26 Ir     5.515564    1.589278   14.413455    ( 0.0000,  0.0000,  0.0000)
  27 Ir     5.513348    0.038408   16.647209    ( 0.0000,  0.0000,  0.0000)
  28 Ir     4.134143    2.386848    9.999999    ( 0.0000,  0.0000,  0.0000)
  29 Ir     5.512190    3.182464   12.250341    ( 0.0000,  0.0000,  0.0000)
  30 Ir     4.126054    3.976528   14.451918    ( 0.0000,  0.0000,  0.0000)
  31 Ir     4.165827    2.368546   16.648180    ( 0.0000,  0.0000,  0.0000)
  32 Ir     2.756095    4.773697    9.999999    ( 0.0000,  0.0000,  0.0000)
  33 Ir     4.134143    5.569313   12.250341    ( 0.0000,  0.0000,  0.0000)
  34 Ir     2.752513    6.354295   14.450913    ( 0.0000,  0.0000,  0.0000)
  35 Ir     2.812662    4.806162   16.748622    ( 0.0000,  0.0000,  0.0000)
  36 O      1.373715    3.980556   17.977870    ( 0.0000,  0.0000,  0.0000)

Unit cell:
           periodic     x           y           z      points  spacing
  1. axis:    yes    8.268285    0.000000    0.000000    40     0.1790
  2. axis:    yes   -4.134143    7.160545    0.000000    40     0.1790
  3. axis:    no     0.000000    0.000000   26.751025   148     0.1808

  Lengths:   8.268285   8.268285  26.751025
  Angles:   90.000000  90.000000 120.000000

Effective grid spacing dv^(1/3) = 0.1884

     iter     time        total  log10-change:
                         energy  eigst   dens
iter:   1 00:17:36 -11740.076747  -1.64
iter:   2 00:18:20 -11740.504713  -2.51  -2.50
iter:   3 00:19:03 -11740.088222  -2.95  -2.18
iter:   4 00:19:46 -11739.963522  -3.77  -2.48
iter:   5 00:20:30 -11739.962872c -4.30  -3.04
iter:   6 00:21:13 -11739.959565c -4.21  -3.13
iter:   7 00:21:57 -11739.958843c -4.21  -3.29
iter:   8 00:22:40 -11739.958453c -4.56  -3.50
iter:   9 00:23:23 -11739.959880c -5.12  -3.63
iter:  10 00:24:06 -11739.959336c -5.41  -3.43
iter:  11 00:24:50 -11739.958495c -5.81  -3.52
iter:  12 00:25:33 -11739.959088c -5.43  -3.79
iter:  13 00:26:16 -11739.958875c -5.67  -3.92
iter:  14 00:27:00 -11739.958909c -5.93  -4.02c
iter:  15 00:27:43 -11739.958833c -6.38  -4.11c
iter:  16 00:28:26 -11739.958921c -6.47  -4.06c
iter:  17 00:29:10 -11739.958901c -6.70  -4.00c
iter:  18 00:29:53 -11739.958814c -6.69  -4.36c
iter:  19 00:30:36 -11739.958892c -6.58  -4.42c
iter:  20 00:31:19 -11739.958874c -7.10  -4.54c
iter:  21 00:32:03 -11739.958891c -7.25  -4.63c
iter:  22 00:32:46 -11739.958876c -7.20  -4.78c
iter:  23 00:33:29 -11739.958856c -7.47c -4.49c

Converged after 23 iterations.

Dipole moment: (0.955258, -10.612706, -0.055778) |e|*Ang

Energy contributions relative to reference atoms: (reference = -17443495.428383)

Kinetic:       +1106.075306
Potential:     -1058.808856
External:        +0.000000
XC:            -11780.646267
Entropy (-ST):   -1.488009
Local:           -5.835033
--------------------------
Free energy:   -11740.702860
Extrapolated:  -11739.958856

Showing only first 2 kpts
 Kpt  Band  Eigenvalues  Occupancy
  0   271     -5.79046    1.27390
  0   272     -5.71520    0.90506
  0   273     -5.69230    0.79327
  0   274     -5.62354    0.49683

  1   271     -5.84697    1.51063
  1   272     -5.79771    1.30706
  1   273     -5.74617    1.05956
  1   274     -5.73997    1.02859


Fermi level: -5.73425

No gap

Forces in eV/Ang:
  0 Ir   -0.02941    0.01699    0.26869
  1 Ir    0.01902    0.04345   -0.46605
  2 Ir    0.07622   -0.03481    0.14657
  3 Ir    0.17056   -0.09838    0.08783
  4 Ir    0.08398    0.04536    0.36734
  5 Ir   -0.04358   -0.02641   -0.41899
  6 Ir    0.00664    0.07043    0.15477
  7 Ir    0.05380    0.02794    0.04844
  8 Ir    0.00486   -0.03920    0.28830
  9 Ir    0.01884   -0.01089   -0.47751
 10 Ir   -0.00404    0.00229    0.16579
 11 Ir    0.00631    0.18898    0.08148
 12 Ir    0.03638    0.01540    0.28831
 13 Ir   -0.08739   -0.05729   -0.48600
 14 Ir   -0.05935   -0.02518    0.14008
 15 Ir   -0.16061   -0.09994    0.08152
 16 Ir    0.00283   -0.02020    0.27242
 17 Ir    0.04148   -0.02397   -0.40315
 18 Ir   -0.00232    0.00137    0.10640
 19 Ir    0.00781    0.08686   -0.12030
 20 Ir   -0.01521    0.00879    0.26076
 21 Ir    0.00106    0.05088   -0.41901
 22 Ir   -0.05769   -0.04095    0.15476
 23 Ir    0.08626   -0.04974   -0.11734
 24 Ir    0.00271   -0.09541    0.36732
 25 Ir    0.06999   -0.04040   -0.49262
 26 Ir   -0.00475    0.00273    0.25240
 27 Ir    0.00270   -0.06064    0.04840
 28 Ir   -0.08308    0.04797    0.34283
 29 Ir    0.00591    0.10428   -0.48607
 30 Ir   -0.00787    0.06401    0.14019
 31 Ir   -0.04604    0.02657    0.04591
 32 Ir    0.01889    0.00766    0.27241
 33 Ir   -0.02811   -0.03820   -0.46606
 34 Ir    0.06828   -0.04860    0.14666
 35 Ir   -0.07147   -0.05023   -0.12015
 36 O     0.02289   -0.01320   -0.00546

BFGS:    7 00:33:55   -11739.958856        0.2525
System changes: positions 

Initializing position-dependent things.

Density initialized from wave functions
                                            
                                            
                                            
                                            
                                            
                    O                       
          Ir     Ir     Ir                  
                                            
           IIr    IIr    IIr                
             IIr    IIr    IIr              
                                            
              IIr    IIr    IIr             
                                            
                Ir     Ir     Ir            
                  Ir     Ir     Ir          
          Ir     Ir     Ir                  
            Ir     Ir     Ir                
              Ir     Ir     Ir              
                                            
                                            
                                            
                                            

Positions:
   0 Ir     0.000000    0.000000    9.999999    ( 0.0000,  0.0000,  0.0000)
   1 Ir     1.378048    0.795616   12.250341    ( 0.0000,  0.0000,  0.0000)
   2 Ir     0.009041    1.598894   14.454258    ( 0.0000,  0.0000,  0.0000)
   3 Ir    -0.014047    0.008096   16.650088    ( 0.0000,  0.0000,  0.0000)
   4 Ir    -1.378048    2.386848    9.999999    ( 0.0000,  0.0000,  0.0000)
   5 Ir     0.000000    3.182464   12.250341    ( 0.0000,  0.0000,  0.0000)
   6 Ir    -1.366072    3.978730   14.454301    ( 0.0000,  0.0000,  0.0000)
   7 Ir    -1.408836    2.367665   16.648303    ( 0.0000,  0.0000,  0.0000)
   8 Ir    -2.756095    4.773697    9.999999    ( 0.0000,  0.0000,  0.0000)
   9 Ir    -1.378048    5.569313   12.250341    ( 0.0000,  0.0000,  0.0000)
  10 Ir    -2.752718    6.362977   14.435955    ( 0.0000,  0.0000,  0.0000)
  11 Ir    -2.756436    4.757049   16.651851    ( 0.0000,  0.0000,  0.0000)
  12 Ir     2.756095    0.000000    9.999999    ( 0.0000,  0.0000,  0.0000)
  13 Ir     4.134143    0.795616   12.250341    ( 0.0000,  0.0000,  0.0000)
  14 Ir     2.752025    1.598435   14.455172    ( 0.0000,  0.0000,  0.0000)
  15 Ir     2.770342    0.008606   16.651846    ( 0.0000,  0.0000,  0.0000)
  16 Ir     1.378048    2.386848    9.999999    ( 0.0000,  0.0000,  0.0000)
  17 Ir     2.756095    3.182464   12.250341    ( 0.0000,  0.0000,  0.0000)
  18 Ir     1.380082    3.976897   14.428395    ( 0.0000,  0.0000,  0.0000)
  19 Ir     1.378282    2.325675   16.745766    ( 0.0000,  0.0000,  0.0000)
  20 Ir     0.000000    4.773697    9.999999    ( 0.0000,  0.0000,  0.0000)
  21 Ir     1.378048    5.569313   12.250341    ( 0.0000,  0.0000,  0.0000)
  22 Ir     0.005420    6.354219   14.454298    ( 0.0000,  0.0000,  0.0000)
  23 Ir    -0.054490    4.805123   16.745040    ( 0.0000,  0.0000,  0.0000)
  24 Ir     5.512190    0.000000    9.999999    ( 0.0000,  0.0000,  0.0000)
  25 Ir     6.890238    0.795616   12.250341    ( 0.0000,  0.0000,  0.0000)
  26 Ir     5.515439    1.589350   14.419023    ( 0.0000,  0.0000,  0.0000)
  27 Ir     5.513400    0.036227   16.648302    ( 0.0000,  0.0000,  0.0000)
  28 Ir     4.134143    2.386848    9.999999    ( 0.0000,  0.0000,  0.0000)
  29 Ir     5.512190    3.182464   12.250341    ( 0.0000,  0.0000,  0.0000)
  30 Ir     4.125867    3.977990   14.455164    ( 0.0000,  0.0000,  0.0000)
  31 Ir     4.164057    2.369568   16.649213    ( 0.0000,  0.0000,  0.0000)
  32 Ir     2.756095    4.773697    9.999999    ( 0.0000,  0.0000,  0.0000)
  33 Ir     4.134143    5.569313   12.250341    ( 0.0000,  0.0000,  0.0000)
  34 Ir     2.753972    6.353261   14.454245    ( 0.0000,  0.0000,  0.0000)
  35 Ir     2.809193    4.804054   16.745766    ( 0.0000,  0.0000,  0.0000)
  36 O      1.374128    3.980318   17.968615    ( 0.0000,  0.0000,  0.0000)

Unit cell:
           periodic     x           y           z      points  spacing
  1. axis:    yes    8.268285    0.000000    0.000000    40     0.1790
  2. axis:    yes   -4.134143    7.160545    0.000000    40     0.1790
  3. axis:    no     0.000000    0.000000   26.751025   148     0.1808

  Lengths:   8.268285   8.268285  26.751025
  Angles:   90.000000  90.000000 120.000000

Effective grid spacing dv^(1/3) = 0.1884

     iter     time        total  log10-change:
                         energy  eigst   dens
iter:   1 00:35:38 -11740.309896  -2.69
iter:   2 00:36:22 -11745.894231  -2.02  -2.28
iter:   3 00:37:05 -11740.003440  -2.46  -1.66
iter:   4 00:37:48 -11739.969862  -3.31  -2.83
iter:   5 00:38:31 -11739.968120c -4.20  -3.22
iter:   6 00:39:14 -11739.966584c -4.66  -3.34
iter:   7 00:39:57 -11739.965756c -4.85  -3.67
iter:   8 00:40:41 -11739.965937c -5.23  -3.86
iter:   9 00:41:24 -11739.966246c -5.68  -3.80
iter:  10 00:42:07 -11739.965636c -5.96  -3.73
iter:  11 00:42:50 -11739.965724c -6.38  -4.12c
iter:  12 00:43:33 -11739.965691c -6.55  -4.18c
iter:  13 00:44:16 -11739.965731c -6.61  -4.21c
iter:  14 00:44:59 -11739.965698c -6.88  -4.41c
iter:  15 00:45:43 -11739.965693c -7.15  -4.49c
iter:  16 00:46:26 -11739.965744c -7.62c -4.61c

Converged after 16 iterations.

Dipole moment: (0.516043, -10.368794, -0.050769) |e|*Ang

Energy contributions relative to reference atoms: (reference = -17443495.428383)

Kinetic:       +1106.196298
Potential:     -1058.897913
External:        +0.000000
XC:            -11780.685060
Entropy (-ST):   -1.490852
Local:           -5.833642
--------------------------
Free energy:   -11740.711170
Extrapolated:  -11739.965744

Showing only first 2 kpts
 Kpt  Band  Eigenvalues  Occupancy
  0   271     -5.78566    1.26684
  0   272     -5.71170    0.90397
  0   273     -5.68847    0.79065
  0   274     -5.62109    0.49994

  1   271     -5.84409    1.51212
  1   272     -5.79494    1.30937
  1   273     -5.74148    1.05249
  1   274     -5.73783    1.03431


Fermi level: -5.73097

No gap

Forces in eV/Ang:
  0 Ir   -0.02945    0.01701    0.27284
  1 Ir    0.01930    0.03890   -0.44548
  2 Ir    0.04248   -0.02295    0.09677
  3 Ir    0.13134   -0.07580    0.09967
  4 Ir    0.08465    0.04574    0.37286
  5 Ir   -0.04711   -0.02851   -0.39109
  6 Ir    0.00174    0.03834    0.10237
  7 Ir    0.01384    0.00524    0.05956
  8 Ir    0.00487   -0.03913    0.29216
  9 Ir    0.01555   -0.00899   -0.45600
 10 Ir   -0.00224    0.00125    0.09339
 11 Ir    0.00474    0.14590    0.09556
 12 Ir    0.03633    0.01535    0.29216
 13 Ir   -0.07997   -0.05401   -0.45194
 14 Ir   -0.02865   -0.01529    0.08739
 15 Ir   -0.12405   -0.07707    0.09559
 16 Ir    0.00287   -0.01900    0.27880
 17 Ir    0.04416   -0.02552   -0.37698
 18 Ir   -0.00322    0.00189    0.02357
 19 Ir    0.01057   -0.02280   -0.13119
 20 Ir   -0.01389    0.00803    0.26756
 21 Ir    0.00111    0.05500   -0.39111
 22 Ir   -0.03235   -0.02066    0.10237
 23 Ir   -0.01515    0.00879   -0.13048
 24 Ir    0.00272   -0.09618    0.37284
 25 Ir    0.06295   -0.03634   -0.45830
 26 Ir   -0.00580    0.00334    0.18299
 27 Ir    0.00238   -0.01467    0.05954
 28 Ir   -0.08386    0.04842    0.34844
 29 Ir    0.00678    0.09622   -0.45200
 30 Ir   -0.00109    0.03248    0.08748
 31 Ir   -0.00481    0.00277    0.05740
 32 Ir    0.01788    0.00702    0.27880
 33 Ir   -0.02402   -0.03617   -0.44547
 34 Ir    0.04115   -0.02532    0.09687
 35 Ir    0.02497    0.00224   -0.13111
 36 O     0.01071   -0.00615    0.19568

BFGS:    8 00:46:50   -11739.965744        0.1961
System changes: positions 

Initializing position-dependent things.

Density initialized from wave functions
                                            
                                            
                                            
                                            
                                            
                    O                       
          Ir     Ir     Ir                  
                                            
           IIr    IIr    IIr                
             IIr    IIr    IIr              
                                            
              IIr    IIr    IIr             
                                            
                Ir     Ir     Ir            
                  Ir     Ir     Ir          
          Ir     Ir     Ir                  
            Ir     Ir     Ir                
              Ir     Ir     Ir              
                                            
                                            
                                            
                                            

Positions:
   0 Ir     0.000000    0.000000    9.999999    ( 0.0000,  0.0000,  0.0000)
   1 Ir     1.378048    0.795616   12.250341    ( 0.0000,  0.0000,  0.0000)
   2 Ir     0.011354    1.597890   14.459003    ( 0.0000,  0.0000,  0.0000)
   3 Ir    -0.008673    0.004996   16.653247    ( 0.0000,  0.0000,  0.0000)
   4 Ir    -1.378048    2.386848    9.999999    ( 0.0000,  0.0000,  0.0000)
   5 Ir     0.000000    3.182464   12.250341    ( 0.0000,  0.0000,  0.0000)
   6 Ir    -1.365804    3.980825   14.459287    ( 0.0000,  0.0000,  0.0000)
   7 Ir    -1.407124    2.368528   16.650250    ( 0.0000,  0.0000,  0.0000)
   8 Ir    -2.756095    4.773697    9.999999    ( 0.0000,  0.0000,  0.0000)
   9 Ir    -1.378048    5.569313   12.250341    ( 0.0000,  0.0000,  0.0000)
  10 Ir    -2.752840    6.363046   14.440770    ( 0.0000,  0.0000,  0.0000)
  11 Ir    -2.756242    4.763029   16.654836    ( 0.0000,  0.0000,  0.0000)
  12 Ir     2.756095    0.000000    9.999999    ( 0.0000,  0.0000,  0.0000)
  13 Ir     4.134143    0.795616   12.250341    ( 0.0000,  0.0000,  0.0000)
  14 Ir     2.750260    1.597739   14.459649    ( 0.0000,  0.0000,  0.0000)
  15 Ir     2.765257    0.005449   16.654832    ( 0.0000,  0.0000,  0.0000)
  16 Ir     1.378048    2.386848    9.999999    ( 0.0000,  0.0000,  0.0000)
  17 Ir     2.756095    3.182464   12.250341    ( 0.0000,  0.0000,  0.0000)
  18 Ir     1.379994    3.976949   14.431719    ( 0.0000,  0.0000,  0.0000)
  19 Ir     1.378592    2.329435   16.741819    ( 0.0000,  0.0000,  0.0000)
  20 Ir     0.000000    4.773697    9.999999    ( 0.0000,  0.0000,  0.0000)
  21 Ir     1.378048    5.569313   12.250341    ( 0.0000,  0.0000,  0.0000)
  22 Ir     0.003740    6.352940   14.459284    ( 0.0000,  0.0000,  0.0000)
  23 Ir    -0.050912    4.803059   16.741245    ( 0.0000,  0.0000,  0.0000)
  24 Ir     5.512190    0.000000    9.999999    ( 0.0000,  0.0000,  0.0000)
  25 Ir     6.890238    0.795616   12.250341    ( 0.0000,  0.0000,  0.0000)
  26 Ir     5.515245    1.589462   14.426988    ( 0.0000,  0.0000,  0.0000)
  27 Ir     5.513508    0.034310   16.650248    ( 0.0000,  0.0000,  0.0000)
[...]
  13 Ir     4.134143    0.795616   12.250341    ( 0.0000,  0.0000,  0.0000)
  14 Ir     2.750336    1.596701   14.465519    ( 0.0000,  0.0000,  0.0000)
  15 Ir     2.756385   -0.000062   16.667188    ( 0.0000,  0.0000,  0.0000)
  16 Ir     1.378048    2.386848    9.999999    ( 0.0000,  0.0000,  0.0000)
  17 Ir     2.756095    3.182464   12.250341    ( 0.0000,  0.0000,  0.0000)
  18 Ir     1.379669    3.977139   14.429610    ( 0.0000,  0.0000,  0.0000)
  19 Ir     1.379857    2.335199   16.741784    ( 0.0000,  0.0000,  0.0000)
  20 Ir     0.000000    4.773697    9.999999    ( 0.0000,  0.0000,  0.0000)
  21 Ir     1.378048    5.569313   12.250341    ( 0.0000,  0.0000,  0.0000)
  22 Ir     0.002667    6.352871   14.466821    ( 0.0000,  0.0000,  0.0000)
  23 Ir    -0.045238    4.799788   16.741516    ( 0.0000,  0.0000,  0.0000)
  24 Ir     5.512190    0.000000    9.999999    ( 0.0000,  0.0000,  0.0000)
  25 Ir     6.890238    0.795616   12.250341    ( 0.0000,  0.0000,  0.0000)
  26 Ir     5.514758    1.589741   14.438976    ( 0.0000,  0.0000,  0.0000)
  27 Ir     5.514112    0.035277   16.659774    ( 0.0000,  0.0000,  0.0000)
  28 Ir     4.134143    2.386848    9.999999    ( 0.0000,  0.0000,  0.0000)
  29 Ir     5.512190    3.182464   12.250341    ( 0.0000,  0.0000,  0.0000)
  30 Ir     4.126521    3.980322   14.465520    ( 0.0000,  0.0000,  0.0000)
  31 Ir     4.164837    2.369114   16.660313    ( 0.0000,  0.0000,  0.0000)
  32 Ir     2.756095    4.773697    9.999999    ( 0.0000,  0.0000,  0.0000)
  33 Ir     4.134143    5.569313   12.250341    ( 0.0000,  0.0000,  0.0000)
  34 Ir     2.757946    6.351499   14.466124    ( 0.0000,  0.0000,  0.0000)
  35 Ir     2.801728    4.797930   16.741797    ( 0.0000,  0.0000,  0.0000)
  36 O      1.377188    3.978550   17.997785    ( 0.0000,  0.0000,  0.0000)

Unit cell:
           periodic     x           y           z      points  spacing
  1. axis:    yes    8.268285    0.000000    0.000000    40     0.1790
  2. axis:    yes   -4.134143    7.160545    0.000000    40     0.1790
  3. axis:    no     0.000000    0.000000   26.751025   148     0.1808

  Lengths:   8.268285   8.268285  26.751025
  Angles:   90.000000  90.000000 120.000000

Effective grid spacing dv^(1/3) = 0.1884

     iter     time        total  log10-change:
                         energy  eigst   dens
iter:   1 01:41:50 -11740.045254  -3.84
iter:   2 01:42:34 -11741.378945  -2.74  -2.63
iter:   3 01:43:17 -11739.977829  -3.16  -1.96
iter:   4 01:44:00 -11739.976997  -4.11  -3.63
iter:   5 01:44:43 -11739.977175c -4.92  -3.76
iter:   6 01:45:27 -11739.977037c -5.56  -4.09c
iter:   7 01:46:10 -11739.976978c -5.90  -4.05c
iter:   8 01:46:53 -11739.976997c -6.39  -4.28c
iter:   9 01:47:36 -11739.976965c -6.43  -4.24c
iter:  10 01:48:20 -11739.976979c -6.94  -4.68c
iter:  11 01:49:03 -11739.976939c -7.61c -4.70c

Converged after 11 iterations.

Dipole moment: (-0.850315, -9.590364, -0.060213) |e|*Ang

Energy contributions relative to reference atoms: (reference = -17443495.428383)

Kinetic:       +1099.292454
Potential:     -1053.003869
External:        +0.000000
XC:            -11779.698649
Entropy (-ST):   -1.499745
Local:           -5.817002
--------------------------
Free energy:   -11740.726811
Extrapolated:  -11739.976939

Showing only first 2 kpts
 Kpt  Band  Eigenvalues  Occupancy
  0   271     -5.79665    1.25235
  0   272     -5.72558    0.90291
  0   273     -5.70205    0.78819
  0   274     -5.63571    0.50189

  1   271     -5.84977    1.48041
  1   272     -5.81724    1.34600
  1   273     -5.75799    1.06452
  1   274     -5.74690    1.00916


Fermi level: -5.74506

No gap

Forces in eV/Ang:
  0 Ir   -0.02848    0.01645    0.28558
  1 Ir    0.01853    0.02888   -0.37093
  2 Ir   -0.01442    0.00258    0.01232
  3 Ir   -0.00857    0.00494    0.01173
  4 Ir    0.08831    0.04820    0.37398
  5 Ir   -0.08089   -0.04809   -0.31814
  6 Ir   -0.00464   -0.01160    0.01304
  7 Ir   -0.00041   -0.00383    0.03544
  8 Ir    0.00529   -0.03832    0.30227
  9 Ir    0.01106   -0.00640   -0.37650
 10 Ir    0.00196   -0.00113    0.00887
 11 Ir   -0.00032   -0.01266    0.02024
 12 Ir    0.03583    0.01458    0.30228
 13 Ir   -0.04840   -0.04212   -0.35556
 14 Ir    0.01275    0.00003    0.01176
 15 Ir    0.01080    0.00661    0.02022
 16 Ir    0.00381   -0.01839    0.29246
 17 Ir    0.07085   -0.04091   -0.31281
 18 Ir    0.00035   -0.00021    0.00227
 19 Ir    0.00249    0.02275    0.03914
 20 Ir   -0.01230    0.00712    0.28197
 21 Ir    0.00120    0.09407   -0.31815
 22 Ir    0.00773    0.00982    0.01304
 23 Ir    0.02570   -0.01484    0.04177
 24 Ir    0.00242   -0.10058    0.37395
 25 Ir    0.03538   -0.02045   -0.35693
 26 Ir   -0.00008    0.00005   -0.00507
 27 Ir    0.00310    0.00228    0.03546
 28 Ir   -0.08816    0.05090    0.34911
 29 Ir    0.01226    0.06294   -0.35559
 30 Ir    0.00635   -0.01106    0.01174
 31 Ir    0.00788   -0.00456    0.03297
 32 Ir    0.01782    0.00591    0.29246
 33 Ir   -0.01575   -0.03050   -0.37092
 34 Ir   -0.00945    0.01120    0.01231
 35 Ir   -0.01845   -0.01352    0.03914
 36 O    -0.00018    0.00007   -0.08596

BFGS:   13 01:49:27   -11739.976939        0.0860
System changes: positions 

Initializing position-dependent things.

Density initialized from wave functions
                                            
                                            
                                            
                                            
                                            
                    O                       
          Ir     Ir     Ir                  
                                            
           IIr    IIr    IIr                
             IIr    IIr    IIr              
                                            
              IIr    IIr    IIr             
                                            
                Ir     Ir     Ir            
                  Ir     Ir     Ir          
          Ir     Ir     Ir                  
            Ir     Ir     Ir                
              Ir     Ir     Ir              
                                            
                                            
                                            
                                            

Positions:
   0 Ir     0.000000    0.000000    9.999999    ( 0.0000,  0.0000,  0.0000)
   1 Ir     1.378048    0.795616   12.250341    ( 0.0000,  0.0000,  0.0000)
   2 Ir     0.011503    1.596373   14.466286    ( 0.0000,  0.0000,  0.0000)
   3 Ir     0.000545   -0.000325   16.666446    ( 0.0000,  0.0000,  0.0000)
   4 Ir    -1.378048    2.386848    9.999999    ( 0.0000,  0.0000,  0.0000)
   5 Ir     0.000000    3.182464   12.250341    ( 0.0000,  0.0000,  0.0000)
   6 Ir    -1.366777    3.981007   14.466996    ( 0.0000,  0.0000,  0.0000)
   7 Ir    -1.407667    2.367374   16.661910    ( 0.0000,  0.0000,  0.0000)
   8 Ir    -2.756095    4.773697    9.999999    ( 0.0000,  0.0000,  0.0000)
   9 Ir    -1.378048    5.569313   12.250341    ( 0.0000,  0.0000,  0.0000)
  10 Ir    -2.752658    6.362938   14.443223    ( 0.0000,  0.0000,  0.0000)
  11 Ir    -2.755932    4.772951   16.668792    ( 0.0000,  0.0000,  0.0000)
  12 Ir     2.756095    0.000000    9.999999    ( 0.0000,  0.0000,  0.0000)
  13 Ir     4.134143    0.795616   12.250341    ( 0.0000,  0.0000,  0.0000)
  14 Ir     2.751248    1.596622   14.465594    ( 0.0000,  0.0000,  0.0000)
  15 Ir     2.756811    0.000217   16.668789    ( 0.0000,  0.0000,  0.0000)
  16 Ir     1.378048    2.386848    9.999999    ( 0.0000,  0.0000,  0.0000)
  17 Ir     2.756095    3.182464   12.250341    ( 0.0000,  0.0000,  0.0000)
  18 Ir     1.379649    3.977150   14.429014    ( 0.0000,  0.0000,  0.0000)
  19 Ir     1.379974    2.335106   16.742034    ( 0.0000,  0.0000,  0.0000)
  20 Ir     0.000000    4.773697    9.999999    ( 0.0000,  0.0000,  0.0000)
  21 Ir     1.378048    5.569313   12.250341    ( 0.0000,  0.0000,  0.0000)
  22 Ir     0.003093    6.353693   14.466993    ( 0.0000,  0.0000,  0.0000)
  23 Ir    -0.045034    4.799670   16.741879    ( 0.0000,  0.0000,  0.0000)
  24 Ir     5.512190    0.000000    9.999999    ( 0.0000,  0.0000,  0.0000)
  25 Ir     6.890238    0.795616   12.250341    ( 0.0000,  0.0000,  0.0000)
  26 Ir     5.514693    1.589779   14.438897    ( 0.0000,  0.0000,  0.0000)
  27 Ir     5.514233    0.035352   16.661909    ( 0.0000,  0.0000,  0.0000)
  28 Ir     4.134143    2.386848    9.999999    ( 0.0000,  0.0000,  0.0000)
  29 Ir     5.512190    3.182464   12.250341    ( 0.0000,  0.0000,  0.0000)
  30 Ir     4.127046    3.979571   14.465595    ( 0.0000,  0.0000,  0.0000)
  31 Ir     4.165194    2.368908   16.662323    ( 0.0000,  0.0000,  0.0000)
  32 Ir     2.756095    4.773697    9.999999    ( 0.0000,  0.0000,  0.0000)
  33 Ir     4.134143    5.569313   12.250341    ( 0.0000,  0.0000,  0.0000)
  34 Ir     2.757389    6.352388   14.466283    ( 0.0000,  0.0000,  0.0000)
  35 Ir     2.801867    4.797876   16.742047    ( 0.0000,  0.0000,  0.0000)
  36 O      1.377305    3.978480   17.991105    ( 0.0000,  0.0000,  0.0000)

Unit cell:
           periodic     x           y           z      points  spacing
  1. axis:    yes    8.268285    0.000000    0.000000    40     0.1790
  2. axis:    yes   -4.134143    7.160545    0.000000    40     0.1790
  3. axis:    no     0.000000    0.000000   26.751025   148     0.1808

  Lengths:   8.268285   8.268285  26.751025
  Angles:   90.000000  90.000000 120.000000

Effective grid spacing dv^(1/3) = 0.1884

     iter     time        total  log10-change:
                         energy  eigst   dens
iter:   1 01:51:11 -11739.997624  -3.63
iter:   2 01:51:54 -11740.320741  -3.30  -2.91
iter:   3 01:52:38 -11739.984009  -3.64  -2.27
iter:   4 01:53:21 -11739.977622  -4.53  -3.22
iter:   5 01:54:04 -11739.977583c -5.23  -3.61
iter:   6 01:54:48 -11739.977514c -5.64  -3.98
iter:   7 01:55:31 -11739.977458c -6.01  -4.09c
iter:   8 01:56:15 -11739.977511c -5.99  -4.18c
iter:   9 01:56:58 -11739.977401c -6.18  -4.06c
iter:  10 01:57:41 -11739.977384c -6.81  -4.51c
iter:  11 01:58:25 -11739.977415c -7.59c -4.55c

Converged after 11 iterations.

Dipole moment: (-0.851393, -9.587454, -0.057644) |e|*Ang

Energy contributions relative to reference atoms: (reference = -17443495.428383)

Kinetic:       +1099.190791
Potential:     -1052.915565
External:        +0.000000
XC:            -11779.687256
Entropy (-ST):   -1.499799
Local:           -5.815486
--------------------------
Free energy:   -11740.727315
Extrapolated:  -11739.977415

Showing only first 2 kpts
 Kpt  Band  Eigenvalues  Occupancy
  0   271     -5.79396    1.25409
  0   272     -5.72250    0.90278
  0   273     -5.69902    0.78833
  0   274     -5.63231    0.50065

  1   271     -5.84734    1.48286
  1   272     -5.81358    1.34336
  1   273     -5.75514    1.06559
  1   274     -5.74443    1.01212


Fermi level: -5.74200

No gap

Forces in eV/Ang:
  0 Ir   -0.02892    0.01670    0.28749
  1 Ir    0.01799    0.03068   -0.36224
  2 Ir    0.00212    0.00162    0.01626
  3 Ir   -0.00561    0.00323   -0.00592
  4 Ir    0.08754    0.04780    0.37414
  5 Ir   -0.08270   -0.04873   -0.31427
  6 Ir    0.00296    0.00205    0.01883
  7 Ir   -0.00330   -0.00427    0.01066
  8 Ir    0.00539   -0.03902    0.30432
  9 Ir    0.01288   -0.00745   -0.36818
 10 Ir    0.00165   -0.00095    0.02301
 11 Ir    0.00134   -0.00930   -0.00184
 12 Ir    0.03648    0.01485    0.30432
 13 Ir   -0.04804   -0.04233   -0.35604
 14 Ir   -0.00277    0.00012    0.01805
 15 Ir    0.00871    0.00348   -0.00184
 16 Ir    0.00387   -0.01826    0.29348
 17 Ir    0.07232   -0.04176   -0.30857
 18 Ir    0.00134   -0.00077    0.00131
 19 Ir    0.00308   -0.02119    0.00797
 20 Ir   -0.01237    0.00715    0.28267
 21 Ir    0.00084    0.09596   -0.31428
 22 Ir   -0.00029   -0.00360    0.01883
 23 Ir   -0.01598    0.00922    0.00951
 24 Ir    0.00238   -0.09971    0.37412
 25 Ir    0.03498   -0.02022   -0.35662
 26 Ir    0.00141   -0.00082    0.00696
 27 Ir    0.00204    0.00499    0.01067
 28 Ir   -0.08736    0.05044    0.34943
 29 Ir    0.01262    0.06273   -0.35606
 30 Ir   -0.00149    0.00233    0.01804
 31 Ir    0.00769   -0.00444    0.00903
 32 Ir    0.01774    0.00579    0.29348
 33 Ir   -0.01758   -0.03094   -0.36223
 34 Ir   -0.00035   -0.00265    0.01626
 35 Ir    0.01990    0.00792    0.00797
 36 O     0.01026   -0.00601    0.00318

BFGS:   14 01:58:50   -11739.977415        0.0231
Timing:                                      incl.     excl.
-------------------------------------------------------------------
Density initialized from wave functions:    11.804    11.803   0.1% |
 Symmetrize density:                         0.001     0.001   0.0% |
Forces:                                    371.520   371.520   2.7% ||
Hamiltonian:                                54.475     0.002   0.0% |
 Atomic:                                     0.004     0.004   0.0% |
  XC Correction:                             0.000     0.000   0.0% |
 Calculate atomic Hamiltonians:              0.006     0.006   0.0% |
 Communicate:                                3.829     3.829   0.0% |
 Hartree integrate/restrict:                 0.148     0.148   0.0% |
 Initialize Hamiltonian:                     0.001     0.001   0.0% |
 Poisson:                                    2.608     0.096   0.0% |
  Communicate from 1D:                       0.199     0.199   0.0% |
  Communicate from 2D:                       0.454     0.454   0.0% |
  Communicate to 1D:                         0.119     0.119   0.0% |
  Communicate to 2D:                         0.474     0.474   0.0% |
  FFT 1D:                                    0.650     0.650   0.0% |
  FFT 2D:                                    0.618     0.618   0.0% |
 XC 3D grid:                                47.670    11.524   0.1% |
  VdW-DF integral:                          36.146     1.923   0.0% |
   Convolution:                              3.117     3.117   0.0% |
   FFT:                                      2.250     2.250   0.0% |
   gather:                                  10.627    10.627   0.1% |
   hmm1:                                     0.629     0.629   0.0% |
   hmm2:                                     1.320     1.320   0.0% |
   iFFT:                                     2.100     2.100   0.0% |
   potential:                               10.033     0.220   0.0% |
    collect:                                 0.672     0.672   0.0% |
    p1:                                      5.943     5.943   0.0% |
    p2:                                      2.049     2.049   0.0% |
    sum:                                     1.149     1.149   0.0% |
   splines:                                  4.147     4.147   0.0% |
 vbar:                                       0.207     0.207   0.0% |
LCAO initialization:                        39.658     1.074   0.0% |
 LCAO eigensolver:                          27.144     0.004   0.0% |
  Calculate projections:                     0.000     0.000   0.0% |
  DenseAtomicCorrection:                     0.000     0.000   0.0% |
  Distribute overlap matrix:                26.206    26.206   0.2% |
  Orbital Layouts:                           0.767     0.767   0.0% |
  Potential matrix:                          0.024     0.024   0.0% |
  Sum over cells:                            0.143     0.143   0.0% |
 LCAO to grid:                               9.629     9.629   0.1% |
 Set positions (LCAO WFS):                   1.811     1.292   0.0% |
  Basic WFS set positions:                   0.001     0.001   0.0% |
  Basis functions set positions:             0.000     0.000   0.0% |
  P tci:                                     0.000     0.000   0.0% |
  ST tci:                                    0.423     0.423   0.0% |
  mktci:                                     0.094     0.094   0.0% |
Redistribute:                                0.009     0.009   0.0% |
SCF-cycle:                               12414.117   208.128   1.5% ||
 Davidson:                               11180.251  3868.438  28.4% |----------|
  Apply hamiltonian:                       217.851   217.851   1.6% ||
  Subspace diag:                           926.608     0.038   0.0% |
   calc_h_matrix:                          463.490   256.545   1.9% ||
    Apply hamiltonian:                     206.945   206.945   1.5% ||
   diagonalize:                             19.421    19.421   0.1% |
   rotate_psi:                             443.658   443.658   3.3% ||
  calc. matrices:                         5188.669  1668.132  12.2% |----|
   Apply hamiltonian:                     3520.537  3520.537  25.8% |---------|
  diagonalize:                             133.689   133.689   1.0% |
  rotate_psi:                              844.996   844.996   6.2% |-|
 Density:                                   18.327     0.007   0.0% |
  Atomic density matrices:                   1.477     1.477   0.0% |
  Mix:                                       4.412     4.412   0.0% |
  Multipole moments:                         0.121     0.121   0.0% |
  Pseudo density:                           12.311    12.303   0.1% |
   Symmetrize density:                       0.008     0.008   0.0% |
 Hamiltonian:                              907.727     0.038   0.0% |
  Atomic:                                    0.075     0.074   0.0% |
   XC Correction:                            0.001     0.001   0.0% |
  Calculate atomic Hamiltonians:             0.104     0.104   0.0% |
  Communicate:                              69.620    69.620   0.5% |
  Hartree integrate/restrict:                2.601     2.601   0.0% |
  Poisson:                                  47.610     1.751   0.0% |
   Communicate from 1D:                      3.664     3.664   0.0% |
   Communicate from 2D:                      8.126     8.126   0.1% |
   Communicate to 1D:                        2.197     2.197   0.0% |
   Communicate to 2D:                        8.550     8.550   0.1% |
   FFT 1D:                                  11.955    11.955   0.1% |
   FFT 2D:                                  11.367    11.367   0.1% |
  XC 3D grid:                              787.200   210.982   1.5% ||
   VdW-DF integral:                        576.218    34.821   0.3% |
    Convolution:                            56.530    56.530   0.4% |
    FFT:                                    40.633    40.633   0.3% |
    gather:                                190.162   190.162   1.4% ||
    hmm1:                                   11.181    11.181   0.1% |
    hmm2:                                   23.868    23.868   0.2% |
    iFFT:                                   38.136    38.136   0.3% |
    potential:                             180.884     3.974   0.0% |
     collect:                               12.048    12.048   0.1% |
     p1:                                   107.645   107.645   0.8% |
     p2:                                    37.174    37.174   0.3% |
     sum:                                   20.043    20.043   0.1% |
    splines:                                 0.002     0.002   0.0% |
  vbar:                                      0.479     0.479   0.0% |
 Orthonormalize:                            99.684     0.004   0.0% |
  calc_s_matrix:                             5.948     5.948   0.0% |
  inverse-cholesky:                         82.352    82.352   0.6% |
  projections:                               0.001     0.001   0.0% |
  rotate_psi_s:                             11.379    11.379   0.1% |
Set symmetry:                                0.002     0.002   0.0% |
Other:                                     745.797   745.797   5.5% |-|
-------------------------------------------------------------------
Total:                                             13637.381 100.0%

Memory usage: 1.61 GiB
Date: Thu Sep 28 01:58:50 2023
