
  ___ ___ ___ _ _ _  
 |   |   |_  | | | | 
 | | | | | . | | | | 
 |__ |  _|___|_____|  22.8.0
 |___|_|             

User:   s204775@c131.nifl.fysik.dtu.dk
Date:   Tue Oct  3 14:34:23 2023
Arch:   x86_64
Pid:    176210
CWD:    /home/cat/s204775/projects/Bachelor_project/O_missing_features
Python: 3.10.4
gpaw:   /home/modules/software/GPAW/22.8.0-intel-2022a/lib/python3.10/site-packages/gpaw
_gpaw:  /home/modules/software/GPAW/22.8.0-intel-2022a/lib/python3.10/site-packages/
        _gpaw.cpython-310-x86_64-linux-gnu.so
ase:    /home/modules/software/ASE/3.22.1-intel-2022a/lib/python3.10/site-packages/ase (version 3.22.1)
numpy:  /home/modules/software/SciPy-bundle/2022.05-intel-2022a/lib/python3.10/site-packages/numpy (version 1.22.3)
scipy:  /home/modules/software/SciPy-bundle/2022.05-intel-2022a/lib/python3.10/site-packages/scipy (version 1.8.1)
libxc:  5.2.3
units:  Angstrom and eV
cores: 40
OpenMP: False
OMP_NUM_THREADS: 1

Input parameters:
  basis: dzp
  h: 0.18
  kpts: {size: (4, 4, 1)}
  maxiter: 3000
  xc: BEEF-vdW

System changes: positions, numbers, cell, pbc, initial_charges, initial_magmoms 

Initialize ...

species:
  Ni:
    name: Nickel
    id: 0d9f38a9d6e76a2886f07bb4381f212b
    Z: 28.0
    valence: 16
    core: 12
    charge: 0.0
    file: /home/modules/software/GPAW-setups/0.9.20000/Ni.PBE.gz
    compensation charges: {type: gauss,
                           rc: 0.36,
                           lmax: 2}
    cutoffs: {filter: 2.14,
              core: 1.98}
    valence states:
      #              energy  rcut
      - 4s(2.00)    -5.642   1.164
      - 3p(6.00)   -71.394   1.207
      - 4p(0.00)    -1.226   1.207
      - 3d(8.00)    -8.875   1.138
      -  s          21.570   1.164
      -  d          18.337   1.138
  
    # LCAO basis set for Ni:
    #   Name: dzp
    #   File: /home/modules/software/GPAW-setups/0.9.20000/Ni.dzp.basis.gz
    #   Number of radial functions: 9
    #   Number of spherical harmonics: 27
    #     l=0, rc=8.5156 Bohr: 4s-sz confined orbital
    #     l=1, rc=2.9375 Bohr: 3p-sz confined orbital
    #     l=1, rc=12.4062 Bohr: 4p-sz confined orbital
    #     l=2, rc=4.6875 Bohr: 3d-sz confined orbital
    #     l=0, rc=4.9688 Bohr: 4s-dz split-valence wave
    #     l=1, rc=2.0781 Bohr: 3p-dz split-valence wave
    #     l=1, rc=7.5469 Bohr: 4p-dz split-valence wave
    #     l=2, rc=2.9375 Bohr: 3d-dz split-valence wave
    #     l=1, rc=8.5156 Bohr: p-type Gaussian polarization
    #   Number of RI-basis functions 0

  O:
    name: Oxygen
    id: 32ecd46bf208036f09c70b0ec9a88b78
    Z: 8.0
    valence: 6
    core: 2
    charge: 0.0
    file: /home/modules/software/GPAW-setups/0.9.20000/O.PBE.gz
    compensation charges: {type: gauss,
                           rc: 0.21,
                           lmax: 2}
    cutoffs: {filter: 1.17,
              core: 0.83}
    valence states:
      #              energy  rcut
      - 2s(2.00)   -23.961   0.688
      - 2p(4.00)    -9.029   0.598
      -  s           3.251   0.688
      -  p          18.182   0.598
      -  d           0.000   0.619
  
    # LCAO basis set for O:
    #   Name: dzp
    #   File: /home/modules/software/GPAW-setups/0.9.20000/O.dzp.basis.gz
    #   Number of radial functions: 5
    #   Number of spherical harmonics: 13
    #     l=0, rc=4.3438 Bohr: 2s-sz confined orbital
    #     l=1, rc=5.3906 Bohr: 2p-sz confined orbital
    #     l=0, rc=2.2969 Bohr: 2s-dz split-valence wave
    #     l=1, rc=2.8906 Bohr: 2p-dz split-valence wave
    #     l=2, rc=5.3906 Bohr: d-type Gaussian polarization
    #   Number of RI-basis functions 0

Reference energy: -1491288.796404  # eV

Spin-polarized calculation.
Magnetic moment: 24.133853

Convergence criteria:
 Maximum [total energy] change in last 3 cyles: 0.0005 eV / electron
 Maximum integral of absolute [dens]ity change: 0.0001 electrons / valence electron
 Maximum integral of absolute [eigenst]ate change: 4e-08 eV^2 / valence electron
 Maximum number of scf [iter]ations: 3000
 (Square brackets indicate name in SCF output, whereas a 'c' in
 the SCF output indicates the quantity has converged.)

Symmetries present (total): 1

  ( 1  0  0)
  ( 0  1  0)
  ( 0  0  1)

16 k-points: 4 x 4 x 1 Monkhorst-Pack grid
8 k-points in the irreducible part of the Brillouin zone
       k-points in crystal coordinates                weights
   0:     0.12500000   -0.37500000    0.00000000          2/16
   1:     0.12500000   -0.12500000    0.00000000          2/16
   2:     0.12500000    0.12500000    0.00000000          2/16
   3:     0.12500000    0.37500000    0.00000000          2/16
   4:     0.37500000   -0.37500000    0.00000000          2/16
   5:     0.37500000   -0.12500000    0.00000000          2/16
   6:     0.37500000    0.12500000    0.00000000          2/16
   7:     0.37500000    0.37500000    0.00000000          2/16

Wave functions: Uniform real-space grid
  Kinetic energy operator: 8*3+1=25 point O(h^6) finite-difference Laplacian
  ScaLapack parameters: grid=1x1, blocksize=None
  Wavefunction extrapolation:
    Improved wavefunction reuse through dual PAW basis 

Occupation numbers: Fermi-Dirac:
  width: 0.1000  # eV
 

Eigensolver
   Davidson(niter=2) 

Densities:
  Coarse grid: 36*36*144 grid
  Fine grid: 72*72*288 grid
  Total Charge: 0.000000 

Density mixing:
  Method: difference
  Backend: pulay
  Linear mixing parameter: 0.05
  old densities: 5
  Damping of long wavelength oscillations: 50 

Hamiltonian:
  XC and Coulomb potentials evaluated on a 72*72*288 grid
  Using the BEEF-vdW Exchange-Correlation functional
  Interpolation: tri-quintic (5. degree polynomial)
  Poisson solver: FastPoissonSolver using
    Stencil: 8*3+1=25 point O(h^6) finite-difference Laplacian
    FFT axes: [0, 1]
    FST axes: [2]
 

XC parameters: BEEF-vdW with 2 nearest neighbor stencil

Memory estimate:
  Process memory now: 207.23 MiB
  Calculator: 699.58 MiB
    Density: 47.58 MiB
      Arrays: 9.85 MiB
      Localized functions: 33.86 MiB
      Mixer: 3.88 MiB
    Hamiltonian: 9.92 MiB
      Arrays: 7.32 MiB
      XC: 0.00 MiB
      Poisson: 0.00 MiB
      vbar: 2.60 MiB
    Wavefunctions: 642.08 MiB
      Arrays psit_nG: 407.53 MiB
      Eigensolver: 227.21 MiB
      Projections: 1.48 MiB
      Projectors: 5.85 MiB

Total number of cores used: 40
Parallelization over k-points: 8
Domain decomposition: 1 x 1 x 5

Number of atoms: 37
Number of atomic orbitals: 985
Number of bands in calculation: 368
Number of valence electrons: 582
Bands to converge: occupied

... initialized

Initializing position-dependent things.

Density initialized from atomic densities
Creating initial wave functions:
  368 bands from LCAO basis set

                                          
                                          
                                          
                                          
                                          
          Ni    Ni O  Ni                  
                                          
           NNi   NNi   NNi                
             NNi   NNi   NNi              
                                          
             NNi    NNi   NNi             
               Ni     Ni    Ni            
                 Ni    Ni     Ni          
          Ni    Ni    Ni                  
            Ni    Ni    Ni                
              Ni    Ni    Ni              
                                          
                                          
                                          
                                          

Positions:
   0 Ni    -0.000000    0.000000   10.000000    ( 0.0000,  0.0000,  0.6703)
   1 Ni     1.261746    0.728469   12.060422    ( 0.0000,  0.0000,  0.6693)
   2 Ni    -0.000000    1.456879   14.115099    ( 0.0000,  0.0000,  0.6697)
   3 Ni    -0.000000    0.000000   16.159108    ( 0.0000,  0.0000,  0.6722)
   4 Ni    -1.261746    2.185408   10.000000    ( 0.0000,  0.0000,  0.6703)
   5 Ni    -0.000000    2.913877   12.060422    ( 0.0000,  0.0000,  0.6693)
   6 Ni    -1.261752    3.642342   14.115047    ( 0.0000,  0.0000,  0.6697)
   7 Ni    -1.261722    2.185367   16.159160    ( 0.0000,  0.0000,  0.6722)
   8 Ni    -2.523491    4.370815   10.000000    ( 0.0000,  0.0000,  0.6703)
   9 Ni    -1.261746    5.099284   12.060422    ( 0.0000,  0.0000,  0.6693)
  10 Ni    -2.523542    5.827783   14.115099    ( 0.0000,  0.0000,  0.6697)
  11 Ni    -2.523515    4.370856   16.159160    ( 0.0000,  0.0000,  0.6722)
  12 Ni     2.523491    0.000000   10.000000    ( 0.0000,  0.0000,  0.6703)
  13 Ni     3.785237    0.728469   12.060422    ( 0.0000,  0.0000,  0.6693)
  14 Ni     2.523448    1.456914   14.115068    ( 0.0000,  0.0000,  0.6697)
  15 Ni     2.523444    0.000000   16.159160    ( 0.0000,  0.0000,  0.6722)
  16 Ni     1.261746    2.185408   10.000000    ( 0.0000,  0.0000,  0.6703)
  17 Ni     2.523491    2.913877   12.060422    ( 0.0000,  0.0000,  0.6693)
  18 Ni     1.261752    3.642342   14.115047    ( 0.0000,  0.0000,  0.6697)
  19 Ni     1.261722    2.185367   16.159160    ( 0.0000,  0.0000,  0.6722)
  20 Ni    -0.000000    4.370815   10.000000    ( 0.0000,  0.0000,  0.6703)
  21 Ni     1.261746    5.099284   12.060422    ( 0.0000,  0.0000,  0.6693)
  22 Ni    -0.000000    5.827761   14.115047    ( 0.0000,  0.0000,  0.6697)
  23 Ni    -0.000000    4.370815   16.159174    ( 0.0000,  0.0000,  0.6722)
  24 Ni     5.046982    0.000000   10.000000    ( 0.0000,  0.0000,  0.6703)
  25 Ni     6.308728    0.728469   12.060422    ( 0.0000,  0.0000,  0.6693)
  26 Ni     5.047025    1.456914   14.115068    ( 0.0000,  0.0000,  0.6697)
  27 Ni     5.047030    0.000000   16.159160    ( 0.0000,  0.0000,  0.6722)
  28 Ni     3.785237    2.185408   10.000000    ( 0.0000,  0.0000,  0.6703)
  29 Ni     5.046982    2.913877   12.060422    ( 0.0000,  0.0000,  0.6693)
  30 Ni     3.785237    3.642395   14.115068    ( 0.0000,  0.0000,  0.6697)
  31 Ni     3.785237    2.185408   16.159114    ( 0.0000,  0.0000,  0.6722)
  32 Ni     2.523491    4.370815   10.000000    ( 0.0000,  0.0000,  0.6703)
  33 Ni     3.785237    5.099284   12.060422    ( 0.0000,  0.0000,  0.6693)
  34 Ni     2.523542    5.827783   14.115099    ( 0.0000,  0.0000,  0.6697)
  35 Ni     2.523515    4.370856   16.159160    ( 0.0000,  0.0000,  0.6722)
  36 O      1.261722    3.642319   16.887636    ( 0.0000,  0.0000,  0.0000)

Unit cell:
           periodic     x           y           z      points  spacing
  1. axis:    yes    7.570474    0.000000    0.000000    36     0.1821
  2. axis:    yes   -3.785237    6.556223    0.000000    36     0.1821
  3. axis:    no     0.000000    0.000000   26.181266   144     0.1818

  Lengths:   7.570474   7.570474  26.181266
  Angles:   90.000000  90.000000 120.000000

Effective grid spacing dv^(1/3) = 0.1910

     iter     time        total  log10-change:  magmom
                         energy  eigst   dens
iter:   1 14:37:16 -2760.298145                  +23.8864
iter:   2 14:38:29 -2878.959391  -0.01  -1.44    +17.7032
iter:   3 14:39:42 -2779.268142  -0.44  -1.33    +13.5302
iter:   4 14:40:55 -2749.409221  -0.99  -1.57    +11.1288
iter:   5 14:42:07 -2751.270370  -1.43  -1.59    +11.9242
iter:   6 14:43:20 -2774.077171  -1.02  -1.65    +12.7654
iter:   7 14:44:33 -2764.413812  -1.38  -1.68    +12.4947
iter:   8 14:45:45 -2750.365236  -1.82  -1.70    +10.0556
iter:   9 14:46:58 -2741.546346  -1.98  -1.82    +11.5754
iter:  10 14:48:11 -2790.702136  -1.12  -1.90    +13.8729
iter:  11 14:49:23 -2737.843765  -1.78  -1.52    +12.5568
iter:  12 14:50:36 -2736.779808  -1.93  -1.89    +12.3981
iter:  13 14:51:49 -2741.396338  -1.49  -1.96    +15.5081
iter:  14 14:53:01 -2737.474801  -1.96  -1.94    +14.9657
iter:  15 14:54:14 -2734.566234  -2.08  -2.00    +14.7268
iter:  16 14:55:27 -2734.764835  -1.76  -2.06    +17.0695
iter:  17 14:56:39 -2739.905793  -2.04  -2.18    +17.1874
iter:  18 14:57:52 -2733.713294  -2.37  -1.95    +17.3269
iter:  19 14:59:05 -2734.916663  -2.28  -2.31    +18.8547
iter:  20 15:00:17 -2736.128903  -2.20  -2.32    +19.0399
iter:  21 15:01:30 -2733.352737  -2.74  -2.10    +19.9980
iter:  22 15:02:43 -2734.407207  -2.91  -2.61    +20.3412
iter:  23 15:03:55 -2733.144643  -2.98  -2.31    +20.8443
iter:  24 15:05:08 -2733.145604  -3.31  -2.91    +21.3047
iter:  25 15:06:21 -2733.187935c -3.90  -2.99    +21.1524
iter:  26 15:07:34 -2733.293209c -3.37  -3.02    +21.2578
iter:  27 15:08:46 -2733.291689c -3.35  -2.98    +21.6395
iter:  28 15:09:59 -2733.284911c -4.03  -3.21    +21.8542
iter:  29 15:11:12 -2733.330821c -4.15  -3.29    +22.1117
iter:  30 15:12:25 -2733.331013c -4.57  -2.97    +22.1247
iter:  31 15:13:37 -2733.332832c -3.91  -3.00    +22.3536
iter:  32 15:14:50 -2733.299439c -3.96  -2.99    +22.4634
iter:  33 15:16:03 -2733.301574c -4.50  -3.09    +22.5253
iter:  34 15:17:15 -2733.308850c -4.28  -3.09    +22.6064
iter:  35 15:18:28 -2733.319847c -4.52  -3.06    +22.6559
iter:  36 15:19:41 -2733.740048  -3.38  -3.03    +22.6742
iter:  37 15:20:53 -2733.293429  -3.75  -2.57    +22.7900
iter:  38 15:22:06 -2733.288877  -4.17  -3.04    +22.7450
iter:  39 15:23:18 -2733.289999c -4.73  -3.08    +22.7372
iter:  40 15:24:31 -2733.306559c -4.70  -3.10    +22.7399
iter:  41 15:25:44 -2733.271352c -5.08  -2.99    +22.7093
iter:  42 15:26:56 -2733.255622c -4.47  -3.21    +22.6905
iter:  43 15:28:09 -2733.253042c -5.38  -3.55    +22.7027
iter:  44 15:29:22 -2733.255360c -4.77  -3.69    +22.7129
iter:  45 15:30:34 -2733.266581c -4.12  -3.71    +22.6881
iter:  46 15:31:47 -2733.293503c -3.44  -3.51    +22.6971
iter:  47 15:33:00 -2733.271080c -3.52  -3.04    +22.7141
iter:  48 15:34:12 -2733.269097c -2.80  -3.84    +22.7587
iter:  49 15:35:25 -2733.284605c -3.67  -2.91    +22.7618
iter:  50 15:36:38 -2733.308685c -4.12  -3.34    +22.7628
iter:  51 15:37:50 -2733.308262c -4.91  -3.36    +22.7626
iter:  52 15:39:03 -2733.317857c -4.71  -3.36    +22.7272
iter:  53 15:40:15 -2733.330839c -4.28  -3.34    +22.7435
iter:  54 15:41:28 -2733.285281c -3.44  -3.25    +22.7324
iter:  55 15:42:41 -2733.287352c -4.41  -3.37    +22.6997
iter:  56 15:43:53 -2733.293834c -4.75  -3.46    +22.6095
iter:  57 15:45:06 -2733.310494c -4.62  -3.55    +22.6168
iter:  58 15:46:19 -2733.296785c -4.64  -3.38    +22.6275
iter:  59 15:47:31 -2733.314768c -4.65  -3.37    +22.6262
iter:  60 15:48:44 -2733.290318c -4.94  -3.36    +22.6372
iter:  61 15:49:57 -2733.296165c -5.26  -3.66    +22.6342
iter:  62 15:51:09 -2733.298091c -5.53  -3.66    +22.6318
iter:  63 15:52:22 -2733.295591c -5.73  -3.62    +22.6377
iter:  64 15:53:35 -2733.300086c -5.72  -3.83    +22.6440
iter:  65 15:54:47 -2733.296095c -6.05  -3.56    +22.6507
iter:  66 15:56:00 -2733.296651c -6.51  -3.71    +22.6506
iter:  67 15:57:12 -2733.294156c -5.60  -3.73    +22.6441
iter:  68 15:58:25 -2733.293484c -5.82  -4.10c   +22.6581
iter:  69 15:59:37 -2733.291760c -4.94  -4.02c   +22.6361
iter:  70 16:00:50 -2733.297109c -4.61  -3.69    +22.6355
iter:  71 16:02:03 -2733.298095c -4.80  -4.27c   +22.6387
iter:  72 16:03:15 -2733.297848c -5.32  -4.42c   +22.6479
iter:  73 16:04:28 -2733.298028c -5.85  -4.38c   +22.6492
iter:  74 16:05:41 -2733.297818c -6.14  -4.33c   +22.6502
iter:  75 16:06:53 -2733.297693c -6.43  -4.16c   +22.6548
iter:  76 16:08:06 -2733.297430c -5.94  -4.20c   +22.6597
iter:  77 16:09:18 -2733.297822c -5.12  -4.13c   +22.6776
iter:  78 16:10:31 -2733.297375c -5.40  -3.73    +22.6580
iter:  79 16:11:44 -2733.297494c -5.96  -4.07c   +22.6492
iter:  80 16:12:56 -2733.297822c -6.26  -4.14c   +22.6547
iter:  81 16:14:09 -2733.297253c -6.58  -3.94    +22.6513
iter:  82 16:15:22 -2733.297216c -6.74  -4.14c   +22.6571
iter:  83 16:16:34 -2733.297364c -6.31  -4.04c   +22.6578
iter:  84 16:17:47 -2733.299197c -5.61  -4.07c   +22.6666
iter:  85 16:18:59 -2733.297629c -6.24  -4.04c   +22.6729
iter:  86 16:20:12 -2733.297464c -6.25  -4.31c   +22.6775
iter:  87 16:21:25 -2733.297506c -6.75  -4.37c   +22.6783
iter:  88 16:22:37 -2733.297394c -7.12  -4.62c   +22.6780
iter:  89 16:23:50 -2733.297662c -7.09  -4.30c   +22.6760
iter:  90 16:25:02 -2733.297575c -7.44c -4.78c   +22.6765

Converged after 90 iterations.

Dipole moment: (-2.613193, -4.404806, 0.027780) |e|*Ang

Total magnetic moment: (0.000000, 0.000000, 22.676488)
Local magnetic moments:
   0 Ni ( 0.000000,  0.000000,  0.720364)
   1 Ni ( 0.000000,  0.000000,  0.721208)
   2 Ni ( 0.000000,  0.000000,  0.699278)
   3 Ni ( 0.000000,  0.000000,  0.676954)
   4 Ni ( 0.000000,  0.000000,  0.735410)
   5 Ni ( 0.000000,  0.000000,  0.728913)
   6 Ni ( 0.000000,  0.000000,  0.703409)
   7 Ni ( 0.000000,  0.000000,  0.690670)
   8 Ni ( 0.000000,  0.000000,  0.719199)
   9 Ni ( 0.000000,  0.000000,  0.720978)
  10 Ni ( 0.000000,  0.000000,  0.700577)
  11 Ni ( 0.000000,  0.000000,  0.682446)
  12 Ni ( 0.000000,  0.000000,  0.719195)
  13 Ni ( 0.000000,  0.000000,  0.723204)
  14 Ni ( 0.000000,  0.000000,  0.701221)
  15 Ni ( 0.000000,  0.000000,  0.682460)
  16 Ni ( 0.000000,  0.000000,  0.727568)
  17 Ni ( 0.000000,  0.000000,  0.730471)
  18 Ni ( 0.000000,  0.000000,  0.722495)
  19 Ni ( 0.000000,  0.000000,  0.259983)
  20 Ni ( 0.000000,  0.000000,  0.725059)
  21 Ni ( 0.000000,  0.000000,  0.728886)
  22 Ni ( 0.000000,  0.000000,  0.703441)
  23 Ni ( 0.000000,  0.000000,  0.251229)
  24 Ni ( 0.000000,  0.000000,  0.735397)
  25 Ni ( 0.000000,  0.000000,  0.721416)
  26 Ni ( 0.000000,  0.000000,  0.725057)
  27 Ni ( 0.000000,  0.000000,  0.690694)
  28 Ni ( 0.000000,  0.000000,  0.735510)
  29 Ni ( 0.000000,  0.000000,  0.723191)
  30 Ni ( 0.000000,  0.000000,  0.701201)
  31 Ni ( 0.000000,  0.000000,  0.692494)
  32 Ni ( 0.000000,  0.000000,  0.727567)
  33 Ni ( 0.000000,  0.000000,  0.721215)
  34 Ni ( 0.000000,  0.000000,  0.699289)
  35 Ni ( 0.000000,  0.000000,  0.260045)
  36 O  ( 0.000000,  0.000000,  0.042696)

Energy contributions relative to reference atoms: (reference = -1491288.796404)

Kinetic:       +979.999227
Potential:     -849.859868
External:        +0.000000
XC:            -2866.156380
Entropy (-ST):   -2.084391
Local:           +3.761641
--------------------------
Free energy:   -2734.339771
Extrapolated:  -2733.297575

Spin contamination: 1.967565 electrons
Showing only first 2 kpts
                      Up                     Down
 Kpt  Band  Eigenvalues  Occupancy  Eigenvalues  Occupancy
  0   289     -5.89807    0.99894     -5.05877    0.17641
  0   290     -5.88905    0.99884     -5.04600    0.15861
  0   291     -5.88453    0.99879     -5.01393    0.12032
  0   292     -5.87223    0.99863     -4.99359    0.10040

  1   289     -5.97202    0.99950     -5.13540    0.31548
  1   290     -5.96679    0.99947     -5.11363    0.27046
  1   291     -5.94796    0.99936     -5.10154    0.24727
  1   292     -5.91694    0.99913     -5.08592    0.21935


Fermi level: -5.21286

No gap

Forces in eV/Ang:
  0 Ni   -0.00100    0.00067    0.09819
  1 Ni    0.00074    0.01245   -0.10419
  2 Ni   -0.03074   -0.04919   -0.05808
  3 Ni    0.08039   -0.04651   -0.08414
  4 Ni    0.01403    0.01002    0.10591
  5 Ni   -0.00411   -0.00288   -0.07727
  6 Ni   -0.05862   -0.00295   -0.05924
  7 Ni   -0.48308   -0.28013   -0.15559
  8 Ni   -0.00272    0.00104    0.09715
  9 Ni    0.00958   -0.00548   -0.10162
 10 Ni    0.00159   -0.00106    0.03227
 11 Ni   -0.00276    0.09074   -0.08630
 12 Ni   -0.00222    0.00195    0.09715
 13 Ni    0.01332    0.00817   -0.11252
 14 Ni    0.03529   -0.04839   -0.06061
 15 Ni   -0.08001   -0.04310   -0.08631
 16 Ni   -0.00230   -0.00090    0.09474
 17 Ni    0.00482   -0.00273   -0.07750
 18 Ni    0.00014   -0.00026   -1.03238
 19 Ni   -0.00710   -5.17345   -1.88825
 20 Ni   -0.00331    0.00199    0.09570
 21 Ni    0.00048    0.00503   -0.07726
 22 Ni   -0.02680    0.05217   -0.05934
 23 Ni   -4.46165    2.57531   -1.88773
 24 Ni   -0.00157   -0.01703    0.10590
 25 Ni   -0.01255    0.00734   -0.11226
 26 Ni    0.00043   -0.00038    0.04523
 27 Ni    0.00108    0.55821   -0.15570
 28 Ni   -0.01532    0.00894    0.10543
 29 Ni   -0.00034   -0.01561   -0.11267
 30 Ni    0.05951   -0.00646   -0.06058
 31 Ni    0.48506   -0.28002   -0.15557
 32 Ni   -0.00033    0.00255    0.09475
 33 Ni   -0.01033   -0.00676   -0.10413
 34 Ni    0.02718    0.05116   -0.05815
 35 Ni    4.47581    2.59170   -1.88844
 36 O    -0.00281    0.00419    7.76952

      Step     Time          Energy         fmax
BFGS:    0 16:25:48    -2733.297575        7.7695
System changes: positions 

Initializing position-dependent things.

Density initialized from wave functions
                                          
                                          
                                          
                                          
                                          
                   O                      
          Ni    Ni     Ni                 
           NNi   NNi   NNi                
              Ni    Ni    Ni              
             Ni    Ni    Ni               
             NNi    NNi   NNi             
                                          
               Ni     Ni    Ni            
                 Ni    Ni     Ni          
          Ni    Ni    Ni                  
            Ni    Ni    Ni                
              Ni    Ni    Ni              
                                          
                                          
                                          
                                          

Positions:
   0 Ni    -0.000000    0.000000   10.000000    ( 0.0000,  0.0000,  0.6703)
   1 Ni     1.261746    0.728469   12.060422    ( 0.0000,  0.0000,  0.6693)
   2 Ni    -0.000439    1.456177   14.114270    ( 0.0000,  0.0000,  0.6697)
   3 Ni     0.001148   -0.000664   16.157906    ( 0.0000,  0.0000,  0.6722)
   4 Ni    -1.261746    2.185408   10.000000    ( 0.0000,  0.0000,  0.6703)
   5 Ni    -0.000000    2.913877   12.060422    ( 0.0000,  0.0000,  0.6693)
   6 Ni    -1.262589    3.642300   14.114201    ( 0.0000,  0.0000,  0.6697)
   7 Ni    -1.268623    2.181365   16.156937    ( 0.0000,  0.0000,  0.6722)
   8 Ni    -2.523491    4.370815   10.000000    ( 0.0000,  0.0000,  0.6703)
   9 Ni    -1.261746    5.099284   12.060422    ( 0.0000,  0.0000,  0.6693)
  10 Ni    -2.523520    5.827768   14.115560    ( 0.0000,  0.0000,  0.6697)
  11 Ni    -2.523554    4.372152   16.157927    ( 0.0000,  0.0000,  0.6722)
  12 Ni     2.523491    0.000000   10.000000    ( 0.0000,  0.0000,  0.6703)
  13 Ni     3.785237    0.728469   12.060422    ( 0.0000,  0.0000,  0.6693)
  14 Ni     2.523953    1.456222   14.114202    ( 0.0000,  0.0000,  0.6697)
  15 Ni     2.522301   -0.000616   16.157927    ( 0.0000,  0.0000,  0.6722)
  16 Ni     1.261746    2.185408   10.000000    ( 0.0000,  0.0000,  0.6703)
  17 Ni     2.523491    2.913877   12.060422    ( 0.0000,  0.0000,  0.6693)
  18 Ni     1.261754    3.642339   14.100299    ( 0.0000,  0.0000,  0.6697)
  19 Ni     1.261621    2.111460   16.132185    ( 0.0000,  0.0000,  0.6722)
  20 Ni    -0.000000    4.370815   10.000000    ( 0.0000,  0.0000,  0.6703)
  21 Ni     1.261746    5.099284   12.060422    ( 0.0000,  0.0000,  0.6693)
  22 Ni    -0.000383    5.828506   14.114199    ( 0.0000,  0.0000,  0.6697)
  23 Ni    -0.063738    4.407605   16.132206    ( 0.0000,  0.0000,  0.6722)
  24 Ni     5.046982    0.000000   10.000000    ( 0.0000,  0.0000,  0.6703)
  25 Ni     6.308728    0.728469   12.060422    ( 0.0000,  0.0000,  0.6693)
  26 Ni     5.047031    1.456908   14.115714    ( 0.0000,  0.0000,  0.6697)
  27 Ni     5.047045    0.007975   16.156936    ( 0.0000,  0.0000,  0.6722)
  28 Ni     3.785237    2.185408   10.000000    ( 0.0000,  0.0000,  0.6703)
  29 Ni     5.046982    2.913877   12.060422    ( 0.0000,  0.0000,  0.6693)
  30 Ni     3.786087    3.642303   14.114202    ( 0.0000,  0.0000,  0.6697)
  31 Ni     3.792166    2.181407   16.156891    ( 0.0000,  0.0000,  0.6722)
  32 Ni     2.523491    4.370815   10.000000    ( 0.0000,  0.0000,  0.6703)
  33 Ni     3.785237    5.099284   12.060422    ( 0.0000,  0.0000,  0.6693)
  34 Ni     2.523931    5.828514   14.114269    ( 0.0000,  0.0000,  0.6697)
  35 Ni     2.587455    4.407880   16.132182    ( 0.0000,  0.0000,  0.6722)
  36 O      1.261682    3.642378   16.998629    ( 0.0000,  0.0000,  0.0000)

Unit cell:
           periodic     x           y           z      points  spacing
  1. axis:    yes    7.570474    0.000000    0.000000    36     0.1821
  2. axis:    yes   -3.785237    6.556223    0.000000    36     0.1821
  3. axis:    no     0.000000    0.000000   26.181266   144     0.1818

  Lengths:   7.570474   7.570474  26.181266
  Angles:   90.000000  90.000000 120.000000

Effective grid spacing dv^(1/3) = 0.1910

     iter     time        total  log10-change:  magmom
                         energy  eigst   dens
iter:   1 16:29:19 -2751.445886  -0.73           +22.6836
iter:   2 16:30:33 -2905.007340  -0.56  -1.86    +24.4294
iter:   3 16:31:47 -2750.199979  -1.18  -1.24    +19.0512
iter:   4 16:33:02 -2753.528136  -1.06  -1.89    +15.2817
iter:   5 16:34:16 -2748.541346  -1.37  -1.80    +15.7440
iter:   6 16:35:30 -2737.023305  -1.97  -2.00    +14.9573
iter:   7 16:36:44 -2740.805143  -1.80  -2.15    +15.6814
iter:   8 16:37:58 -2736.003684  -2.28  -1.98    +16.6457
iter:   9 16:39:12 -2743.417997  -1.93  -2.20    +19.6347
iter:  10 16:40:26 -2734.737124  -2.73  -1.96    +17.8536
iter:  11 16:41:40 -2735.228941  -2.54  -2.49    +19.8342
iter:  12 16:42:55 -2734.752929  -3.09  -2.43    +20.1563
iter:  13 16:44:09 -2734.570796  -3.27  -2.63    +20.9893
iter:  14 16:45:23 -2734.719872c -3.21  -2.87    +22.1470
iter:  15 16:46:37 -2734.620891c -3.70  -2.75    +21.4024
iter:  16 16:47:51 -2734.631144c -3.69  -3.03    +22.2421
iter:  17 16:49:05 -2734.633161c -3.64  -3.06    +22.4790
iter:  18 16:50:19 -2734.659514c -3.93  -3.32    +22.7986
iter:  19 16:51:33 -2734.650808c -4.26  -3.18    +22.8908
iter:  20 16:52:48 -2734.656945c -4.50  -3.30    +23.0798
iter:  21 16:54:02 -2734.672169c -4.15  -3.36    +23.4919
iter:  22 16:55:16 -2734.680795c -4.58  -3.28    +23.5838
iter:  23 16:56:30 -2734.680248c -4.42  -3.26    +23.6283
iter:  24 16:57:44 -2734.685809c -5.18  -3.20    +23.6355
iter:  25 16:58:58 -2734.732384c -3.80  -3.17    +23.6668
iter:  26 17:00:12 -2734.927564c -3.76  -2.97    +23.7214
iter:  27 17:01:26 -2734.794069c -4.17  -2.71    +23.6899
iter:  28 17:02:41 -2734.727955c -3.81  -2.86    +23.6169
iter:  29 17:03:55 -2734.859647c -3.76  -2.99    +23.6620
iter:  30 17:05:09 -2734.876209c -3.97  -2.79    +23.6311
iter:  31 17:06:23 -2734.969556c -3.78  -2.77    +23.6804
iter:  32 17:07:37 -2735.348779  -2.86  -2.67    +23.8489
iter:  33 17:08:51 -2735.258245  -4.15  -2.46    +23.7785
iter:  34 17:10:06 -2735.464895c -3.39  -2.51    +23.8995
iter:  35 17:11:20 -2735.404857c -2.98  -2.43    +24.0611
iter:  36 17:12:34 -2735.229287c -3.02  -2.37    +24.1513
iter:  37 17:13:48 -2734.290963  -3.22  -2.35    +24.0553
iter:  38 17:15:02 -2735.006254  -4.01  -2.43    +24.0564
iter:  39 17:16:16 -2734.332019  -3.49  -2.36    +23.9618
iter:  40 17:17:31 -2733.294481  -3.19  -2.42    +23.9040
iter:  41 17:18:45 -2733.454529  -2.52  -2.57    +24.1393
iter:  42 17:19:59 -2733.286247c -2.90  -2.40    +23.3533
iter:  43 17:21:13 -2734.485724  -2.06  -2.60    +23.7695
iter:  44 17:22:27 -2734.307279  -2.17  -2.46    +23.5917
iter:  45 17:23:41 -2734.395733c -2.58  -2.65    +23.1700
iter:  46 17:24:56 -2734.539668c -3.12  -2.74    +23.0542
iter:  47 17:26:09 -2734.506764c -3.05  -2.79    +23.1764
iter:  48 17:27:24 -2734.557653c -3.04  -2.85    +23.1206
iter:  49 17:28:38 -2734.385684c -3.81  -2.79    +23.0926
iter:  50 17:29:51 -2734.447387c -3.71  -3.05    +23.0294
iter:  51 17:31:05 -2734.560721c -3.41  -3.13    +23.2068
iter:  52 17:32:19 -2734.676083c -3.22  -3.18    +23.3909
iter:  53 17:33:33 -2734.669704c -3.49  -3.07    +23.3672
iter:  54 17:34:47 -2734.702611c -3.74  -3.28    +23.4413
iter:  55 17:36:01 -2734.735884c -3.86  -3.16    +23.5251
iter:  56 17:37:15 -2734.703876c -4.15  -3.06    +23.5864
iter:  57 17:38:29 -2734.661630c -3.94  -3.21    +23.5523
iter:  58 17:39:43 -2734.671520c -4.33  -3.45    +23.5515
iter:  59 17:40:57 -2734.668875c -4.53  -3.45    +23.5567
iter:  60 17:42:11 -2734.666505c -4.54  -3.55    +23.5797
iter:  61 17:43:25 -2734.671226c -4.73  -3.58    +23.5730
iter:  62 17:44:39 -2734.669617c -5.20  -3.71    +23.6098
iter:  63 17:45:53 -2734.670471c -5.63  -3.80    +23.6302
iter:  64 17:47:07 -2734.668131c -5.47  -3.86    +23.6478
iter:  65 17:48:21 -2734.668371c -5.82  -3.87    +23.6451
iter:  66 17:49:35 -2734.669174c -5.84  -4.02c   +23.6436
iter:  67 17:50:49 -2734.668836c -6.09  -4.02c   +23.6433
iter:  68 17:52:03 -2734.668595c -6.30  -4.18c   +23.6475
iter:  69 17:53:17 -2734.669464c -6.40  -4.24c   +23.6476
iter:  70 17:54:31 -2734.668827c -6.72  -4.16c   +23.6517
iter:  71 17:55:45 -2734.669122c -6.77  -4.36c   +23.6540
iter:  72 17:56:59 -2734.669752c -6.40  -4.40c   +23.6569
iter:  73 17:58:13 -2734.669219c -6.86  -4.34c   +23.6584
iter:  74 17:59:27 -2734.669163c -6.98  -4.52c   +23.6613
iter:  75 18:00:41 -2734.669704c -6.96  -4.63c   +23.6613
iter:  76 18:01:55 -2734.669421c -7.05  -4.68c   +23.6640
iter:  77 18:03:08 -2734.669525c -7.43c -4.52c   +23.6646

Converged after 77 iterations.

Dipole moment: (-2.320733, -4.568327, -0.035884) |e|*Ang

Total magnetic moment: (0.000000, 0.000000, 23.664636)
Local magnetic moments:
   0 Ni ( 0.000000,  0.000000,  0.727089)
   1 Ni ( 0.000000,  0.000000,  0.724468)
   2 Ni ( 0.000000,  0.000000,  0.706971)
   3 Ni ( 0.000000,  0.000000,  0.715811)
   4 Ni ( 0.000000,  0.000000,  0.739243)
   5 Ni ( 0.000000,  0.000000,  0.727697)
   6 Ni ( 0.000000,  0.000000,  0.708903)
   7 Ni ( 0.000000,  0.000000,  0.714337)
   8 Ni ( 0.000000,  0.000000,  0.726112)
   9 Ni ( 0.000000,  0.000000,  0.724461)
  10 Ni ( 0.000000,  0.000000,  0.698269)
  11 Ni ( 0.000000,  0.000000,  0.717708)
  12 Ni ( 0.000000,  0.000000,  0.726108)
  13 Ni ( 0.000000,  0.000000,  0.726851)
  14 Ni ( 0.000000,  0.000000,  0.707168)
  15 Ni ( 0.000000,  0.000000,  0.717715)
  16 Ni ( 0.000000,  0.000000,  0.730052)
  17 Ni ( 0.000000,  0.000000,  0.729340)
  18 Ni ( 0.000000,  0.000000,  0.736328)
  19 Ni ( 0.000000,  0.000000,  0.498662)
  20 Ni ( 0.000000,  0.000000,  0.727085)
  21 Ni ( 0.000000,  0.000000,  0.727676)
  22 Ni ( 0.000000,  0.000000,  0.708931)
  23 Ni ( 0.000000,  0.000000,  0.488207)
  24 Ni ( 0.000000,  0.000000,  0.739232)
  25 Ni ( 0.000000,  0.000000,  0.725363)
  26 Ni ( 0.000000,  0.000000,  0.715843)
  27 Ni ( 0.000000,  0.000000,  0.714330)
  28 Ni ( 0.000000,  0.000000,  0.739834)
  29 Ni ( 0.000000,  0.000000,  0.726836)
  30 Ni ( 0.000000,  0.000000,  0.707130)
  31 Ni ( 0.000000,  0.000000,  0.714920)
  32 Ni ( 0.000000,  0.000000,  0.730050)
  33 Ni ( 0.000000,  0.000000,  0.724475)
  34 Ni ( 0.000000,  0.000000,  0.706959)
  35 Ni ( 0.000000,  0.000000,  0.498675)
  36 O  ( 0.000000,  0.000000,  0.101108)

Energy contributions relative to reference atoms: (reference = -1491288.796404)

Kinetic:       +962.809918
Potential:     -836.387173
External:        +0.000000
XC:            -2863.907293
Entropy (-ST):   -2.093035
Local:           +3.861540
--------------------------
Free energy:   -2735.716043
Extrapolated:  -2734.669525

Spin contamination: 2.054984 electrons
Showing only first 2 kpts
                      Up                     Down
 Kpt  Band  Eigenvalues  Occupancy  Eigenvalues  Occupancy
  0   289     -5.98430    0.99906     -5.12633    0.16622
  0   290     -5.97958    0.99901     -5.12100    0.15895
  0   291     -5.97538    0.99897     -5.08759    0.11919
  0   292     -5.96526    0.99886     -5.06682    0.09905

  1   289     -6.05807    0.99955     -5.19955    0.29307
  1   290     -6.05553    0.99954     -5.18784    0.26942
  1   291     -6.03162    0.99941     -5.16815    0.23245
  1   292     -6.01261    0.99929     -5.15628    0.21196


Fermi level: -5.28760

No gap

Forces in eV/Ang:
  0 Ni   -0.00418    0.00250    0.09723
  1 Ni    0.00048    0.00485   -0.11399
  2 Ni   -0.06162   -0.04080   -0.12840
  3 Ni    0.04729   -0.02744   -0.07497
  4 Ni    0.01338    0.01053    0.09772
  5 Ni   -0.02907   -0.01681   -0.10955
  6 Ni   -0.06500   -0.03407   -0.12917
  7 Ni   -0.34098   -0.19986   -0.13181
  8 Ni   -0.00350   -0.00256    0.09725
  9 Ni    0.00306   -0.00171   -0.11216
 10 Ni    0.00105   -0.00071   -0.00171
 11 Ni   -0.00226    0.05338   -0.07609
 12 Ni    0.00051    0.00442    0.09724
 13 Ni    0.01853    0.01124   -0.12050
 14 Ni    0.06524   -0.03947   -0.13021
 15 Ni   -0.04737   -0.02488   -0.07609
 16 Ni   -0.00252   -0.00262    0.09431
 17 Ni    0.02928   -0.01684   -0.11026
 18 Ni    0.00022   -0.00026   -0.57154
 19 Ni   -0.00506   -1.29005   -0.34067
 20 Ni   -0.00466    0.00279    0.09564
 21 Ni    0.00007    0.03360   -0.10954
 22 Ni   -0.00302    0.07319   -0.12924
 23 Ni   -1.10836    0.63948   -0.34349
 24 Ni   -0.00235   -0.01674    0.09768
 25 Ni   -0.01794    0.01045   -0.11898
 26 Ni    0.00220   -0.00141   -0.00327
 27 Ni    0.00260    0.39490   -0.13186
 28 Ni   -0.01468    0.00857    0.09670
 29 Ni   -0.00039   -0.02164   -0.12066
 30 Ni    0.06677   -0.03692   -0.13024
 31 Ni    0.34149   -0.19716   -0.13127
 32 Ni    0.00104    0.00360    0.09432
 33 Ni   -0.00388   -0.00274   -0.11394
 34 Ni    0.00441    0.07369   -0.12850
 35 Ni    1.11397    0.64857   -0.34053
 36 O     0.00042    0.00170    3.17324

BFGS:    1 18:03:54    -2734.669525        3.1732
System changes: positions 

Initializing position-dependent things.

Density initialized from wave functions
                                          
                                          
                                          
                                          
                                          
                   O                      
          Ni    Ni     Ni                 
           NNi   NNi   NNi                
              Ni    Ni    Ni              
             Ni    Ni    Ni               
              Ni     Ni    Ni             
             Ni     Ni    Ni              
               Ni     Ni    Ni            
                 Ni    Ni     Ni          
          Ni    Ni    Ni                  
            Ni    Ni    Ni                
              Ni    Ni    Ni              
                                          
                                          
                                          
                                          

Positions:
   0 Ni    -0.000000    0.000000   10.000000    ( 0.0000,  0.0000,  0.6703)
   1 Ni     1.261746    0.728469   12.060422    ( 0.0000,  0.0000,  0.6693)
   2 Ni    -0.001729    1.455315   14.111585    ( 0.0000,  0.0000,  0.6697)
   3 Ni     0.002154   -0.001248   16.156325    ( 0.0000,  0.0000,  0.6722)
   4 Ni    -1.261746    2.185408   10.000000    ( 0.0000,  0.0000,  0.6703)
   5 Ni    -0.000000    2.913877   12.060422    ( 0.0000,  0.0000,  0.6693)
   6 Ni    -1.263957    3.641591   14.111499    ( 0.0000,  0.0000,  0.6697)
   7 Ni    -1.275844    2.177133   16.154154    ( 0.0000,  0.0000,  0.6722)
   8 Ni    -2.523491    4.370815   10.000000    ( 0.0000,  0.0000,  0.6703)
   9 Ni    -1.261746    5.099284   12.060422    ( 0.0000,  0.0000,  0.6693)
  10 Ni    -2.523497    5.827753   14.115534    ( 0.0000,  0.0000,  0.6697)
  11 Ni    -2.523602    4.373287   16.156322    ( 0.0000,  0.0000,  0.6722)
  12 Ni     2.523491    0.000000   10.000000    ( 0.0000,  0.0000,  0.6703)
  13 Ni     3.785237    0.728469   12.060422    ( 0.0000,  0.0000,  0.6693)
  14 Ni     2.525318    1.455389   14.111478    ( 0.0000,  0.0000,  0.6697)
  15 Ni     2.521294   -0.001145   16.156322    ( 0.0000,  0.0000,  0.6722)
  16 Ni     1.261746    2.185408   10.000000    ( 0.0000,  0.0000,  0.6703)
  17 Ni     2.523491    2.913877   12.060422    ( 0.0000,  0.0000,  0.6693)
  18 Ni     1.261758    3.642333   14.088134    ( 0.0000,  0.0000,  0.6697)
  19 Ni     1.261514    2.083220   16.124584    ( 0.0000,  0.0000,  0.6722)
  20 Ni    -0.000000    4.370815   10.000000    ( 0.0000,  0.0000,  0.6703)
  21 Ni     1.261746    5.099284   12.060422    ( 0.0000,  0.0000,  0.6693)
  22 Ni    -0.000453    5.830042   14.111496    ( 0.0000,  0.0000,  0.6697)
  23 Ni    -0.088005    4.421607   16.124547    ( 0.0000,  0.0000,  0.6722)
  24 Ni     5.046982    0.000000   10.000000    ( 0.0000,  0.0000,  0.6703)
  25 Ni     6.308728    0.728469   12.060422    ( 0.0000,  0.0000,  0.6693)
  26 Ni     5.047077    1.456879   14.115658    ( 0.0000,  0.0000,  0.6697)
  27 Ni     5.047099    0.016337   16.154152    ( 0.0000,  0.0000,  0.6722)
  28 Ni     3.785237    2.185408   10.000000    ( 0.0000,  0.0000,  0.6703)
  29 Ni     5.046982    2.913877   12.060422    ( 0.0000,  0.0000,  0.6693)
  30 Ni     3.787491    3.641534   14.111478    ( 0.0000,  0.0000,  0.6697)
  31 Ni     3.799398    2.177232   16.154120    ( 0.0000,  0.0000,  0.6722)
  32 Ni     2.523491    4.370815   10.000000    ( 0.0000,  0.0000,  0.6703)
  33 Ni     3.785237    5.099284   12.060422    ( 0.0000,  0.0000,  0.6693)
  34 Ni     2.524030    5.830060   14.111581    ( 0.0000,  0.0000,  0.6697)
  35 Ni     2.611843    4.422075   16.124584    ( 0.0000,  0.0000,  0.6722)
  36 O      1.261690    3.642415   17.066730    ( 0.0000,  0.0000,  0.0000)

Unit cell:
           periodic     x           y           z      points  spacing
  1. axis:    yes    7.570474    0.000000    0.000000    36     0.1821
  2. axis:    yes   -3.785237    6.556223    0.000000    36     0.1821
  3. axis:    no     0.000000    0.000000   26.181266   144     0.1818

  Lengths:   7.570474   7.570474  26.181266
  Angles:   90.000000  90.000000 120.000000

Effective grid spacing dv^(1/3) = 0.1910

     iter     time        total  log10-change:  magmom
                         energy  eigst   dens
iter:   1 18:07:25 -2738.713426  -1.46           +23.6706
iter:   2 18:08:39 -2800.561842  -1.22  -2.15    +24.5100
iter:   3 18:09:54 -2736.902791  -1.55  -1.49    +21.6096
iter:   4 18:11:08 -2747.227689  -1.65  -2.31    +21.3805
iter:   5 18:12:23 -2735.555966  -2.23  -1.87    +22.1157
iter:   6 18:13:37 -2734.895432  -2.77  -2.48    +22.2044
iter:   7 18:14:52 -2735.070214  -3.25  -2.62    +22.2473
iter:   8 18:16:07 -2734.838326c -3.17  -2.56    +22.7314
iter:   9 18:17:21 -2734.742339  -3.43  -2.80    +22.9106
iter:  10 18:18:36 -2734.913083c -3.36  -3.15    +22.8762
iter:  11 18:19:50 -2734.872342c -3.61  -2.85    +22.8662
iter:  12 18:21:05 -2734.886753c -4.02  -3.16    +23.2322
iter:  13 18:22:19 -2734.896129c -4.07  -3.16    +23.3247
iter:  14 18:23:34 -2734.886927c -4.19  -3.18    +23.4788
iter:  15 18:24:48 -2734.894050c -4.34  -3.49    +23.5687
iter:  16 18:26:03 -2734.892464c -4.58  -3.33    +23.5759
iter:  17 18:27:17 -2734.901564c -4.46  -3.60    +23.7168
iter:  18 18:28:32 -2734.905182c -4.41  -3.45    +23.7634
iter:  19 18:29:46 -2734.937849c -4.24  -3.50    +23.8832
iter:  20 18:31:01 -2734.948977c -4.39  -3.13    +23.8627
iter:  21 18:32:15 -2734.941920c -4.69  -3.09    +23.9437
iter:  22 18:33:29 -2734.944760c -3.75  -3.14    +24.1204
iter:  23 18:34:44 -2734.994877c -3.81  -3.07    +24.1965
iter:  24 18:35:58 -2734.998643c -4.59  -2.92    +24.1573
iter:  25 18:37:12 -2734.962148c -4.39  -2.93    +24.2002
iter:  26 18:38:27 -2734.930110c -4.27  -2.91    +24.2252
iter:  27 18:39:41 -2734.895851c -4.19  -2.89    +24.2181
iter:  28 18:40:55 -2734.869122c -3.60  -2.97    +24.2069
iter:  29 18:42:10 -2734.834817c -4.56  -2.96    +24.1904
iter:  30 18:43:24 -2735.004306c -3.90  -3.02    +24.1712
iter:  31 18:44:38 -2734.843974c -3.72  -2.79    +24.2453
iter:  32 18:45:53 -2734.957403c -3.70  -3.20    +24.1547
iter:  33 18:47:07 -2734.844941c -4.19  -2.87    +24.1354
iter:  34 18:48:21 -2734.865353c -3.99  -3.46    +24.1069
iter:  35 18:49:36 -2734.880885c -4.38  -3.42    +24.0996
iter:  36 18:50:51 -2734.916507c -4.11  -3.68    +24.1095
iter:  37 18:52:05 -2734.910326c -4.58  -3.28    +24.1043
iter:  38 18:53:19 -2734.899305c -4.97  -3.33    +24.0990
iter:  39 18:54:34 -2734.899586c -5.29  -3.76    +24.1088
iter:  40 18:55:48 -2734.908279c -4.89  -3.94    +24.1182
iter:  41 18:57:02 -2734.898139c -4.58  -3.72    +24.1032
iter:  42 18:58:17 -2734.883514c -4.51  -3.51    +24.1071
iter:  43 18:59:31 -2734.899166c -4.53  -3.55    +24.1063
iter:  44 19:00:46 -2734.877712c -2.98  -4.01c   +24.1550
iter:  45 19:02:00 -2734.877893c -3.62  -2.83    +24.1577
iter:  46 19:03:14 -2734.881623c -3.73  -2.80    +24.1283
iter:  47 19:04:29 -2734.861517c -4.82  -2.74    +24.1185
iter:  48 19:05:43 -2734.876417c -5.31  -2.78    +24.1127
iter:  49 19:06:58 -2734.713019c -4.60  -2.76    +24.0958
iter:  50 19:08:12 -2734.716059c -5.06  -2.93    +24.0999
iter:  51 19:09:26 -2734.697144c -4.29  -2.92    +24.0229
iter:  52 19:10:40 -2734.593573c -3.84  -3.08    +24.1538
iter:  53 19:11:55 -2734.779773c -3.30  -2.91    +24.0454
iter:  54 19:13:09 -2734.678538c -3.62  -3.40    +23.9982
iter:  55 19:14:23 -2734.639020c -3.06  -3.02    +23.9994
iter:  56 19:15:38 -2734.685624c -4.01  -2.70    +23.9709
iter:  57 19:16:52 -2734.768032c -3.44  -2.85    +24.0108
iter:  58 19:18:06 -2734.860493c -3.20  -3.09    +24.0953
iter:  59 19:19:20 -2734.786246c -4.03  -3.50    +24.0447
iter:  60 19:20:34 -2734.870071c -3.54  -3.21    +24.1025
iter:  61 19:21:48 -2734.878055c -4.15  -3.45    +24.0811
iter:  62 19:23:03 -2734.900735c -4.02  -3.51    +24.0886
iter:  63 19:24:17 -2734.960158c -4.31  -3.51    +24.0887
iter:  64 19:25:31 -2734.906548c -4.80  -3.08    +24.0732
iter:  65 19:26:45 -2734.918127c -4.39  -3.46    +24.0431
iter:  66 19:27:59 -2734.931599c -4.02  -3.28    +24.0309
iter:  67 19:29:13 -2734.921163c -4.51  -3.14    +24.0464
iter:  68 19:30:27 -2734.921475c -4.89  -3.20    +24.0400
iter:  69 19:31:42 -2734.920438c -5.38  -3.28    +24.0458
iter:  70 19:32:56 -2734.924150c -5.67  -3.30    +24.0658
iter:  71 19:34:10 -2734.904809c -4.12  -3.29    +24.0318
iter:  72 19:35:24 -2734.904766c -4.58  -3.25    +24.0666
iter:  73 19:36:38 -2734.943256c -3.97  -3.36    +24.0518
iter:  74 19:37:52 -2734.936968c -4.43  -3.11    +24.0760
iter:  75 19:39:07 -2734.960023c -4.10  -3.22    +24.1318
iter:  76 19:40:21 -2734.980530c -4.47  -3.15    +24.1140
iter:  77 19:41:35 -2735.184955c -3.16  -3.06    +24.0201
iter:  78 19:42:49 -2734.997156c -3.25  -2.72    +24.1419
iter:  79 19:44:03 -2735.448633  -2.74  -3.03    +23.9530
iter:  80 19:45:17 -2735.173972  -3.44  -2.56    +24.0933
iter:  81 19:46:31 -2735.296262c -3.67  -2.75    +24.0357
iter:  82 19:47:46 -2735.753348  -2.61  -2.63    +23.7960
iter:  83 19:49:00 -2735.479531  -3.53  -2.41    +23.9297
iter:  84 19:50:14 -2735.612681c -3.81  -2.52    +23.8457
iter:  85 19:51:28 -2735.547287c -3.67  -2.46    +23.8251
iter:  86 19:52:42 -2735.276400  -3.72  -2.44    +23.8701
iter:  87 19:53:56 -2735.198421  -3.72  -2.48    +23.6062
iter:  88 19:55:10 -2734.143849  -3.03  -2.47    +23.4780
iter:  89 19:56:25 -2733.885775  -2.97  -2.64    +23.3809
iter:  90 19:57:39 -2734.252013  -3.17  -2.84    +22.2170
iter:  91 19:58:53 -2734.724801  -2.76  -3.01    +22.3959
iter:  92 20:00:07 -2734.774559  -3.00  -2.85    +22.5258
iter:  93 20:01:21 -2734.869152c -3.15  -3.23    +23.0736
iter:  94 20:02:35 -2734.929628c -3.21  -3.28    +23.6921
iter:  95 20:03:50 -2734.920418c -3.87  -3.07    +23.6844
iter:  96 20:05:04 -2734.915423c -4.23  -3.12    +23.8310
iter:  97 20:06:18 -2734.919237c -4.39  -3.37    +23.8751
iter:  98 20:07:32 -2734.923086c -4.18  -3.35    +23.9537
iter:  99 20:08:46 -2734.931949c -4.11  -3.29    +23.9687
iter: 100 20:10:01 -2734.918700c -4.42  -3.18    +23.9900
iter: 101 20:11:15 -2734.908302c -4.99  -3.35    +24.0033
iter: 102 20:12:29 -2734.911906c -4.72  -3.71    +24.0155
iter: 103 20:13:43 -2734.911847c -5.35  -3.54    +24.0125
iter: 104 20:14:57 -2734.917970c -4.84  -3.51    +23.9953
iter: 105 20:16:11 -2734.908397c -4.69  -3.37    +24.0015
iter: 106 20:17:26 -2734.910871c -5.13  -3.94    +24.0147
iter: 107 20:18:40 -2734.907827c -5.51  -3.56    +24.0296
iter: 108 20:19:54 -2734.906212c -6.01  -3.81    +24.0359
iter: 109 20:21:08 -2734.907253c -6.11  -4.01c   +24.0460
iter: 110 20:22:22 -2734.905697c -5.67  -4.15c   +24.0377
iter: 111 20:23:36 -2734.905448c -5.01  -4.17c   +24.0460
iter: 112 20:24:50 -2734.907234c -5.66  -4.01c   +24.0558
iter: 113 20:26:04 -2734.911349c -5.11  -4.09c   +24.0658
iter: 114 20:27:18 -2734.911493c -5.69  -3.88    +24.0613
iter: 115 20:28:33 -2734.911905c -5.70  -3.79    +24.0616
iter: 116 20:29:47 -2734.911891c -5.59  -3.75    +24.0611
iter: 117 20:31:01 -2734.914882c -5.32  -3.74    +24.0526
iter: 118 20:32:15 -2734.912485c -6.14  -3.70    +24.0530
iter: 119 20:33:29 -2734.911649c -5.74  -3.73    +24.0363
iter: 120 20:34:43 -2734.908914c -5.38  -3.77    +24.0290
iter: 121 20:35:58 -2734.918360c -4.96  -3.85    +24.0308
iter: 122 20:37:12 -2734.908867c -5.58  -3.34    +24.0311
iter: 123 20:38:26 -2734.908591c -5.54  -3.70    +24.0247
iter: 124 20:39:40 -2734.911515c -5.35  -3.74    +24.0278
iter: 125 20:40:54 -2734.910191c -4.51  -3.63    +24.0256
iter: 126 20:42:08 -2734.909393c -5.28  -3.89    +24.0468
iter: 127 20:43:23 -2734.907921c -5.43  -3.94    +24.0586
iter: 128 20:44:37 -2734.907564c -4.89  -4.26c   +24.0793
iter: 129 20:45:51 -2734.907035c -4.94  -3.89    +24.0982
iter: 130 20:47:05 -2734.905066c -5.69  -3.70    +24.0988
iter: 131 20:48:19 -2734.903617c -6.23  -3.90    +24.0935
iter: 132 20:49:34 -2734.906500c -5.49  -3.95    +24.1003
iter: 133 20:50:49 -2734.908141c -5.29  -3.99    +24.0957
iter: 134 20:52:03 -2734.908686c -5.74  -4.01c   +24.0956
iter: 135 20:53:17 -2734.907365c -6.15  -3.87    +24.0935
iter: 136 20:54:31 -2734.907004c -5.65  -4.07c   +24.0840
iter: 137 20:55:45 -2734.908297c -5.97  -4.28c   +24.0907
iter: 138 20:56:59 -2734.906813c -5.52  -4.22c   +24.0813
iter: 139 20:58:13 -2734.906112c -5.11  -4.16c   +24.0783
iter: 140 20:59:27 -2734.908904c -5.44  -4.09c   +24.0826
iter: 141 21:00:42 -2734.912329c -5.05  -4.65c   +24.0805
iter: 142 21:01:56 -2734.912168c -5.87  -3.91    +24.0809
iter: 143 21:03:10 -2734.913956c -4.57  -3.87    +24.0810
iter: 144 21:04:24 -2734.914978c -5.09  -3.70    +24.0767
iter: 145 21:05:39 -2734.915806c -5.36  -3.73    +24.0739
iter: 146 21:06:53 -2734.917055c -5.19  -3.66    +24.0707
iter: 147 21:08:07 -2734.912085c -4.06  -3.60    +24.0796
iter: 148 21:09:21 -2734.916880c -4.49  -3.46    +24.0660
iter: 149 21:10:35 -2734.919429c -5.49  -3.59    +24.0614
iter: 150 21:11:49 -2734.910649c -4.99  -3.52    +24.0641
iter: 151 21:13:04 -2734.911368c -5.56  -3.86    +24.0510
iter: 152 21:14:18 -2734.913786c -5.29  -3.78    +24.0404
iter: 153 21:15:32 -2734.912735c -5.60  -3.70    +24.0447
iter: 154 21:16:46 -2734.909954c -5.53  -3.71    +24.0466
iter: 155 21:18:00 -2734.907672c -5.25  -3.96    +24.0445
iter: 156 21:19:15 -2734.908630c -5.45  -3.90    +24.0359
iter: 157 21:20:29 -2734.909394c -5.65  -4.10c   +24.0280
iter: 158 21:21:43 -2734.909445c -5.57  -4.33c   +24.0392
iter: 159 21:22:57 -2734.909476c -5.51  -4.28c   +24.0407
iter: 160 21:24:11 -2734.910066c -5.61  -4.26c   +24.0465
iter: 161 21:25:25 -2734.910466c -6.15  -4.12c   +24.0505
iter: 162 21:26:39 -2734.910507c -6.67  -4.01c   +24.0527
iter: 163 21:27:54 -2734.909823c -6.25  -3.99    +24.0506
iter: 164 21:29:08 -2734.909397c -6.09  -4.17c   +24.0541
iter: 165 21:30:22 -2734.909505c -6.64  -4.63c   +24.0537
iter: 166 21:31:36 -2734.909339c -6.65  -4.81c   +24.0608
iter: 167 21:32:51 -2734.909374c -6.53  -4.60c   +24.0599
iter: 168 21:34:05 -2734.909669c -6.09  -4.56c   +24.0579
iter: 169 21:35:19 -2734.910133c -6.52  -4.35c   +24.0581
iter: 170 21:36:34 -2734.909693c -7.08  -4.16c   +24.0575
iter: 171 21:37:48 -2734.909264c -5.78  -4.32c   +24.0588
iter: 172 21:39:02 -2734.911075c -5.88  -4.10c   +24.0592
iter: 173 21:40:17 -2734.910700c -6.22  -3.85    +24.0599
iter: 174 21:41:31 -2734.911186c -4.96  -3.83    +24.0639
iter: 175 21:42:45 -2734.909245c -5.11  -3.61    +24.0712
iter: 176 21:43:59 -2734.907109c -5.64  -3.61    +24.0777
iter: 177 21:45:14 -2734.915381c -5.62  -3.68    +24.0789
iter: 178 21:46:28 -2734.909645c -6.03  -3.46    +24.0802
iter: 179 21:47:42 -2734.907147c -5.61  -3.59    +24.0838
iter: 180 21:48:56 -2734.904399c -5.61  -3.77    +24.0836
iter: 181 21:50:11 -2734.904520c -5.78  -4.14c   +24.0999
iter: 182 21:51:25 -2734.907061c -5.37  -4.15c   +24.0978
iter: 183 21:52:40 -2734.904301c -5.17  -4.07c   +24.0969
iter: 184 21:53:54 -2734.899660c -4.84  -3.89    +24.1107
iter: 185 21:55:08 -2734.908517c -4.54  -3.69    +24.0957
iter: 186 21:56:23 -2734.898003c -4.28  -4.06c   +24.1150
iter: 187 21:57:37 -2734.901692c -3.66  -3.53    +24.1409
iter: 188 21:58:51 -2734.901742c -4.07  -3.07    +24.1435
iter: 189 22:00:06 -2734.897750c -5.31  -3.00    +24.1373
iter: 190 22:01:20 -2734.900473c -4.48  -3.07    +24.1447
iter: 191 22:02:34 -2734.893858c -4.29  -2.97    +24.1334
iter: 192 22:03:49 -2734.894310c -4.72  -3.15    +24.1299
iter: 193 22:05:03 -2734.893424c -5.13  -3.20    +24.1277
iter: 194 22:06:17 -2734.894153c -6.09  -3.24    +24.1272
iter: 195 22:07:32 -2734.892789c -5.73  -3.22    +24.1281
iter: 196 22:08:46 -2734.886652c -5.68  -3.27    +24.1282
iter: 197 22:10:00 -2734.874217c -5.10  -3.30    +24.1310
iter: 198 22:11:15 -2734.860255c -5.02  -3.61    +24.1256
iter: 199 22:12:29 -2734.882638c -4.27  -3.80    +24.1229
iter: 200 22:13:43 -2734.912100c -3.74  -3.87    +24.1206
iter: 201 22:14:57 -2734.859182c -3.47  -3.36    +24.1477
iter: 202 22:16:12 -2734.819900c -3.02  -3.46    +24.1873
iter: 203 22:17:26 -2734.862250c -3.62  -2.93    +24.1427
iter: 204 22:18:40 -2734.886529c -3.81  -3.34    +24.1290
iter: 205 22:19:55 -2734.917224c -3.75  -3.64    +24.1249
iter: 206 22:21:09 -2734.880780c -3.08  -3.50    +24.1564
iter: 207 22:22:23 -2734.879405c -4.65  -2.91    +24.1380
iter: 208 22:23:38 -2734.879342c -4.81  -3.01    +24.1394
iter: 209 22:24:52 -2734.870937c -5.40  -3.04    +24.1386
iter: 210 22:26:06 -2734.853045c -5.11  -3.06    +24.1316
iter: 211 22:27:21 -2734.853235c -5.43  -3.16    +24.1309
iter: 212 22:28:35 -2734.836727c -4.31  -3.15    +24.1204
iter: 213 22:29:49 -2734.809811c -5.08  -3.44    +24.1106
iter: 214 22:31:04 -2734.782889c -4.32  -3.59    +24.0361
iter: 215 22:32:18 -2734.895089c -3.58  -3.37    +24.1626
iter: 216 22:33:32 -2734.881575c -4.43  -3.41    +24.0956
iter: 217 22:34:47 -2734.886321c -3.51  -3.63    +23.9982
iter: 218 22:36:01 -2734.924262c -3.80  -3.28    +24.0658
iter: 219 22:37:15 -2734.903464c -4.67  -3.14    +24.0553
iter: 220 22:38:29 -2734.986742c -3.27  -3.30    +24.1240
iter: 221 22:39:44 -2734.877992c -3.04  -2.91    +24.0768
iter: 222 22:40:58 -2734.853188c -3.25  -3.94    +24.1075
iter: 223 22:42:12 -2734.880396c -4.33  -3.32    +24.1145
iter: 224 22:43:27 -2734.867084c -4.49  -3.63    +24.1118
iter: 225 22:44:41 -2734.859300c -4.38  -3.40    +24.0943
iter: 226 22:45:55 -2734.883387c -4.27  -3.25    +24.1124
iter: 227 22:47:09 -2734.879112c -3.96  -3.49    +24.0788
iter: 228 22:48:24 -2734.877535c -4.47  -3.07    +24.0815
iter: 229 22:49:38 -2734.880272c -4.30  -3.29    +24.0808
iter: 230 22:50:52 -2734.876669c -5.23  -3.64    +24.0810
iter: 231 22:52:06 -2734.892712c -4.35  -3.60    +24.0945
iter: 232 22:53:21 -2734.860157c -3.53  -3.99    +24.0764
iter: 233 22:54:35 -2734.860669c -4.67  -3.08    +24.0815
iter: 234 22:55:49 -2734.849791c -5.21  -3.34    +24.0794
iter: 235 22:57:03 -2734.869435c -4.30  -3.33    +24.0865
iter: 236 22:58:17 -2734.836287c -3.39  -3.79    +24.0740
iter: 237 22:59:32 -2734.831819c -4.51  -2.95    +24.0748
iter: 238 23:00:46 -2734.829314c -5.31  -3.16    +24.0750
iter: 239 23:02:00 -2734.830131c -5.04  -3.12    +24.0824
iter: 240 23:03:15 -2734.833507c -4.77  -3.09    +24.0903
iter: 241 23:04:29 -2734.840042c -5.14  -3.16    +24.0871
iter: 242 23:05:43 -2734.830244c -4.64  -3.13    +24.0907
iter: 243 23:06:57 -2734.828674c -5.25  -3.39    +24.0655
iter: 244 23:08:12 -2734.814006c -4.52  -3.25    +24.0510
iter: 245 23:09:26 -2734.805553c -4.48  -3.62    +24.0834
iter: 246 23:10:40 -2734.879195c -4.03  -3.53    +24.0807
iter: 247 23:11:54 -2734.872738c -4.56  -3.38    +24.0799
iter: 248 23:13:09 -2734.897131c -3.93  -3.61    +24.0933
iter: 249 23:14:23 -2734.972904c -3.30  -3.45    +24.1098
iter: 250 23:15:37 -2734.912362c -3.77  -3.04    +24.1039
iter: 251 23:16:51 -2734.956035c -4.48  -3.43    +24.1095
iter: 252 23:18:06 -2734.954378c -5.40  -3.18    +24.1094
iter: 253 23:19:20 -2735.004020c -4.20  -3.19    +24.1128
iter: 254 23:20:34 -2734.862948c -3.29  -3.02    +24.1364
iter: 255 23:21:48 -2735.207090  -2.74  -3.70    +24.0811
iter: 256 23:23:02 -2734.945496  -3.34  -2.71    +24.1263
iter: 257 23:24:17 -2735.022634c -4.54  -3.22    +24.1076
iter: 258 23:25:31 -2734.989885c -4.54  -2.97    +24.1119
iter: 259 23:26:45 -2735.429223  -2.70  -3.05    +24.0341
iter: 260 23:28:00 -2735.149410  -3.50  -2.56    +24.1011
iter: 261 23:29:14 -2735.347207c -3.83  -2.77    +24.0781
iter: 262 23:30:28 -2735.161698c -3.56  -2.62    +24.1080
iter: 263 23:31:42 -2736.172317  -2.03  -2.77    +23.9496
iter: 264 23:32:57 -2735.516960  -2.75  -2.30    +24.0385
iter: 265 23:34:11 -2736.144387  -3.57  -2.51    +23.9625
iter: 266 23:35:25 -2736.069450  -3.70  -2.37    +23.9806
iter: 267 23:36:39 -2736.079215c -3.02  -2.40    +24.0014
iter: 268 23:37:53 -2735.020341  -2.92  -2.34    +23.8565
iter: 269 23:39:08 -2733.939652  -2.81  -2.41    +23.6653
iter: 270 23:40:22 -2734.079472  -3.24  -2.43    +23.0711
iter: 271 23:41:36 -2734.182709c -3.48  -2.53    +22.9301
iter: 272 23:42:50 -2733.821239  -2.46  -2.51    +21.9927
iter: 273 23:44:04 -2733.706300  -3.06  -2.49    +22.2959
iter: 274 23:45:19 -2734.959115  -2.59  -2.50    +20.8737
iter: 275 23:46:33 -2735.325015  -2.32  -2.49    +21.4425
iter: 276 23:47:47 -2735.210694  -2.37  -2.59    +22.1789
iter: 277 23:49:01 -2735.774581  -2.59  -2.49    +22.6139
iter: 278 23:50:15 -2735.552454  -2.68  -2.34    +22.9672
iter: 279 23:51:30 -2734.923425  -2.95  -2.47    +22.8017
iter: 280 23:52:44 -2734.860724  -3.37  -2.66    +23.0236
iter: 281 23:53:58 -2735.000014c -3.20  -2.97    +23.4091
iter: 282 23:55:12 -2735.113549c -3.26  -2.90    +23.8122
iter: 283 23:56:26 -2735.166136c -3.54  -2.79    +23.9122
iter: 284 23:57:41 -2735.260218c -3.27  -2.72    +24.0668
iter: 285 23:58:55 -2735.138605c -3.91  -2.63    +23.9630
iter: 286 00:00:09 -2734.989982c -3.89  -2.75    +23.9249
iter: 287 00:01:23 -2735.701106  -3.44  -2.86    +23.8767
iter: 288 00:02:37 -2734.741369  -3.45  -2.46    +23.8933
iter: 289 00:03:52 -2734.774002  -3.66  -3.00    +23.8841
iter: 290 00:05:06 -2734.715628c -4.19  -2.85    +23.8403
iter: 291 00:06:20 -2734.715942c -3.57  -3.03    +23.7607
iter: 292 00:07:34 -2734.828219c -3.73  -3.34    +23.7286
iter: 293 00:08:48 -2734.937922c -3.26  -3.58    +23.8269
iter: 294 00:10:03 -2734.976827c -3.32  -3.36    +23.9612
iter: 295 00:11:17 -2735.053824c -3.50  -3.16    +24.0982
iter: 296 00:12:31 -2735.000434c -4.41  -3.00    +24.0097
iter: 297 00:13:45 -2735.043353c -3.80  -3.11    +24.1281
iter: 298 00:14:59 -2734.973267c -3.95  -3.02    +24.1103
iter: 299 00:16:14 -2734.915599c -4.16  -3.07    +24.1088
iter: 300 00:17:28 -2734.923860c -4.37  -3.14    +24.0913
iter: 301 00:18:42 -2734.827707c -4.17  -2.98    +24.0854
iter: 302 00:19:56 -2734.819825c -3.85  -3.24    +24.0227
iter: 303 00:21:10 -2734.839950c -4.43  -3.52    +24.0070
iter: 304 00:22:25 -2734.935257c -3.41  -3.83    +23.9308
iter: 305 00:23:39 -2734.965949c -3.38  -3.23    +23.9736
iter: 306 00:24:53 -2735.033163c -3.61  -3.09    +24.0063
iter: 307 00:26:07 -2735.093068c -4.23  -2.93    +24.0268
iter: 308 00:27:21 -2735.037811c -4.84  -2.83    +24.0105
iter: 309 00:28:36 -2735.117438c -4.32  -2.93    +24.0234
iter: 310 00:29:50 -2734.999034c -4.13  -2.87    +24.0154
iter: 311 00:31:04 -2734.869755c -3.30  -2.94    +24.0264
iter: 312 00:32:18 -2734.824228c -3.83  -3.09    +24.0121
iter: 313 00:33:32 -2734.896702c -3.91  -3.62    +23.9942
iter: 314 00:34:47 -2734.936317c -3.47  -3.48    +24.0094
iter: 315 00:36:01 -2734.920811c -3.91  -3.29    +23.9743
iter: 316 00:37:15 -2734.978460c -3.81  -3.51    +24.0103
iter: 317 00:38:29 -2734.949406c -4.03  -2.95    +24.0126
iter: 318 00:39:43 -2734.927052c -4.21  -3.14    +24.0414
iter: 319 00:40:58 -2734.910352c -4.23  -3.31    +24.0302
iter: 320 00:42:12 -2734.914421c -5.00  -3.45    +24.0221
iter: 321 00:43:26 -2734.903842c -4.23  -3.40    +24.0177
iter: 322 00:44:40 -2734.904072c -4.96  -3.54    +24.0160
iter: 323 00:45:54 -2734.905104c -5.60  -3.61    +24.0256
iter: 324 00:47:09 -2734.900495c -5.11  -3.59    +24.0195
iter: 325 00:48:23 -2734.908439c -5.25  -3.96    +24.0244
iter: 326 00:49:37 -2734.901214c -5.35  -3.42    +24.0300
iter: 327 00:50:51 -2734.901593c -5.68  -4.06c   +24.0305
iter: 328 00:52:05 -2734.906106c -5.27  -4.10c   +24.0184
iter: 329 00:53:20 -2734.905073c -6.25  -4.04c   +24.0176
iter: 330 00:54:34 -2734.919012c -4.25  -4.08c   +24.0159
iter: 331 00:55:48 -2734.917604c -5.20  -3.44    +24.0125
iter: 332 00:57:02 -2734.925512c -4.78  -3.51    +24.0136
iter: 333 00:58:16 -2734.939836c -4.68  -3.37    +24.0216
iter: 334 00:59:30 -2734.920770c -4.67  -3.22    +24.0082
iter: 335 01:00:45 -2734.955867c -4.79  -3.46    +24.0147
iter: 336 01:01:59 -2734.911746c -4.27  -3.15    +24.0020
iter: 337 01:03:13 -2734.889467c -3.45  -3.66    +23.9490
iter: 338 01:04:27 -2734.897043c -4.28  -3.23    +23.9640
iter: 339 01:05:42 -2734.891897c -4.97  -4.20c   +23.9421
iter: 340 01:06:56 -2734.883361c -4.35  -3.61    +23.9032
iter: 341 01:08:10 -2734.894180c -4.62  -3.36    +23.9265
iter: 342 01:09:24 -2734.922009c -3.68  -3.63    +24.0083
iter: 343 01:10:38 -2734.887078c -3.72  -3.43    +23.9012
iter: 344 01:11:53 -2734.880773c -3.87  -3.43    +23.8348
iter: 345 01:13:07 -2734.888211c -4.45  -3.18    +23.8864
iter: 346 01:14:21 -2734.881476c -4.22  -3.48    +23.8126
iter: 347 01:15:35 -2734.891420c -3.31  -3.16    +23.6366
iter: 348 01:16:49 -2734.883629c -3.52  -2.83    +23.8246
iter: 349 01:18:04 -2734.881956c -5.30  -3.23    +23.7858
iter: 350 01:19:18 -2734.882450c -5.65  -3.13    +23.7725
iter: 351 01:20:32 -2734.883242c -4.66  -3.12    +23.7541
iter: 352 01:21:46 -2734.884362c -5.32  -3.11    +23.7810
iter: 353 01:23:00 -2734.880550c -5.21  -3.15    +23.8029
iter: 354 01:24:15 -2734.883304c -4.89  -3.22    +23.7835
iter: 355 01:25:29 -2734.870131c -4.68  -3.13    +23.8108
iter: 356 01:26:43 -2734.829611c -4.54  -3.38    +23.8020
iter: 357 01:27:57 -2734.871763c -4.12  -3.51    +23.8466
iter: 358 01:29:11 -2734.807080c -3.01  -3.52    +23.5583
iter: 359 01:30:26 -2734.778390c -2.98  -2.89    +23.2454
iter: 360 01:31:40 -2734.884430c -2.64  -2.70    +23.9864
iter: 361 01:32:54 -2735.041522c -2.58  -3.51    +24.5388
iter: 362 01:34:08 -2734.851013c -2.72  -2.85    +23.7702
iter: 363 01:35:22 -2734.867179c -3.04  -3.06    +23.4815
iter: 364 01:36:37 -2734.869149c -4.45  -2.80    +23.5370
iter: 365 01:37:51 -2734.870812c -4.00  -2.88    +23.6350
iter: 366 01:39:05 -2734.871676c -4.45  -3.03    +23.6627
iter: 367 01:40:19 -2734.888029c -4.90  -3.07    +23.6691
iter: 368 01:41:34 -2734.856806c -4.58  -3.03    +23.6989
iter: 369 01:42:48 -2734.829620c -4.57  -3.17    +23.7074
iter: 370 01:44:02 -2734.840610c -4.48  -3.37    +23.7157
iter: 371 01:45:16 -2734.832471c -4.06  -3.44    +23.6132
iter: 372 01:46:30 -2734.862541c -3.84  -3.11    +23.8228
iter: 373 01:47:44 -2734.900678c -3.50  -3.49    +23.9809
iter: 374 01:48:59 -2734.900411c -3.72  -3.32    +23.9175
iter: 375 01:50:13 -2734.943394c -3.94  -3.43    +23.9176
iter: 376 01:51:27 -2734.942063c -4.23  -3.20    +23.9386
iter: 377 01:52:41 -2734.964378c -4.40  -3.16    +23.9652
iter: 378 01:53:55 -2734.898010c -4.35  -3.06    +23.9330
iter: 379 01:55:09 -2734.905950c -4.37  -3.59    +23.9933
iter: 380 01:56:24 -2734.907333c -4.24  -3.37    +24.0453
iter: 381 01:57:38 -2734.919298c -3.86  -3.27    +24.1413
iter: 382 01:58:52 -2734.916226c -5.14  -3.09    +24.1072
iter: 383 02:00:06 -2734.935856c -5.01  -3.13    +24.1176
iter: 384 02:01:20 -2734.915090c -5.48  -3.06    +24.1119
iter: 385 02:02:35 -2734.938331c -5.12  -3.12    +24.1194
iter: 386 02:03:49 -2734.927255c -4.85  -3.02    +24.1206
iter: 387 02:05:03 -2734.851678c -4.23  -3.02    +24.1193
iter: 388 02:06:17 -2734.850913c -4.62  -3.31    +24.1207
iter: 389 02:07:31 -2734.852671c -4.42  -3.56    +24.0950
iter: 390 02:08:46 -2734.902690c -4.13  -3.55    +24.1085
iter: 391 02:10:00 -2734.980276c -3.29  -3.40    +24.1318
iter: 392 02:11:14 -2735.157258c -3.55  -3.07    +24.1099
iter: 393 02:12:28 -2735.158779c -4.49  -2.84    +24.1175
iter: 394 02:13:42 -2735.149712c -3.12  -2.85    +24.0474
iter: 395 02:14:57 -2735.189662c -3.50  -2.75    +23.9773
iter: 396 02:16:11 -2734.966947c -3.36  -2.69    +23.8556
iter: 397 02:17:25 -2734.634531  -3.33  -2.72    +23.8214
iter: 398 02:18:39 -2734.571373  -3.97  -3.10    +23.7314
iter: 399 02:19:53 -2734.661941c -4.30  -3.05    +23.3607
iter: 400 02:21:07 -2734.812601c -3.46  -3.15    +23.1591
iter: 401 02:22:22 -2734.454175  -2.99  -3.15    +23.4331
iter: 402 02:23:36 -2734.690905  -3.45  -2.92    +23.0931
iter: 403 02:24:50 -2735.094551  -2.82  -3.72    +23.1807
iter: 404 02:26:04 -2734.676205  -3.17  -2.83    +23.0170
iter: 405 02:27:18 -2734.519255  -2.96  -3.74    +22.6651
iter: 406 02:28:32 -2734.492818c -3.52  -2.89    +22.3637
iter: 407 02:29:46 -2734.516739c -4.34  -2.85    +22.2592
iter: 408 02:31:01 -2734.613372c -3.68  -2.99    +22.3341
iter: 409 02:32:15 -2734.729183c -3.50  -3.28    +22.5547
iter: 410 02:33:29 -2734.836451c -3.32  -3.41    +22.9249
iter: 411 02:34:43 -2735.146797  -3.05  -3.35    +23.5333
iter: 412 02:35:57 -2734.904313  -3.84  -2.76    +23.1291
iter: 413 02:37:11 -2734.740451  -3.36  -3.05    +22.7534
iter: 414 02:38:26 -2734.688104c -2.81  -3.47    +22.0563
iter: 415 02:39:40 -2734.681850c -3.67  -2.81    +22.5308
iter: 416 02:40:54 -2734.730548c -3.97  -3.29    +22.6314
iter: 417 02:42:08 -2734.809916c -3.53  -3.37    +22.9985
iter: 418 02:43:22 -2734.974850c -3.03  -3.79    +23.6241
iter: 419 02:44:36 -2734.748766c -2.98  -3.03    +22.7376
iter: 420 02:45:51 -2734.724669c -3.70  -3.20    +22.7075
iter: 421 02:47:05 -2734.760181c -4.32  -3.14    +22.8958
iter: 422 02:48:19 -2734.700657c -3.95  -3.54    +22.6815
iter: 423 02:49:34 -2734.490581c -2.60  -3.15    +21.7254
iter: 424 02:50:48 -2734.986967  -2.22  -2.67    +23.7741
iter: 425 02:52:02 -2734.491942  -2.30  -2.97    +21.3538
iter: 426 02:53:16 -2733.740390  -1.82  -2.68    +18.3064
iter: 427 02:54:30 -2734.638728  -1.93  -2.45    +22.6489
iter: 428 02:55:44 -2734.842702  -2.28  -2.92    +24.3465
iter: 429 02:56:59 -2734.809679c -3.29  -3.54    +23.5417
iter: 430 02:58:13 -2734.861074c -3.51  -3.97    +23.4243
iter: 431 02:59:27 -2734.783526c -3.96  -3.43    +23.5082
iter: 432 03:00:41 -2734.804779c -4.99  -3.72    +23.4363
iter: 433 03:01:55 -2734.846721c -4.15  -3.92    +23.4537
iter: 434 03:03:10 -2734.945842c -3.48  -3.69    +23.5965
iter: 435 03:04:24 -2734.720913c -2.91  -3.12    +23.2169
iter: 436 03:05:38 -2734.580694  -2.74  -3.17    +22.6826
iter: 437 03:06:52 -2734.865111c -2.62  -2.79    +23.5972
iter: 438 03:08:06 -2735.279528  -2.41  -3.52    +24.4015
iter: 439 03:09:20 -2734.673057  -2.28  -2.65    +23.0051
iter: 440 03:10:34 -2734.264994  -2.10  -2.94    +21.8194
iter: 441 03:11:49 -2734.803072  -2.22  -2.57    +23.6176
iter: 442 03:13:03 -2735.286810  -2.19  -3.98    +24.9611
iter: 443 03:14:17 -2734.725209  -2.46  -2.64    +23.1258
iter: 444 03:15:31 -2734.583649  -2.59  -3.13    +22.3789
iter: 445 03:16:45 -2734.788373c -2.88  -2.75    +23.3001
iter: 446 03:17:59 -2735.204817  -2.42  -3.65    +24.3707
iter: 447 03:19:14 -2734.597682  -2.19  -2.71    +22.5453
iter: 448 03:20:28 -2731.925097  -1.35  -2.77    +18.8359
iter: 449 03:21:42 -2734.682194  -1.56  -2.31    +23.3038
iter: 450 03:22:56 -2734.872043  -2.15  -3.03    +24.5385
iter: 451 03:24:10 -2734.906142c -2.88  -3.39    +24.0325
iter: 452 03:25:24 -2734.966933c -3.30  -3.26    +23.9972
iter: 453 03:26:38 -2734.727265c -2.85  -3.06    +23.7747
iter: 454 03:27:53 -2734.863868c -3.46  -3.12    +23.6990
iter: 455 03:29:07 -2734.830498c -5.06  -3.42    +23.6016
iter: 456 03:30:21 -2734.816601c -5.22  -3.92    +23.4418
iter: 457 03:31:35 -2734.884483c -3.99  -4.30c   +23.5687
iter: 458 03:32:49 -2734.768380c -3.59  -3.37    +23.2394
iter: 459 03:34:03 -2734.401807  -2.14  -3.42    +21.9030
iter: 460 03:35:18 -2734.983112  -2.08  -2.54    +23.8925
iter: 461 03:36:32 -2735.904505  -1.87  -3.01    +25.6534
iter: 462 03:37:46 -2735.213728  -2.68  -2.36    +24.0841
iter: 463 03:39:00 -2735.448698  -3.66  -2.71    +24.2259
iter: 464 03:40:14 -2735.387729c -4.62  -2.56    +24.1107
iter: 465 03:41:28 -2735.408216c -3.98  -2.59    +24.1041
iter: 466 03:42:43 -2735.757436  -2.86  -2.56    +24.1930
iter: 467 03:43:57 -2735.500203  -3.30  -2.41    +24.1499
iter: 468 03:45:11 -2734.893679  -3.67  -2.52    +24.1948
iter: 469 03:46:25 -2734.786940  -4.12  -2.62    +24.1975
iter: 470 03:47:39 -2734.660089c -4.18  -2.67    +24.1905
iter: 471 03:48:54 -2735.340095  -3.48  -2.71    +24.1516
iter: 472 03:50:08 -2735.096428  -2.74  -2.53    +24.1558
iter: 473 03:51:22 -2734.717332  -3.16  -2.45    +24.1214
iter: 474 03:52:36 -2735.167367  -2.73  -2.51    +23.5717
iter: 475 03:53:50 -2734.982662  -2.67  -2.75    +23.8547
iter: 476 03:55:04 -2734.897969c -3.17  -3.11    +23.8468
iter: 477 03:56:19 -2734.934734c -3.57  -3.48    +23.8662
iter: 478 03:57:33 -2734.889459c -4.27  -3.04    +23.8812
iter: 479 03:58:47 -2734.838759c -3.66  -3.43    +23.9404
iter: 480 04:00:01 -2735.106530c -3.10  -3.61    +23.9206
iter: 481 04:01:15 -2734.513984  -1.94  -2.80    +23.5324
iter: 482 04:02:30 -2735.432127  -1.84  -2.55    +24.1694
iter: 483 04:03:44 -2735.939718  -1.62  -2.54    +25.1045
iter: 484 04:04:58 -2735.652534  -2.42  -2.20    +24.2835
iter: 485 04:06:12 -2736.113664  -3.95  -2.42    +24.2805
iter: 486 04:07:26 -2736.023074  -4.72  -2.34    +24.2702
iter: 487 04:08:40 -2734.179301  -3.28  -2.35    +24.1068
iter: 488 04:09:55 -2734.343281  -3.71  -2.66    +24.1077
iter: 489 04:11:09 -2734.115634c -3.54  -2.60    +23.6446
iter: 490 04:12:23 -2734.104890c -3.03  -2.74    +23.7540
iter: 491 04:13:37 -2734.349900c -3.15  -2.76    +23.4739
iter: 492 04:14:51 -2735.005499  -2.53  -3.09    +23.5305
iter: 493 04:16:05 -2734.963445  -2.78  -2.87    +23.7269
iter: 494 04:17:20 -2734.950102c -3.19  -3.05    +23.7836
iter: 495 04:18:34 -2734.898230c -3.21  -3.16    +23.9023
iter: 496 04:19:48 -2734.896727c -4.12  -3.28    +23.8861
iter: 497 04:21:02 -2734.918595c -4.09  -3.33    +23.9597
iter: 498 04:22:16 -2734.879585c -4.18  -3.28    +23.9462
iter: 499 04:23:30 -2734.890271c -4.43  -3.68    +23.9214
iter: 500 04:24:45 -2734.896382c -4.50  -3.53    +23.9370
iter: 501 04:25:59 -2734.904728c -4.33  -3.57    +23.9620
iter: 502 04:27:13 -2734.917857c -4.33  -3.68    +23.9707
iter: 503 04:28:27 -2734.908794c -4.36  -3.46    +23.9331
iter: 504 04:29:41 -2734.908724c -5.15  -3.52    +23.9361
iter: 505 04:30:56 -2734.902963c -4.44  -3.45    +23.9508
iter: 506 04:32:10 -2734.900160c -5.17  -3.40    +23.9565
iter: 507 04:33:24 -2734.902729c -5.12  -3.66    +23.9436
iter: 508 04:34:38 -2734.913078c -4.62  -3.74    +23.9687
iter: 509 04:35:53 -2734.904836c -5.27  -3.35    +23.9629
iter: 510 04:37:07 -2734.904962c -5.39  -4.01c   +23.9836
iter: 511 04:38:21 -2734.906651c -5.59  -4.07c   +23.9779
iter: 512 04:39:35 -2734.909734c -5.03  -3.91    +23.9811
iter: 513 04:40:50 -2734.922642c -4.28  -3.76    +24.0150
iter: 514 04:42:04 -2734.903644c -4.04  -3.36    +23.9560
iter: 515 04:43:18 -2734.903101c -4.38  -4.09c   +23.9329
iter: 516 04:44:32 -2734.900961c -5.47  -3.61    +23.9479
iter: 517 04:45:46 -2734.899959c -6.05  -4.05c   +23.9466
iter: 518 04:47:01 -2734.905512c -4.86  -4.07c   +23.9709
iter: 519 04:48:15 -2734.917406c -4.28  -4.13c   +24.0098
iter: 520 04:49:29 -2734.893464c -3.65  -3.50    +23.9061
iter: 521 04:50:43 -2734.890992c -3.20  -3.43    +23.7563
iter: 522 04:51:57 -2734.908930c -3.14  -2.94    +23.9910
iter: 523 04:53:12 -2734.897961c -4.87  -3.81    +23.9261
iter: 524 04:54:26 -2734.896654c -5.64  -3.93    +23.9057
iter: 525 04:55:40 -2734.899272c -5.29  -3.82    +23.9175
iter: 526 04:56:54 -2734.905064c -4.58  -3.99    +23.9537
iter: 527 04:58:08 -2734.895342c -4.25  -3.97    +23.8900
iter: 528 04:59:22 -2734.891549c -3.70  -3.57    +23.8080
iter: 529 05:00:36 -2734.897330c -3.99  -3.13    +23.9004
iter: 530 05:01:50 -2734.893192c -5.74  -3.64    +23.8838
iter: 531 05:03:05 -2734.898284c -4.70  -3.54    +23.9186
iter: 532 05:04:19 -2734.888283c -3.75  -3.91    +23.7824
iter: 533 05:05:33 -2734.883882c -4.33  -3.16    +23.7550
iter: 534 05:06:47 -2734.885795c -4.78  -3.12    +23.8100
iter: 535 05:08:01 -2734.890530c -3.60  -3.26    +23.6281
iter: 536 05:09:15 -2734.894419c -4.00  -2.91    +23.5778
iter: 537 05:10:29 -2734.907164c -3.77  -2.86    +23.4681
iter: 538 05:11:43 -2734.911025c -4.31  -2.76    +23.4447
iter: 539 05:12:58 -2734.898534c -4.53  -2.75    +23.4208
iter: 540 05:14:12 -2734.920514c -4.85  -2.74    +23.4208
iter: 541 05:15:26 -2734.865317c -4.75  -2.73    +23.4225
iter: 542 05:16:40 -2734.690625c -4.40  -2.76    +23.4311
iter: 543 05:17:54 -2734.625370c -3.49  -2.91    +23.4742
iter: 544 05:19:08 -2734.542660c -4.25  -2.80    +23.4361
iter: 545 05:20:22 -2734.616028c -3.69  -3.23    +23.5595
iter: 546 05:21:37 -2734.718584c -3.50  -3.26    +23.7951
iter: 547 05:22:51 -2734.949888  -3.26  -3.28    +23.7626
iter: 548 05:24:05 -2734.989952c -3.79  -3.03    +23.7285
iter: 549 05:25:19 -2735.207501c -3.27  -3.00    +23.7556
iter: 550 05:26:33 -2735.323135  -3.32  -2.79    +23.8868
iter: 551 05:27:47 -2735.599169  -2.61  -2.70    +24.2333
iter: 552 05:29:02 -2735.116839  -3.55  -2.51    +24.1183
iter: 553 05:30:16 -2735.265851  -3.69  -2.66    +24.1603
iter: 554 05:31:30 -2734.931385  -3.46  -2.58    +24.1367
iter: 555 05:32:44 -2734.875167  -3.11  -2.67    +24.1511
iter: 556 05:33:58 -2734.485534  -3.43  -2.54    +24.2363
iter: 557 05:35:12 -2734.632623  -3.18  -2.88    +23.8929
iter: 558 05:36:26 -2734.631661c -3.48  -2.93    +23.9039
iter: 559 05:37:41 -2734.789833c -3.73  -3.21    +23.8988
iter: 560 05:38:55 -2734.753730c -3.96  -2.87    +23.9669
iter: 561 05:40:09 -2734.857143c -3.97  -3.26    +24.0012
iter: 562 05:41:23 -2734.867459c -4.11  -2.93    +24.0289
iter: 563 05:42:37 -2734.859411c -3.86  -2.97    +24.0555
iter: 564 05:43:51 -2734.848948c -5.01  -3.22    +24.0538
iter: 565 05:45:06 -2734.870464c -4.45  -3.23    +24.0833
iter: 566 05:46:20 -2734.886487c -4.55  -3.32    +24.1093
iter: 567 05:47:34 -2734.924257c -3.70  -3.33    +24.1340
iter: 568 05:48:48 -2734.934530c -4.14  -3.15    +24.1296
iter: 569 05:50:03 -2734.933998c -4.46  -3.00    +24.0960
iter: 570 05:51:17 -2734.905561c -4.48  -3.09    +24.1107
iter: 571 05:52:31 -2734.898213c -4.87  -3.29    +24.1129
iter: 572 05:53:45 -2734.897309c -4.85  -3.35    +24.1064
iter: 573 05:54:59 -2734.888438c -5.19  -3.46    +24.1058
iter: 574 05:56:14 -2734.892361c -5.24  -3.69    +24.0892
iter: 575 05:57:28 -2734.897077c -4.94  -3.80    +24.1052
iter: 576 05:58:42 -2734.905465c -4.55  -3.89    +24.0977
iter: 577 05:59:56 -2734.907918c -4.95  -3.73    +24.0924
iter: 578 06:01:10 -2734.909173c -5.15  -3.81    +24.0915
iter: 579 06:02:25 -2734.908893c -5.27  -3.84    +24.0930
iter: 580 06:03:39 -2734.908675c -5.67  -3.82    +24.0860
iter: 581 06:04:53 -2734.909143c -5.77  -4.06c   +24.0828
iter: 582 06:06:07 -2734.909023c -6.26  -4.29c   +24.0826
iter: 583 06:07:21 -2734.909834c -6.60  -4.43c   +24.0814
iter: 584 06:08:35 -2734.909807c -5.81  -4.36c   +24.0789
iter: 585 06:09:49 -2734.909278c -4.61  -4.10c   +24.0959
iter: 586 06:11:03 -2734.910399c -5.04  -3.85    +24.0872
iter: 587 06:12:17 -2734.911440c -5.90  -4.13c   +24.0898
iter: 588 06:13:32 -2734.913092c -5.30  -4.03c   +24.0917
iter: 589 06:14:46 -2734.914934c -5.30  -3.79    +24.0818
iter: 590 06:16:00 -2734.906230c -4.37  -3.69    +24.1175
iter: 591 06:17:14 -2734.914537c -4.56  -4.11c   +24.0790
iter: 592 06:18:28 -2734.904443c -4.34  -3.77    +24.1222
iter: 593 06:19:42 -2734.904409c -5.09  -4.06c   +24.1243
iter: 594 06:20:56 -2734.906241c -5.61  -4.00c   +24.1169
iter: 595 06:22:11 -2734.912325c -4.76  -4.13c   +24.0937
iter: 596 06:23:25 -2734.899747c -4.04  -3.76    +24.1525
iter: 597 06:24:39 -2734.898792c -4.58  -3.54    +24.1582
iter: 598 06:25:53 -2734.901351c -5.56  -3.44    +24.1459
iter: 599 06:27:07 -2734.900387c -5.33  -3.54    +24.1549
iter: 600 06:28:21 -2734.900307c -4.67  -3.42    +24.1598
iter: 601 06:29:36 -2734.903222c -4.66  -3.27    +24.1597
iter: 602 06:30:50 -2734.900948c -5.17  -3.20    +24.1530
iter: 603 06:32:04 -2734.905109c -5.26  -3.31    +24.1498
iter: 604 06:33:18 -2734.905478c -5.22  -3.33    +24.1385
iter: 605 06:34:32 -2734.897683c -4.86  -3.38    +24.1327
iter: 606 06:35:46 -2734.900366c -5.89  -3.54    +24.1343
iter: 607 06:37:01 -2734.896327c -5.13  -3.47    +24.1251
iter: 608 06:38:15 -2734.901667c -5.36  -3.50    +24.1249
iter: 609 06:39:29 -2734.905069c -4.52  -3.44    +24.1032
iter: 610 06:40:43 -2734.898366c -4.83  -3.32    +24.1060
iter: 611 06:41:57 -2734.898975c -5.04  -3.72    +24.1188
iter: 612 06:43:12 -2734.904633c -4.90  -3.99    +24.1132
iter: 613 06:44:26 -2734.910810c -4.34  -4.29c   +24.1044
iter: 614 06:45:40 -2734.910466c -4.81  -4.00c   +24.0845
iter: 615 06:46:54 -2734.913771c -5.24  -3.87    +24.0711
iter: 616 06:48:08 -2734.911968c -5.46  -3.74    +24.0625
iter: 617 06:49:23 -2734.912662c -5.28  -3.76    +24.0514
iter: 618 06:50:37 -2734.909390c -5.27  -3.70    +24.0500
iter: 619 06:51:51 -2734.907690c -5.29  -3.79    +24.0464
iter: 620 06:53:05 -2734.907347c -5.87  -3.95    +24.0451
iter: 621 06:54:20 -2734.910566c -5.68  -3.97    +24.0488
iter: 622 06:55:34 -2734.907473c -6.11  -3.70    +24.0475
iter: 623 06:56:48 -2734.908359c -5.93  -3.92    +24.0460
iter: 624 06:58:02 -2734.907879c -6.16  -3.84    +24.0425
iter: 625 06:59:16 -2734.908921c -6.48  -4.10c   +24.0441
iter: 626 07:00:30 -2734.908930c -6.15  -3.91    +24.0469
iter: 627 07:01:45 -2734.908255c -6.01  -3.96    +24.0452
iter: 628 07:02:59 -2734.910112c -6.02  -4.35c   +24.0515
iter: 629 07:04:14 -2734.908461c -6.38  -3.83    +24.0511
iter: 630 07:05:28 -2734.908115c -6.88  -4.15c   +24.0509
iter: 631 07:06:42 -2734.907878c -5.78  -4.33c   +24.0419
iter: 632 07:07:56 -2734.911233c -4.21  -4.12c   +24.0939
iter: 633 07:09:11 -2734.909026c -4.72  -3.63    +24.0380
iter: 634 07:10:25 -2734.910504c -4.80  -4.58c   +24.0071
iter: 635 07:11:39 -2734.910183c -5.62  -3.80    +24.0088
iter: 636 07:12:53 -2734.909581c -6.69  -3.82    +24.0112
iter: 637 07:14:07 -2734.909340c -6.02  -3.90    +24.0082
iter: 638 07:15:21 -2734.909433c -5.13  -3.83    +24.0251
iter: 639 07:16:35 -2734.908843c -5.66  -4.42c   +24.0269
iter: 640 07:17:50 -2734.909466c -6.45  -4.66c   +24.0277
iter: 641 07:19:04 -2734.909370c -6.55  -4.45c   +24.0350
iter: 642 07:20:18 -2734.909036c -6.73  -4.80c   +24.0304
iter: 643 07:21:32 -2734.909500c -6.50  -4.58c   +24.0421
iter: 644 07:22:46 -2734.909397c -6.40  -4.72c   +24.0415
iter: 645 07:24:00 -2734.908765c -5.98  -4.42c   +24.0390
iter: 646 07:25:15 -2734.908672c -6.59  -4.70c   +24.0316
iter: 647 07:26:29 -2734.909060c -5.98  -4.58c   +24.0300
iter: 648 07:27:43 -2734.910344c -5.18  -4.27c   +24.0351
iter: 649 07:28:57 -2734.909304c -5.76  -3.84    +24.0299
iter: 650 07:30:11 -2734.911486c -5.22  -4.13c   +24.0411
iter: 651 07:31:26 -2734.907796c -4.13  -3.71    +24.0001
iter: 652 07:32:40 -2734.915358c -3.89  -3.68    +23.9533
iter: 653 07:33:54 -2734.909585c -4.84  -3.23    +23.9521
iter: 654 07:35:08 -2734.912425c -5.06  -3.30    +23.9474
iter: 655 07:36:22 -2734.906588c -5.12  -3.24    +23.9516
iter: 656 07:37:37 -2734.910457c -6.10  -3.40    +23.9472
iter: 657 07:38:51 -2734.904915c -6.09  -3.34    +23.9507
iter: 658 07:40:05 -2734.906207c -6.91  -3.41    +23.9510
iter: 659 07:41:19 -2734.912080c -6.20  -3.39    +23.9578
iter: 660 07:42:33 -2734.886337c -4.89  -3.33    +23.9594
iter: 661 07:43:47 -2734.885969c -5.60  -3.94    +23.9594
iter: 662 07:45:01 -2734.890166c -5.19  -4.00    +23.9564
iter: 663 07:46:16 -2734.903435c -3.94  -3.81    +23.9757
iter: 664 07:47:30 -2734.910674c -4.49  -3.45    +23.9785
iter: 665 07:48:44 -2734.931710c -4.12  -3.46    +24.0081
iter: 666 07:49:58 -2734.945907c -4.61  -3.26    +24.0143
iter: 667 07:51:13 -2734.925218c -4.84  -3.16    +23.9895
iter: 668 07:52:27 -2734.912896c -4.61  -3.36    +23.9941
iter: 669 07:53:41 -2734.914186c -4.93  -3.75    +24.0182
iter: 670 07:54:55 -2734.913672c -4.92  -3.76    +24.0292
iter: 671 07:56:09 -2734.910676c -5.41  -3.60    +24.0360
iter: 672 07:57:24 -2734.916705c -5.08  -3.65    +24.0557
iter: 673 07:58:38 -2734.908066c -5.15  -3.45    +24.0647
iter: 674 07:59:52 -2734.909804c -5.31  -4.06c   +24.0551
iter: 675 08:01:06 -2734.908132c -6.06  -3.80    +24.0545
iter: 676 08:02:20 -2734.908324c -5.79  -4.28c   +24.0481
iter: 677 08:03:35 -2734.908158c -5.14  -4.39c   +24.0336
iter: 678 08:04:49 -2734.907925c -5.84  -4.11c   +24.0283
iter: 679 08:06:03 -2734.906495c -5.30  -4.30c   +24.0291
iter: 680 08:07:17 -2734.903335c -5.09  -4.09c   +24.0165
iter: 681 08:08:31 -2734.912088c -4.28  -3.97    +24.0643
iter: 682 08:09:45 -2734.906263c -3.54  -3.75    +23.9240
iter: 683 08:11:00 -2734.909898c -4.52  -3.22    +23.9214
iter: 684 08:12:14 -2734.911289c -5.28  -3.22    +23.9199
iter: 685 08:13:28 -2734.898111c -5.36  -3.22    +23.9223
iter: 686 08:14:42 -2734.896141c -5.90  -3.32    +23.9215
iter: 687 08:15:56 -2734.885602c -4.27  -3.32    +23.9302
iter: 688 08:17:11 -2734.862375c -4.56  -3.51    +23.9219
iter: 689 08:18:25 -2734.787476c -3.23  -4.11c   +23.8317
iter: 690 08:19:39 -2734.980568c -2.82  -3.19    +23.9841
iter: 691 08:20:53 -2734.975519c -3.93  -3.04    +23.9348
iter: 692 08:22:07 -2735.023295c -3.72  -3.08    +23.9351
iter: 693 08:23:21 -2735.044822c -4.26  -2.94    +23.9726
iter: 694 08:24:36 -2735.034147c -3.78  -2.91    +23.9277
iter: 695 08:25:50 -2734.992903c -3.93  -2.89    +24.0090
iter: 696 08:27:04 -2735.054448c -3.84  -2.92    +24.1190
iter: 697 08:28:18 -2734.978406c -4.53  -2.81    +24.0934
iter: 698 08:29:32 -2734.989970c -4.24  -2.89    +24.1571
iter: 699 08:30:46 -2734.838241c -3.85  -2.85    +24.1770
iter: 700 08:32:00 -2734.828880c -4.12  -3.02    +24.2261
iter: 701 08:33:15 -2734.807087c -3.71  -3.11    +24.1508
iter: 702 08:34:29 -2734.825194c -4.22  -3.20    +24.1605
iter: 703 08:35:43 -2734.863584c -4.00  -3.30    +24.0941
iter: 704 08:36:57 -2734.873144c -4.38  -3.56    +24.0839
iter: 705 08:38:11 -2734.904760c -3.96  -3.81    +24.1055
iter: 706 08:39:25 -2734.914969c -4.15  -3.56    +24.0904
iter: 707 08:40:40 -2734.964418c -4.07  -3.50    +24.0619
iter: 708 08:41:54 -2734.934498c -4.85  -3.22    +24.0740
iter: 709 08:43:08 -2734.921150c -4.85  -3.37    +24.0920
iter: 710 08:44:22 -2734.922748c -4.88  -3.45    +24.1027
iter: 711 08:45:36 -2734.951731c -4.38  -3.42    +24.0796
iter: 712 08:46:50 -2734.925999c -4.87  -3.23    +24.0891
iter: 713 08:48:04 -2734.939821c -4.67  -3.40    +24.0874
iter: 714 08:49:19 -2734.937583c -4.60  -3.31    +24.0812
iter: 715 08:50:33 -2734.921432c -4.07  -3.31    +24.0640
iter: 716 08:51:48 -2734.945399c -4.34  -3.32    +24.0514
iter: 717 08:53:02 -2734.895140c -4.21  -3.20    +24.0462
iter: 718 08:54:16 -2734.926768c -4.10  -3.34    +24.0140
iter: 719 08:55:30 -2734.907661c -4.16  -3.24    +23.9270
iter: 720 08:56:44 -2734.898570c -5.03  -3.39    +23.9826
iter: 721 08:57:59 -2734.898462c -5.05  -3.61    +23.9917
iter: 722 08:59:13 -2734.909722c -5.08  -3.86    +24.0018
iter: 723 09:00:27 -2734.906958c -5.42  -3.47    +24.0276
iter: 724 09:01:41 -2734.907251c -5.09  -3.67    +24.0350
iter: 725 09:02:56 -2734.908339c -5.32  -3.81    +24.0345
[...]
                                          

Positions:
   0 Ni    -0.000000    0.000000   10.000000    ( 0.0000,  0.0000,  0.6703)
   1 Ni     1.261746    0.728469   12.060422    ( 0.0000,  0.0000,  0.6693)
   2 Ni    -0.000232    1.456197   14.098680    ( 0.0000,  0.0000,  0.6697)
   3 Ni     0.005635   -0.003261   16.132253    ( 0.0000,  0.0000,  0.6722)
   4 Ni    -1.261746    2.185408   10.000000    ( 0.0000,  0.0000,  0.6703)
   5 Ni    -0.000000    2.913877   12.060422    ( 0.0000,  0.0000,  0.6693)
   6 Ni    -1.261964    3.641613   14.098672    ( 0.0000,  0.0000,  0.6697)
   7 Ni    -1.301334    2.161512   16.125025    ( 0.0000,  0.0000,  0.6722)
   8 Ni    -2.523491    4.370815   10.000000    ( 0.0000,  0.0000,  0.6703)
   9 Ni    -1.261746    5.099284   12.060422    ( 0.0000,  0.0000,  0.6693)
  10 Ni    -2.523120    5.827510   14.107153    ( 0.0000,  0.0000,  0.6697)
  11 Ni    -2.523562    4.376245   16.132309    ( 0.0000,  0.0000,  0.6722)
  12 Ni     2.523491    0.000000   10.000000    ( 0.0000,  0.0000,  0.6703)
  13 Ni     3.785237    0.728469   12.060422    ( 0.0000,  0.0000,  0.6693)
  14 Ni     2.524880    1.456547   14.098561    ( 0.0000,  0.0000,  0.6697)
  15 Ni     2.518720   -0.002680   16.132292    ( 0.0000,  0.0000,  0.6722)
  16 Ni     1.261746    2.185408   10.000000    ( 0.0000,  0.0000,  0.6703)
  17 Ni     2.523491    2.913877   12.060422    ( 0.0000,  0.0000,  0.6693)
  18 Ni     1.261990    3.642157   14.058803    ( 0.0000,  0.0000,  0.6697)
  19 Ni     1.260972    2.150601   16.207446    ( 0.0000,  0.0000,  0.6722)
  20 Ni    -0.000000    4.370815   10.000000    ( 0.0000,  0.0000,  0.6703)
  21 Ni     1.261746    5.099284   12.060422    ( 0.0000,  0.0000,  0.6693)
  22 Ni     0.000499    5.828250   14.098660    ( 0.0000,  0.0000,  0.6697)
  23 Ni    -0.028754    4.387324   16.206346    ( 0.0000,  0.0000,  0.6722)
  24 Ni     5.046982    0.000000   10.000000    ( 0.0000,  0.0000,  0.6703)
  25 Ni     6.308728    0.728469   12.060422    ( 0.0000,  0.0000,  0.6693)
  26 Ni     5.047646    1.456515   14.090898    ( 0.0000,  0.0000,  0.6697)
  27 Ni     5.047858    0.046153   16.125010    ( 0.0000,  0.0000,  0.6722)
  28 Ni     3.785237    2.185408   10.000000    ( 0.0000,  0.0000,  0.6703)
  29 Ni     5.046982    2.913877   12.060422    ( 0.0000,  0.0000,  0.6693)
  30 Ni     3.786253    3.641271   14.098532    ( 0.0000,  0.0000,  0.6697)
  31 Ni     3.825160    2.162330   16.125188    ( 0.0000,  0.0000,  0.6722)
  32 Ni     2.523491    4.370815   10.000000    ( 0.0000,  0.0000,  0.6703)
  33 Ni     3.785237    5.099284   12.060422    ( 0.0000,  0.0000,  0.6693)
  34 Ni     2.523977    5.828286   14.098640    ( 0.0000,  0.0000,  0.6697)
  35 Ni     2.553326    4.388840   16.207374    ( 0.0000,  0.0000,  0.6722)
  36 O      1.262146    3.642206   17.341978    ( 0.0000,  0.0000,  0.0000)

Unit cell:
           periodic     x           y           z      points  spacing
  1. axis:    yes    7.570474    0.000000    0.000000    36     0.1821
  2. axis:    yes   -3.785237    6.556223    0.000000    36     0.1821
  3. axis:    no     0.000000    0.000000   26.181266   144     0.1818

  Lengths:   7.570474   7.570474  26.181266
  Angles:   90.000000  90.000000 120.000000

Effective grid spacing dv^(1/3) = 0.1910

     iter     time        total  log10-change:  magmom
                         energy  eigst   dens
iter:   1 11:49:12 -2736.555440  -2.70           +24.2214
iter:   2 11:50:26 -2773.067695  -1.47  -2.38    +24.2025
iter:   3 11:51:40 -2740.441491  -2.19  -1.64    +22.9000
iter:   4 11:52:53 -2736.201409  -2.07  -2.12    +23.4504
iter:   5 11:54:07 -2734.731942  -2.41  -2.44    +23.7542
iter:   6 11:55:21 -2734.878037  -3.26  -3.01    +23.7398
iter:   7 11:56:35 -2734.932068c -3.57  -2.95    +23.9282
iter:   8 11:57:49 -2735.084037c -3.50  -3.25    +23.8895
iter:   9 11:59:03 -2735.158354c -3.40  -3.42    +24.0166
iter:  10 12:00:17 -2735.183054c -3.37  -3.48    +24.1228
iter:  11 12:01:31 -2735.181215c -4.12  -3.44    +24.1137
iter:  12 12:02:44 -2735.198115c -4.09  -3.45    +24.1276
iter:  13 12:03:59 -2735.191192c -4.52  -3.32    +24.1373
iter:  14 12:05:12 -2735.192357c -4.39  -3.33    +24.1274
iter:  15 12:06:26 -2735.332447c -4.11  -3.16    +24.1221
iter:  16 12:07:40 -2735.179564c -4.24  -2.77    +24.0971
iter:  17 12:08:54 -2735.190690c -3.91  -3.36    +24.1245
iter:  18 12:10:08 -2735.169453c -4.95  -3.37    +24.1148
iter:  19 12:11:22 -2735.168622c -4.98  -3.73    +24.1265
iter:  20 12:12:36 -2735.173833c -5.20  -3.71    +24.1643
iter:  21 12:13:50 -2735.175104c -5.46  -3.94    +24.1519
iter:  22 12:15:04 -2735.180422c -4.93  -3.54    +24.1764
iter:  23 12:16:18 -2735.183773c -5.00  -3.88    +24.1822
iter:  24 12:17:32 -2735.186744c -4.77  -3.82    +24.1830
iter:  25 12:18:46 -2735.188368c -5.56  -3.71    +24.1809
iter:  26 12:19:59 -2735.188545c -5.33  -3.67    +24.1821
iter:  27 12:21:13 -2735.189569c -5.94  -3.66    +24.1821
iter:  28 12:22:27 -2735.192845c -5.29  -3.62    +24.1947
iter:  29 12:23:41 -2735.198887c -4.87  -3.54    +24.1957
iter:  30 12:24:55 -2735.191235c -5.36  -3.41    +24.1898
iter:  31 12:26:09 -2735.182842c -4.46  -3.58    +24.1786
iter:  32 12:27:23 -2735.191104c -4.46  -3.76    +24.1897
iter:  33 12:28:37 -2735.215802c -4.34  -3.55    +24.1968
iter:  34 12:29:51 -2735.196525c -5.11  -3.14    +24.1931
iter:  35 12:31:05 -2735.185856c -4.84  -3.40    +24.2176
iter:  36 12:32:18 -2735.177896c -4.66  -3.68    +24.2072
iter:  37 12:33:32 -2735.191368c -4.15  -4.04c   +24.2269
iter:  38 12:34:46 -2735.177007c -3.79  -3.36    +24.1596
iter:  39 12:36:00 -2735.178576c -3.97  -3.60    +24.1324
iter:  40 12:37:14 -2735.173628c -4.51  -3.31    +24.1238
iter:  41 12:38:28 -2735.172772c -5.49  -3.32    +24.1258
iter:  42 12:39:42 -2735.171828c -5.41  -3.36    +24.1172
iter:  43 12:40:56 -2735.179685c -4.60  -3.31    +24.0956
iter:  44 12:42:10 -2735.165101c -5.24  -3.18    +24.1046
iter:  45 12:43:24 -2735.152858c -5.07  -3.31    +24.0945
iter:  46 12:44:37 -2735.153080c -5.18  -3.35    +24.0859
iter:  47 12:45:51 -2735.123426c -4.36  -3.51    +24.0931
iter:  48 12:47:05 -2735.165812c -4.00  -3.57    +24.1007
iter:  49 12:48:19 -2735.156026c -4.53  -3.63    +24.0522
iter:  50 12:49:33 -2735.172344c -4.14  -3.64    +24.0381
iter:  51 12:50:47 -2735.174731c -4.68  -3.25    +24.0670
iter:  52 12:52:01 -2735.173263c -4.99  -3.25    +24.0819
iter:  53 12:53:15 -2735.156974c -5.31  -3.25    +24.0784
iter:  54 12:54:29 -2735.168908c -4.87  -3.41    +24.0908
iter:  55 12:55:43 -2735.150141c -4.21  -3.40    +24.0712
iter:  56 12:56:56 -2735.160889c -4.73  -3.55    +24.0796
iter:  57 12:58:10 -2735.179022c -4.15  -3.70    +24.1004
iter:  58 12:59:24 -2735.181970c -3.89  -3.58    +24.1411
iter:  59 13:00:38 -2735.184615c -4.83  -3.60    +24.1390
iter:  60 13:01:52 -2735.192465c -4.76  -3.52    +24.1522
iter:  61 13:03:06 -2735.221308c -4.92  -3.40    +24.1543
iter:  62 13:04:20 -2735.191363c -4.74  -3.20    +24.1655
iter:  63 13:05:34 -2735.183049c -4.70  -3.43    +24.1767
iter:  64 13:06:47 -2735.178885c -4.97  -3.50    +24.1860
iter:  65 13:08:02 -2735.176780c -4.98  -3.58    +24.1942
iter:  66 13:09:15 -2735.176304c -4.58  -3.64    +24.2062
iter:  67 13:10:29 -2735.176789c -5.13  -3.74    +24.2142
iter:  68 13:11:43 -2735.175664c -5.28  -3.77    +24.2137
iter:  69 13:12:57 -2735.177708c -5.44  -3.90    +24.2087
iter:  70 13:14:11 -2735.180414c -5.13  -4.01c   +24.2036
iter:  71 13:15:25 -2735.180736c -5.33  -3.93    +24.2060
iter:  72 13:16:39 -2735.179692c -5.86  -3.63    +24.1983
iter:  73 13:17:53 -2735.179475c -5.72  -3.85    +24.1958
iter:  74 13:19:06 -2735.179760c -6.32  -4.30c   +24.1963
iter:  75 13:20:21 -2735.179428c -6.66  -4.65c   +24.1961
iter:  76 13:21:34 -2735.179997c -6.51  -4.41c   +24.2000
iter:  77 13:22:48 -2735.180240c -6.17  -4.73c   +24.1985
iter:  78 13:24:02 -2735.180169c -6.25  -4.79c   +24.1966
iter:  79 13:25:16 -2735.180065c -5.93  -4.71c   +24.1922
iter:  80 13:26:30 -2735.180128c -6.57  -4.30c   +24.1959
iter:  81 13:27:44 -2735.180329c -5.56  -4.45c   +24.1853
iter:  82 13:28:58 -2735.180439c -6.11  -4.04c   +24.1884
iter:  83 13:30:12 -2735.181196c -6.20  -3.99    +24.1889
iter:  84 13:31:25 -2735.180762c -6.20  -3.85    +24.1872
iter:  85 13:32:39 -2735.185282c -4.68  -3.97    +24.1875
iter:  86 13:33:53 -2735.178656c -4.14  -3.50    +24.1983
iter:  87 13:35:07 -2735.181846c -4.76  -4.05c   +24.1943
iter:  88 13:36:21 -2735.182315c -5.55  -3.79    +24.1934
iter:  89 13:37:35 -2735.183194c -5.71  -3.74    +24.1912
iter:  90 13:38:49 -2735.180793c -5.19  -3.67    +24.1956
iter:  91 13:40:03 -2735.180484c -5.67  -4.06c   +24.1989
iter:  92 13:41:17 -2735.180870c -6.35  -4.20c   +24.1977
iter:  93 13:42:31 -2735.181613c -5.56  -4.01c   +24.1938
iter:  94 13:43:45 -2735.184191c -5.16  -3.82    +24.1862
iter:  95 13:44:59 -2735.179915c -4.66  -3.60    +24.2016
iter:  96 13:46:12 -2735.179073c -4.44  -4.57c   +24.2179
iter:  97 13:47:26 -2735.179746c -4.69  -3.73    +24.2243
iter:  98 13:48:40 -2735.179696c -5.50  -3.54    +24.2219
iter:  99 13:49:54 -2735.179734c -5.93  -3.55    +24.2259
iter: 100 13:51:08 -2735.179256c -6.07  -3.52    +24.2178
iter: 101 13:52:22 -2735.179414c -6.07  -3.60    +24.2156
iter: 102 13:53:36 -2735.174887c -5.34  -3.64    +24.2165
iter: 103 13:54:50 -2735.175852c -6.20  -3.89    +24.2160
iter: 104 13:56:03 -2735.177773c -5.63  -3.89    +24.2188
iter: 105 13:57:17 -2735.180515c -4.78  -3.96    +24.2111
iter: 106 13:58:31 -2735.178825c -4.76  -3.98    +24.2061
iter: 107 13:59:45 -2735.179068c -5.84  -4.23c   +24.2063
iter: 108 14:00:59 -2735.179870c -5.94  -4.59c   +24.2005
iter: 109 14:02:13 -2735.180371c -5.76  -4.46c   +24.2031
iter: 110 14:03:27 -2735.180601c -5.74  -4.31c   +24.2013
iter: 111 14:04:41 -2735.180503c -6.48  -4.12c   +24.1991
iter: 112 14:05:54 -2735.180753c -6.36  -4.32c   +24.1988
iter: 113 14:07:08 -2735.181317c -5.94  -4.23c   +24.1966
iter: 114 14:08:22 -2735.180770c -7.01  -4.02c   +24.1968
iter: 115 14:09:36 -2735.180747c -7.05  -4.10c   +24.1950
iter: 116 14:10:50 -2735.181602c -6.40  -4.08c   +24.1939
iter: 117 14:12:04 -2735.180749c -6.53  -3.92    +24.1941
iter: 118 14:13:18 -2735.180318c -6.53  -4.11c   +24.1943
iter: 119 14:14:32 -2735.179643c -6.40  -4.13c   +24.1947
iter: 120 14:15:45 -2735.181208c -5.94  -4.12c   +24.1957
iter: 121 14:16:59 -2735.179649c -6.32  -3.85    +24.1930
iter: 122 14:18:13 -2735.180454c -6.04  -4.22c   +24.1929
iter: 123 14:19:27 -2735.179462c -6.50  -4.26c   +24.1929
iter: 124 14:20:41 -2735.179446c -6.48  -4.37c   +24.1891
iter: 125 14:21:55 -2735.179718c -6.49  -4.31c   +24.1885
iter: 126 14:23:09 -2735.180894c -6.20  -4.51c   +24.1897
iter: 127 14:24:23 -2735.179987c -6.72  -4.11c   +24.1899
iter: 128 14:25:37 -2735.180027c -7.02  -4.58c   +24.1893
iter: 129 14:26:51 -2735.180022c -6.90  -4.58c   +24.1884
iter: 130 14:28:05 -2735.180062c -7.55c -4.79c   +24.1891

Converged after 130 iterations.

Dipole moment: (-0.734605, -5.450513, -0.154326) |e|*Ang

Total magnetic moment: (0.000000, 0.000000, 24.189098)
Local magnetic moments:
   0 Ni ( 0.000000,  0.000000,  0.722187)
   1 Ni ( 0.000000,  0.000000,  0.722079)
   2 Ni ( 0.000000,  0.000000,  0.709331)
   3 Ni ( 0.000000,  0.000000,  0.751897)
   4 Ni ( 0.000000,  0.000000,  0.736613)
   5 Ni ( 0.000000,  0.000000,  0.720459)
   6 Ni ( 0.000000,  0.000000,  0.710487)
   7 Ni ( 0.000000,  0.000000,  0.745679)
   8 Ni ( 0.000000,  0.000000,  0.720983)
   9 Ni ( 0.000000,  0.000000,  0.721529)
  10 Ni ( 0.000000,  0.000000,  0.699408)
  11 Ni ( 0.000000,  0.000000,  0.752705)
  12 Ni ( 0.000000,  0.000000,  0.720944)
  13 Ni ( 0.000000,  0.000000,  0.721230)
  14 Ni ( 0.000000,  0.000000,  0.708929)
  15 Ni ( 0.000000,  0.000000,  0.752677)
  16 Ni ( 0.000000,  0.000000,  0.724230)
  17 Ni ( 0.000000,  0.000000,  0.722248)
  18 Ni ( 0.000000,  0.000000,  0.743780)
  19 Ni ( 0.000000,  0.000000,  0.628115)
  20 Ni ( 0.000000,  0.000000,  0.721176)
  21 Ni ( 0.000000,  0.000000,  0.720476)
  22 Ni ( 0.000000,  0.000000,  0.710536)
  23 Ni ( 0.000000,  0.000000,  0.622860)
  24 Ni ( 0.000000,  0.000000,  0.736668)
  25 Ni ( 0.000000,  0.000000,  0.720805)
  26 Ni ( 0.000000,  0.000000,  0.709877)
  27 Ni ( 0.000000,  0.000000,  0.745610)
  28 Ni ( 0.000000,  0.000000,  0.737318)
  29 Ni ( 0.000000,  0.000000,  0.721200)
  30 Ni ( 0.000000,  0.000000,  0.708876)
  31 Ni ( 0.000000,  0.000000,  0.745234)
  32 Ni ( 0.000000,  0.000000,  0.724291)
  33 Ni ( 0.000000,  0.000000,  0.722091)
  34 Ni ( 0.000000,  0.000000,  0.709326)
  35 Ni ( 0.000000,  0.000000,  0.628083)
  36 O  ( 0.000000,  0.000000,  0.145836)

Energy contributions relative to reference atoms: (reference = -1491288.796404)

Kinetic:       +948.902147
Potential:     -825.411534
External:        +0.000000
XC:            -2861.544722
Entropy (-ST):   -2.061943
Local:           +3.905019
--------------------------
Free energy:   -2736.211033
Extrapolated:  -2735.180062

Spin contamination: 2.122928 electrons
Showing only first 2 kpts
                      Up                     Down
 Kpt  Band  Eigenvalues  Occupancy  Eigenvalues  Occupancy
  0   289     -6.12656    0.99912     -5.25693    0.15951
  0   290     -6.12301    0.99909     -5.24523    0.14444
  0   291     -6.11583    0.99902     -5.21905    0.11500
  0   292     -6.10559    0.99891     -5.20218    0.09891

  1   289     -6.20702    0.99961     -5.33944    0.30222
  1   290     -6.19781    0.99957     -5.31533    0.25392
  1   291     -6.17005    0.99943     -5.30618    0.23696
  1   292     -6.16620    0.99941     -5.29736    0.22139


Fermi level: -5.42312

No gap

Forces in eV/Ang:
  0 Ni   -0.00308    0.00183    0.09263
  1 Ni    0.00032   -0.00615   -0.16981
  2 Ni    0.09362    0.03196    0.14273
  3 Ni    0.00182   -0.00103   -0.02285
  4 Ni    0.01359    0.01176    0.09399
  5 Ni   -0.05609   -0.03354   -0.21524
  6 Ni    0.07507    0.06260    0.14253
  7 Ni    0.13482    0.07892   -0.01473
  8 Ni   -0.00393   -0.00153    0.09109
  9 Ni   -0.00676    0.00385   -0.16905
 10 Ni    0.00145   -0.00102   -0.04243
 11 Ni    0.00108   -0.00145   -0.02259
 12 Ni   -0.00061    0.00425    0.09108
 13 Ni    0.00944    0.00612   -0.22135
 14 Ni   -0.09140    0.03050    0.14308
 15 Ni    0.00162   -0.00028   -0.02252
 16 Ni   -0.00282   -0.00544    0.08702
 17 Ni    0.05568   -0.03207   -0.21654
 18 Ni    0.00129   -0.00078    0.24452
 19 Ni    0.00002   -0.11241    0.02049
 20 Ni   -0.00704    0.00413    0.08832
 21 Ni    0.00108    0.06521   -0.21535
 22 Ni   -0.01680   -0.09647    0.14253
 23 Ni   -0.09364    0.05393    0.02267
 24 Ni   -0.00328   -0.01752    0.09397
 25 Ni   -0.00815    0.00484   -0.22136
 26 Ni    0.00050   -0.00028   -0.03486
 27 Ni   -0.00097   -0.15637   -0.01476
 28 Ni   -0.01565    0.00916    0.09115
 29 Ni   -0.00047   -0.01124   -0.22155
 30 Ni   -0.07213    0.06387    0.14318
 31 Ni   -0.13209    0.07622   -0.01376
 32 Ni    0.00337    0.00528    0.08700
 33 Ni    0.00558    0.00280   -0.16983
 34 Ni    0.01922   -0.09723    0.14282
 35 Ni    0.09657    0.05561    0.02106
 36 O    -0.00014    0.00107    0.13370

BFGS:    8 14:28:50    -2735.180062        0.2445
System changes: positions 

Initializing position-dependent things.

Density initialized from wave functions
                                          
                                          
                                          
                                          
                                          
                   O                      
          Ni    Ni     Ni                 
            Ni    Ni    Ni                
           Ni    Ni    Ni                 
             NNi   NNi   NNi              
              Ni     Ni    Ni             
             Ni     Ni    Ni              
               Ni     Ni    Ni            
                 Ni    Ni     Ni          
          Ni    Ni    Ni                  
            Ni    Ni    Ni                
              Ni    Ni    Ni              
                                          
                                          
                                          
                                          

Positions:
   0 Ni    -0.000000    0.000000   10.000000    ( 0.0000,  0.0000,  0.6703)
   1 Ni     1.261746    0.728469   12.060422    ( 0.0000,  0.0000,  0.6693)
   2 Ni     0.005245    1.458206   14.106391    ( 0.0000,  0.0000,  0.6697)
   3 Ni     0.005627   -0.003252   16.130165    ( 0.0000,  0.0000,  0.6722)
   4 Ni    -1.261746    2.185408   10.000000    ( 0.0000,  0.0000,  0.6703)
   5 Ni    -0.000000    2.913877   12.060422    ( 0.0000,  0.0000,  0.6693)
   6 Ni    -1.257449    3.645186   14.106382    ( 0.0000,  0.0000,  0.6697)
   7 Ni    -1.293205    2.166259   16.123631    ( 0.0000,  0.0000,  0.6722)
   8 Ni    -2.523491    4.370815   10.000000    ( 0.0000,  0.0000,  0.6703)
   9 Ni    -1.261746    5.099284   12.060422    ( 0.0000,  0.0000,  0.6693)
  10 Ni    -2.523032    5.827450   14.104727    ( 0.0000,  0.0000,  0.6697)
  11 Ni    -2.523491    4.375991   16.130239    ( 0.0000,  0.0000,  0.6722)
  12 Ni     2.523491    0.000000   10.000000    ( 0.0000,  0.0000,  0.6703)
  13 Ni     3.785237    0.728469   12.060422    ( 0.0000,  0.0000,  0.6693)
  14 Ni     2.519556    1.458485   14.106303    ( 0.0000,  0.0000,  0.6697)
  15 Ni     2.518966   -0.002616   16.130224    ( 0.0000,  0.0000,  0.6722)
  16 Ni     1.261746    2.185408   10.000000    ( 0.0000,  0.0000,  0.6703)
  17 Ni     2.523491    2.913877   12.060422    ( 0.0000,  0.0000,  0.6693)
  18 Ni     1.262060    3.642114   14.073253    ( 0.0000,  0.0000,  0.6697)
  19 Ni     1.260963    2.154109   16.213555    ( 0.0000,  0.0000,  0.6722)
  20 Ni    -0.000000    4.370815   10.000000    ( 0.0000,  0.0000,  0.6703)
  21 Ni     1.261746    5.099284   12.060422    ( 0.0000,  0.0000,  0.6693)
  22 Ni    -0.000346    5.822546   14.106370    ( 0.0000,  0.0000,  0.6697)
  23 Ni    -0.025525    4.385455   16.212538    ( 0.0000,  0.0000,  0.6722)
  24 Ni     5.046982    0.000000   10.000000    ( 0.0000,  0.0000,  0.6703)
  25 Ni     6.308728    0.728469   12.060422    ( 0.0000,  0.0000,  0.6693)
  26 Ni     5.047670    1.456500   14.087628    ( 0.0000,  0.0000,  0.6697)
  27 Ni     5.047807    0.036730   16.123614    ( 0.0000,  0.0000,  0.6722)
  28 Ni     3.785237    2.185408   10.000000    ( 0.0000,  0.0000,  0.6703)
  29 Ni     5.046982    2.913877   12.060422    ( 0.0000,  0.0000,  0.6693)
  30 Ni     3.781910    3.644909   14.106277    ( 0.0000,  0.0000,  0.6697)
  31 Ni     3.817184    2.166930   16.123838    ( 0.0000,  0.0000,  0.6722)
  32 Ni     2.523491    4.370815   10.000000    ( 0.0000,  0.0000,  0.6703)
  33 Ni     3.785237    5.099284   12.060422    ( 0.0000,  0.0000,  0.6693)
  34 Ni     2.524979    5.822529   14.106353    ( 0.0000,  0.0000,  0.6697)
  35 Ni     2.550241    4.387064   16.213515    ( 0.0000,  0.0000,  0.6722)
  36 O      1.262148    3.642253   17.345397    ( 0.0000,  0.0000,  0.0000)

Unit cell:
           periodic     x           y           z      points  spacing
  1. axis:    yes    7.570474    0.000000    0.000000    36     0.1821
  2. axis:    yes   -3.785237    6.556223    0.000000    36     0.1821
  3. axis:    no     0.000000    0.000000   26.181266   144     0.1818

  Lengths:   7.570474   7.570474  26.181266
  Angles:   90.000000  90.000000 120.000000

Effective grid spacing dv^(1/3) = 0.1910

     iter     time        total  log10-change:  magmom
                         energy  eigst   dens
iter:   1 14:32:17 -2735.459217  -2.35           +24.1897
iter:   2 14:33:31 -2738.961083  -2.33  -2.68    +23.8000
slurmstepd: error: *** JOB 6729010 ON c131 CANCELLED AT 2023-10-05T14:34:32 DUE TO TIME LIMIT ***
srun: Job step aborted: Waiting up to 32 seconds for job step to finish.
slurmstepd: error: *** STEP 6729010.0 ON c131 CANCELLED AT 2023-10-05T14:34:32 DUE TO TIME LIMIT ***
