
  ___ ___ ___ _ _ _  
 |   |   |_  | | | | 
 | | | | | . | | | | 
 |__ |  _|___|_____|  22.8.0
 |___|_|             

User:   s204775@a060.nifl.fysik.dtu.dk
Date:   Wed Sep 27 22:25:59 2023
Arch:   x86_64
Pid:    3751
CWD:    /home/cat/s204775/projects/Bachelor_project/O_missing_features
Python: 3.10.4
gpaw:   /home/modules/software/GPAW/22.8.0-intel-2022a/lib/python3.10/site-packages/gpaw
_gpaw:  /home/modules/software/GPAW/22.8.0-intel-2022a/lib/python3.10/site-packages/
        _gpaw.cpython-310-x86_64-linux-gnu.so
ase:    /home/modules/software/ASE/3.22.1-intel-2022a/lib/python3.10/site-packages/ase (version 3.22.1)
numpy:  /home/modules/software/SciPy-bundle/2022.05-intel-2022a/lib/python3.10/site-packages/numpy (version 1.22.3)
scipy:  /home/modules/software/SciPy-bundle/2022.05-intel-2022a/lib/python3.10/site-packages/scipy (version 1.8.1)
libxc:  5.2.3
units:  Angstrom and eV
cores: 40
OpenMP: False
OMP_NUM_THREADS: 1

Input parameters:
  basis: dzp
  h: 0.18
  kpts: {size: (4, 4, 1)}
  xc: BEEF-vdW

System changes: positions, numbers, cell, pbc, initial_charges, initial_magmoms 

Initialize ...

species:
  Pb:
    name: Lead
    id: 66e73b13d76dc837202bcdb13fee58e6
    Z: 82.0
    valence: 14
    core: 68
    charge: 0.0
    file: /home/modules/software/GPAW-setups/0.9.20000/Pb.PBE.gz
    compensation charges: {type: gauss,
                           rc: 0.38,
                           lmax: 2}
    cutoffs: {filter: 2.36,
              core: 2.43}
    valence states:
      #              energy  rcut
      - 6s(2.00)   -11.969   1.259
      - 6p(2.00)    -3.506   1.275
      - 5d(10.00)   -21.211   1.217
      -  s          15.243   1.259
      -  p          23.705   1.275
      -  d           6.001   1.217
  
    # LCAO basis set for Pb:
    #   Name: dzp
    #   File: /home/modules/software/GPAW-setups/0.9.20000/Pb.dzp.basis.gz
    #   Number of radial functions: 7
    #   Number of spherical harmonics: 23
    #     l=0, rc=6.8438 Bohr: 6s-sz confined orbital
    #     l=1, rc=9.8125 Bohr: 6p-sz confined orbital
    #     l=2, rc=4.5156 Bohr: 5d-sz confined orbital
    #     l=0, rc=3.9062 Bohr: 6s-dz split-valence wave
    #     l=1, rc=5.8750 Bohr: 6p-dz split-valence wave
    #     l=2, rc=2.7969 Bohr: 5d-dz split-valence wave
    #     l=2, rc=9.8125 Bohr: d-type Gaussian polarization
    #   Number of RI-basis functions 0

  O:
    name: Oxygen
    id: 32ecd46bf208036f09c70b0ec9a88b78
    Z: 8.0
    valence: 6
    core: 2
    charge: 0.0
    file: /home/modules/software/GPAW-setups/0.9.20000/O.PBE.gz
    compensation charges: {type: gauss,
                           rc: 0.21,
                           lmax: 2}
    cutoffs: {filter: 1.17,
              core: 0.83}
    valence states:
      #              energy  rcut
      - 2s(2.00)   -23.961   0.688
      - 2p(4.00)    -9.029   0.598
      -  s           3.251   0.688
      -  p          18.182   0.598
      -  d           0.000   0.619
  
    # LCAO basis set for O:
    #   Name: dzp
    #   File: /home/modules/software/GPAW-setups/0.9.20000/O.dzp.basis.gz
    #   Number of radial functions: 5
    #   Number of spherical harmonics: 13
    #     l=0, rc=4.3438 Bohr: 2s-sz confined orbital
    #     l=1, rc=5.3906 Bohr: 2p-sz confined orbital
    #     l=0, rc=2.2969 Bohr: 2s-dz split-valence wave
    #     l=1, rc=2.8906 Bohr: 2p-dz split-valence wave
    #     l=2, rc=5.3906 Bohr: d-type Gaussian polarization
    #   Number of RI-basis functions 0

Reference energy: -20423921.533412  # eV

Spin-paired calculation

Convergence criteria:
 Maximum [total energy] change in last 3 cyles: 0.0005 eV / electron
 Maximum integral of absolute [dens]ity change: 0.0001 electrons / valence electron
 Maximum integral of absolute [eigenst]ate change: 4e-08 eV^2 / valence electron
 Maximum number of scf [iter]ations: 333
 (Square brackets indicate name in SCF output, whereas a 'c' in
 the SCF output indicates the quantity has converged.)

Symmetries present (total): 1

  ( 1  0  0)
  ( 0  1  0)
  ( 0  0  1)

16 k-points: 4 x 4 x 1 Monkhorst-Pack grid
8 k-points in the irreducible part of the Brillouin zone
       k-points in crystal coordinates                weights
   0:     0.12500000   -0.37500000    0.00000000          2/16
   1:     0.12500000   -0.12500000    0.00000000          2/16
   2:     0.12500000    0.12500000    0.00000000          2/16
   3:     0.12500000    0.37500000    0.00000000          2/16
   4:     0.37500000   -0.37500000    0.00000000          2/16
   5:     0.37500000   -0.12500000    0.00000000          2/16
   6:     0.37500000    0.12500000    0.00000000          2/16
   7:     0.37500000    0.37500000    0.00000000          2/16

Wave functions: Uniform real-space grid
  Kinetic energy operator: 8*3+1=25 point O(h^6) finite-difference Laplacian
  ScaLapack parameters: grid=1x1, blocksize=None
  Wavefunction extrapolation:
    Improved wavefunction reuse through dual PAW basis 

Occupation numbers: Fermi-Dirac:
  width: 0.1000  # eV
 

Eigensolver
   Davidson(niter=2) 

Densities:
  Coarse grid: 52*52*160 grid
  Fine grid: 104*104*320 grid
  Total Charge: 0.000000 

Density mixing:
  Method: separate
  Backend: pulay
  Linear mixing parameter: 0.05
  old densities: 5
  Damping of long wavelength oscillations: 50 

Hamiltonian:
  XC and Coulomb potentials evaluated on a 104*104*320 grid
  Using the BEEF-vdW Exchange-Correlation functional
  Interpolation: tri-quintic (5. degree polynomial)
  Poisson solver: FastPoissonSolver using
    Stencil: 8*3+1=25 point O(h^6) finite-difference Laplacian
    FFT axes: [0, 1]
    FST axes: [2]
 

XC parameters: BEEF-vdW with 2 nearest neighbor stencil

Memory estimate:
  Process memory now: 229.56 MiB
  Calculator: 903.77 MiB
    Density: 65.95 MiB
      Arrays: 16.88 MiB
      Localized functions: 42.68 MiB
      Mixer: 6.40 MiB
    Hamiltonian: 14.76 MiB
      Arrays: 11.04 MiB
      XC: 0.00 MiB
      Poisson: 0.00 MiB
      vbar: 3.72 MiB
    Wavefunctions: 823.07 MiB
      Arrays psit_nG: 396.51 MiB
      Eigensolver: 417.57 MiB
      Projections: 0.63 MiB
      Projectors: 8.36 MiB

Total number of cores used: 40
Parallelization over k-points: 8
Domain decomposition: 1 x 1 x 5

Number of atoms: 37
Number of atomic orbitals: 841
Number of bands in calculation: 310
Number of valence electrons: 510
Bands to converge: occupied

... initialized

Initializing position-dependent things.

Density initialized from atomic densities
Creating initial wave functions:
  310 bands from LCAO basis set

                                                    
                                                    
                                                    
                                                    
                                                    
                                                    
           Pb       Pb  O    Pb                     
                                                    
              Pb      Pb       Pb                   
             Pb      Pb       Pb                    
                Pb      Pb       Pb                 
               Pb       Pb      Pb                  
                                                    
                PPb      PPb      Pb                
                                                    
                   Pb      Pb       Pb              
                                                    
           Pb       PPb      Pb       Pb            
                                                    
              Pb      Pb       Pb                   
                                                    
                Pb      Pb       Pb                 
                                                    
                                                    
                                                    
                                                    

Positions:
   0 Pb     0.000000    0.000000   10.000000    ( 0.0000,  0.0000,  0.0000)
   1 Pb     1.778836    1.027012   12.904828    ( 0.0000,  0.0000,  0.0000)
   2 Pb    -0.000000    2.058039   15.925154    ( 0.0000,  0.0000,  0.0000)
   3 Pb    -0.000000    0.000000   18.734333    ( 0.0000,  0.0000,  0.0000)
   4 Pb    -1.778836    3.081035   10.000000    ( 0.0000,  0.0000,  0.0000)
   5 Pb    -0.000000    4.108047   12.904828    ( 0.0000,  0.0000,  0.0000)
   6 Pb    -1.780038    5.134365   15.935257    ( 0.0000,  0.0000,  0.0000)
   7 Pb    -1.780612    3.082298   18.759869    ( 0.0000,  0.0000,  0.0000)
   8 Pb    -3.557673    6.162070   10.000000    ( 0.0000,  0.0000,  0.0000)
   9 Pb    -1.778836    7.189082   12.904828    ( 0.0000,  0.0000,  0.0000)
  10 Pb    -3.554195    8.214086   15.925154    ( 0.0000,  0.0000,  0.0000)
  11 Pb    -3.557467    6.159901   18.759869    ( 0.0000,  0.0000,  0.0000)
  12 Pb     3.557673    0.000000   10.000000    ( 0.0000,  0.0000,  0.0000)
  13 Pb     5.336509    1.027012   12.904828    ( 0.0000,  0.0000,  0.0000)
  14 Pb     3.550963    2.050149   15.930366    ( 0.0000,  0.0000,  0.0000)
  15 Pb     3.559654    0.000906   18.759869    ( 0.0000,  0.0000,  0.0000)
  16 Pb     1.778836    3.081035   10.000000    ( 0.0000,  0.0000,  0.0000)
  17 Pb     3.557673    4.108047   12.904828    ( 0.0000,  0.0000,  0.0000)
  18 Pb     1.780038    5.134365   15.935257    ( 0.0000,  0.0000,  0.0000)
  19 Pb     1.780612    3.082298   18.759869    ( 0.0000,  0.0000,  0.0000)
  20 Pb    -0.000000    6.162070   10.000000    ( 0.0000,  0.0000,  0.0000)
  21 Pb     1.778836    7.189082   12.904828    ( 0.0000,  0.0000,  0.0000)
  22 Pb    -0.000000    8.217481   15.935257    ( 0.0000,  0.0000,  0.0000)
  23 Pb    -0.000000    6.162070   18.757272    ( 0.0000,  0.0000,  0.0000)
  24 Pb     7.115346    0.000000   10.000000    ( 0.0000,  0.0000,  0.0000)
  25 Pb     8.894182    1.027012   12.904828    ( 0.0000,  0.0000,  0.0000)
  26 Pb     7.122056    2.050149   15.930366    ( 0.0000,  0.0000,  0.0000)
  27 Pb     7.113364    0.000906   18.759869    ( 0.0000,  0.0000,  0.0000)
  28 Pb     5.336509    3.081035   10.000000    ( 0.0000,  0.0000,  0.0000)
  29 Pb     7.115346    4.108047   12.904828    ( 0.0000,  0.0000,  0.0000)
  30 Pb     5.336509    5.142806   15.930366    ( 0.0000,  0.0000,  0.0000)
  31 Pb     5.336509    3.081035   18.756500    ( 0.0000,  0.0000,  0.0000)
  32 Pb     3.557673    6.162070   10.000000    ( 0.0000,  0.0000,  0.0000)
  33 Pb     5.336509    7.189082   12.904828    ( 0.0000,  0.0000,  0.0000)
  34 Pb     3.554195    8.214086   15.925154    ( 0.0000,  0.0000,  0.0000)
  35 Pb     3.557467    6.159901   18.759869    ( 0.0000,  0.0000,  0.0000)
  36 O      1.780612    5.136203   19.786822    ( 0.0000,  0.0000,  0.0000)

Unit cell:
           periodic     x           y           z      points  spacing
  1. axis:    yes   10.673019    0.000000    0.000000    52     0.1778
  2. axis:    yes   -5.336509    9.243105    0.000000    52     0.1778
  3. axis:    no     0.000000    0.000000   28.714483   160     0.1795

  Lengths:  10.673019  10.673019  28.714483
  Angles:   90.000000  90.000000 120.000000

Effective grid spacing dv^(1/3) = 0.1871

     iter     time        total  log10-change:
                         energy  eigst   dens
iter:   1 22:27:11 -12840.729048
iter:   2 22:27:52 -12840.959053  -0.33  -1.57
iter:   3 22:28:32 -12839.816537  -0.81  -1.58
iter:   4 22:29:12 -12841.074275  -1.23  -1.68
iter:   5 22:29:52 -12841.069314  -1.60  -1.63
iter:   6 22:30:32 -12840.413962  -1.63  -1.74
iter:   7 22:31:13 -12840.317777  -1.29  -2.02
iter:   8 22:31:53 -12840.112114  -1.82  -2.35
iter:   9 22:32:33 -12840.089011c -2.21  -2.36
iter:  10 22:33:13 -12840.060153c -2.61  -2.56
iter:  11 22:33:53 -12840.062884c -3.12  -2.66
iter:  12 22:34:34 -12840.071418c -3.13  -2.65
iter:  13 22:35:14 -12840.071521c -3.64  -2.65
iter:  14 22:35:54 -12840.077055c -4.30  -2.64
iter:  15 22:36:34 -12840.057259c -3.31  -2.61
iter:  16 22:37:14 -12840.050307c -3.34  -2.74
iter:  17 22:37:55 -12840.052759c -3.56  -2.90
iter:  18 22:38:35 -12840.050155c -3.56  -2.94
iter:  19 22:39:15 -12840.049967c -3.88  -3.12
iter:  20 22:39:55 -12840.047443c -4.32  -3.21
iter:  21 22:40:35 -12840.045784c -4.26  -3.37
iter:  22 22:41:16 -12840.045745c -5.30  -3.66
iter:  23 22:41:56 -12840.045618c -5.41  -3.79
iter:  24 22:42:36 -12840.045563c -5.75  -3.84
iter:  25 22:43:16 -12840.045506c -5.37  -3.96
iter:  26 22:43:56 -12840.045460c -5.61  -4.19c
iter:  27 22:44:37 -12840.045463c -6.40  -4.36c
iter:  28 22:45:17 -12840.045462c -6.74  -4.41c
iter:  29 22:45:57 -12840.045457c -6.48  -4.50c
iter:  30 22:46:37 -12840.045460c -6.87  -4.64c
iter:  31 22:47:17 -12840.045460c -7.66c -4.91c

Converged after 31 iterations.

Dipole moment: (-8.504681, -15.538754, -0.227567) |e|*Ang

Energy contributions relative to reference atoms: (reference = -20423921.533412)

Kinetic:       +1468.974311
Potential:     -1413.183153
External:        +0.000000
XC:            -12891.610761
Entropy (-ST):   -0.594177
Local:           -3.928769
--------------------------
Free energy:   -12840.342549
Extrapolated:  -12840.045460

Showing only first 2 kpts
 Kpt  Band  Eigenvalues  Occupancy
  0   253     -4.18459    1.33714
  0   254     -4.13159    1.08567
  0   255     -4.08703    0.86391
  0   256     -4.01120    0.52533

  1   253     -4.64673    1.99029
  1   254     -4.59224    1.98332
  1   255     -4.47097    1.94499
  1   256     -4.45160    1.93363


Fermi level: -4.11442

No gap

Forces in eV/Ang:
  0 Pb    0.01424   -0.00818    0.13779
  1 Pb    0.00879    0.00269   -0.13235
  2 Pb   -0.07800   -0.05553   -0.10197
  3 Pb    0.01429   -0.00796   -0.01974
  4 Pb    0.00165    0.01235    0.08919
  5 Pb   -0.05091   -0.04480   -0.11566
  6 Pb   -0.08982   -0.05103   -0.10393
  7 Pb   -0.04783   -0.02500   -0.00909
  8 Pb   -0.00560   -0.00702    0.10197
  9 Pb   -0.02522    0.01458   -0.13418
 10 Pb    0.00005   -0.00027    0.08163
 11 Pb    0.01343    0.01250   -0.04423
 12 Pb    0.00333    0.00836    0.10196
 13 Pb   -0.02090    0.02260   -0.04375
 14 Pb    0.09995   -0.06004   -0.10943
 15 Pb   -0.00429   -0.01775   -0.04411
 16 Pb    0.02299    0.01903    0.09227
 17 Pb    0.05317   -0.03077   -0.08935
 18 Pb    0.01004   -0.00620   -0.17571
 19 Pb   -0.00231   -0.19207    0.27739
 20 Pb    0.00175   -0.00096    0.12015
 21 Pb    0.01321    0.06650   -0.11580
 22 Pb   -0.00056    0.10305   -0.10358
 23 Pb   -0.16910    0.09760    0.30393
 24 Pb   -0.00996   -0.00766    0.08925
 25 Pb   -0.00576    0.00340   -0.07640
 26 Pb   -0.00898    0.00513    0.04153
 27 Pb   -0.00252    0.05479   -0.00916
 28 Pb   -0.02576    0.01483    0.10156
 29 Pb   -0.03006    0.00680   -0.04353
 30 Pb    0.10240   -0.05668   -0.11003
 31 Pb    0.05604   -0.03265   -0.01115
 32 Pb   -0.00498   -0.02945    0.09229
 33 Pb    0.00212   -0.00896   -0.13236
 34 Pb    0.00904    0.09553   -0.10216
 35 Pb    0.17183    0.10176    0.27467
 36 O    -0.02133    0.00861   -0.01332

      Step     Time          Energy         fmax
BFGS:    0 22:47:33   -12840.045460        0.3612
System changes: positions 

Initializing position-dependent things.

Density initialized from wave functions
                                                    
                                                    
                                                    
                                                    
                                                    
                                                    
           Pb       Pb  O    Pb                     
                                                    
              Pb      Pb       Pb                   
             Pb      Pb       Pb                    
                Pb      Pb       Pb                 
               Pb       Pb      Pb                  
                                                    
                PPb      PPb      Pb                
                                                    
                   Pb      Pb       Pb              
                                                    
           Pb       PPb      Pb       Pb            
                                                    
              Pb      Pb       Pb                   
                                                    
                Pb      Pb       Pb                 
                                                    
                                                    
                                                    
                                                    

Positions:
   0 Pb     0.000000    0.000000   10.000000    ( 0.0000,  0.0000,  0.0000)
   1 Pb     1.778836    1.027012   12.904828    ( 0.0000,  0.0000,  0.0000)
   2 Pb    -0.001114    2.057246   15.923697    ( 0.0000,  0.0000,  0.0000)
   3 Pb     0.000204   -0.000114   18.734051    ( 0.0000,  0.0000,  0.0000)
   4 Pb    -1.778836    3.081035   10.000000    ( 0.0000,  0.0000,  0.0000)
   5 Pb    -0.000000    4.108047   12.904828    ( 0.0000,  0.0000,  0.0000)
   6 Pb    -1.781321    5.133636   15.933773    ( 0.0000,  0.0000,  0.0000)
   7 Pb    -1.781295    3.081941   18.759739    ( 0.0000,  0.0000,  0.0000)
   8 Pb    -3.557673    6.162070   10.000000    ( 0.0000,  0.0000,  0.0000)
   9 Pb    -1.778836    7.189082   12.904828    ( 0.0000,  0.0000,  0.0000)
  10 Pb    -3.554195    8.214082   15.926320    ( 0.0000,  0.0000,  0.0000)
  11 Pb    -3.557275    6.160080   18.759238    ( 0.0000,  0.0000,  0.0000)
  12 Pb     3.557673    0.000000   10.000000    ( 0.0000,  0.0000,  0.0000)
  13 Pb     5.336509    1.027012   12.904828    ( 0.0000,  0.0000,  0.0000)
  14 Pb     3.552391    2.049292   15.928802    ( 0.0000,  0.0000,  0.0000)
  15 Pb     3.559593    0.000652   18.759239    ( 0.0000,  0.0000,  0.0000)
  16 Pb     1.778836    3.081035   10.000000    ( 0.0000,  0.0000,  0.0000)
  17 Pb     3.557673    4.108047   12.904828    ( 0.0000,  0.0000,  0.0000)
  18 Pb     1.780181    5.134276   15.932747    ( 0.0000,  0.0000,  0.0000)
  19 Pb     1.780579    3.079554   18.763832    ( 0.0000,  0.0000,  0.0000)
  20 Pb    -0.000000    6.162070   10.000000    ( 0.0000,  0.0000,  0.0000)
  21 Pb     1.778836    7.189082   12.904828    ( 0.0000,  0.0000,  0.0000)
  22 Pb    -0.000008    8.218953   15.933778    ( 0.0000,  0.0000,  0.0000)
  23 Pb    -0.002416    6.163464   18.761614    ( 0.0000,  0.0000,  0.0000)
  24 Pb     7.115346    0.000000   10.000000    ( 0.0000,  0.0000,  0.0000)
  25 Pb     8.894182    1.027012   12.904828    ( 0.0000,  0.0000,  0.0000)
  26 Pb     7.121927    2.050223   15.930959    ( 0.0000,  0.0000,  0.0000)
  27 Pb     7.113328    0.001689   18.759738    ( 0.0000,  0.0000,  0.0000)
  28 Pb     5.336509    3.081035   10.000000    ( 0.0000,  0.0000,  0.0000)
  29 Pb     7.115346    4.108047   12.904828    ( 0.0000,  0.0000,  0.0000)
  30 Pb     5.337972    5.141997   15.928794    ( 0.0000,  0.0000,  0.0000)
  31 Pb     5.337310    3.080569   18.756341    ( 0.0000,  0.0000,  0.0000)
  32 Pb     3.557673    6.162070   10.000000    ( 0.0000,  0.0000,  0.0000)
  33 Pb     5.336509    7.189082   12.904828    ( 0.0000,  0.0000,  0.0000)
  34 Pb     3.554324    8.215451   15.923694    ( 0.0000,  0.0000,  0.0000)
  35 Pb     3.559921    6.161355   18.763793    ( 0.0000,  0.0000,  0.0000)
  36 O      1.780307    5.136326   19.786632    ( 0.0000,  0.0000,  0.0000)

Unit cell:
           periodic     x           y           z      points  spacing
  1. axis:    yes   10.673019    0.000000    0.000000    52     0.1778
  2. axis:    yes   -5.336509    9.243105    0.000000    52     0.1778
  3. axis:    no     0.000000    0.000000   28.714483   160     0.1795

  Lengths:  10.673019  10.673019  28.714483
  Angles:   90.000000  90.000000 120.000000

Effective grid spacing dv^(1/3) = 0.1871

     iter     time        total  log10-change:
                         energy  eigst   dens
iter:   1 22:48:42 -12840.053700  -3.66
iter:   2 22:49:22 -12840.053427  -4.59  -3.57
iter:   3 22:50:03 -12840.053269c -5.28  -3.65
iter:   4 22:50:43 -12840.053178c -5.38  -3.95
iter:   5 22:51:24 -12840.053195c -5.94  -4.19c
iter:   6 22:52:04 -12840.053198c -6.22  -4.32c
iter:   7 22:52:45 -12840.053191c -6.59  -4.44c
iter:   8 22:53:25 -12840.053199c -6.66  -4.57c
iter:   9 22:54:06 -12840.053198c -7.26  -4.72c
iter:  10 22:54:46 -12840.053198c -7.67c -4.82c

Converged after 10 iterations.

Dipole moment: (-8.517552, -15.526380, -0.226253) |e|*Ang

Energy contributions relative to reference atoms: (reference = -20423921.533412)

Kinetic:       +1468.950215
Potential:     -1413.210576
External:        +0.000000
XC:            -12891.582951
Entropy (-ST):   -0.593844
Local:           -3.912964
--------------------------
Free energy:   -12840.350120
Extrapolated:  -12840.053198

Showing only first 2 kpts
 Kpt  Band  Eigenvalues  Occupancy
  0   253     -4.18366    1.33874
  0   254     -4.13018    1.08503
  0   255     -4.08467    0.85867
  0   256     -4.01017    0.52632

  1   253     -4.64444    1.99020
  1   254     -4.59043    1.98323
  1   255     -4.47032    1.94533
  1   256     -4.45113    1.93415


Fermi level: -4.11313

No gap

Forces in eV/Ang:
  0 Pb    0.01352   -0.00776    0.13917
  1 Pb    0.00914   -0.00040   -0.13358
  2 Pb   -0.06823   -0.04522   -0.08959
  3 Pb    0.01202   -0.00646   -0.01824
  4 Pb    0.00245    0.01279    0.09040
  5 Pb   -0.05259   -0.04536   -0.12159
  6 Pb   -0.07525   -0.04573   -0.09373
  7 Pb   -0.04189   -0.02238   -0.00951
  8 Pb   -0.00553   -0.00788    0.10386
  9 Pb   -0.02774    0.01604   -0.13525
 10 Pb   -0.00050    0.00007    0.07442
 11 Pb    0.01236    0.00944   -0.04182
 12 Pb    0.00411    0.00873    0.10386
 13 Pb   -0.01805    0.02411   -0.04699
 14 Pb    0.08580   -0.05163   -0.09710
 15 Pb   -0.00229   -0.01518   -0.04170
 16 Pb    0.02306    0.02048    0.09400
 17 Pb    0.05486   -0.03174   -0.09571
 18 Pb    0.01172   -0.00713   -0.15280
 19 Pb   -0.00021   -0.17361    0.25722
 20 Pb    0.00334   -0.00187    0.12139
 21 Pb    0.01287    0.06823   -0.12173
 22 Pb    0.00210    0.08779   -0.09344
 23 Pb   -0.16508    0.09544    0.28674
 24 Pb   -0.00994   -0.00857    0.09046
 25 Pb   -0.00917    0.00536   -0.07901
 26 Pb   -0.00773    0.00444    0.03488
 27 Pb   -0.00179    0.04825   -0.00954
 28 Pb   -0.02676    0.01541    0.10332
 29 Pb   -0.02994    0.00359   -0.04679
 30 Pb    0.08805   -0.04866   -0.09773
 31 Pb    0.05271   -0.03072   -0.01113
 32 Pb   -0.00619   -0.03023    0.09402
 33 Pb    0.00496   -0.00773   -0.13359
 34 Pb    0.00501    0.08194   -0.08987
 35 Pb    0.15560    0.09018    0.25521
 36 O    -0.01918    0.00810   -0.01892

BFGS:    1 22:55:02   -12840.053198        0.3444
System changes: positions 

Initializing position-dependent things.

Density initialized from wave functions
                                                    
                                                    
                                                    
                                                    
                                                    
                                                    
           Pb       Pb  O    Pb                     
                                                    
             Pb       Pb       Pb                   
             Pb      Pb       Pb                    
                Pb      Pb       Pb                 
               Pb       Pb      Pb                  
                                                    
                PPb      PPb     PPb                
                                                    
                   Pb      Pb       Pb              
                                                    
           Pb       PPb      Pb       Pb            
                                                    
              Pb      Pb       Pb                   
                                                    
                Pb      Pb       Pb                 
                                                    
                                                    
                                                    
                                                    

Positions:
   0 Pb     0.000000    0.000000   10.000000    ( 0.0000,  0.0000,  0.0000)
   1 Pb     1.778836    1.027012   12.904828    ( 0.0000,  0.0000,  0.0000)
   2 Pb    -0.012510    2.049683   15.908736    ( 0.0000,  0.0000,  0.0000)
   3 Pb     0.002213   -0.001195   18.731008    ( 0.0000,  0.0000,  0.0000)
   4 Pb    -1.778836    3.081035   10.000000    ( 0.0000,  0.0000,  0.0000)
   5 Pb    -0.000000    4.108047   12.904828    ( 0.0000,  0.0000,  0.0000)
   6 Pb    -1.793898    5.126001   15.918127    ( 0.0000,  0.0000,  0.0000)
   7 Pb    -1.788291    3.078205   18.758155    ( 0.0000,  0.0000,  0.0000)
   8 Pb    -3.557673    6.162070   10.000000    ( 0.0000,  0.0000,  0.0000)
   9 Pb    -1.778836    7.189082   12.904828    ( 0.0000,  0.0000,  0.0000)
  10 Pb    -3.554277    8.214093   15.938740    ( 0.0000,  0.0000,  0.0000)
  11 Pb    -3.555212    6.161661   18.752262    ( 0.0000,  0.0000,  0.0000)
  12 Pb     3.557673    0.000000   10.000000    ( 0.0000,  0.0000,  0.0000)
  13 Pb     5.336509    1.027012   12.904828    ( 0.0000,  0.0000,  0.0000)
  14 Pb     3.566725    2.040667   15.912590    ( 0.0000,  0.0000,  0.0000)
  15 Pb     3.559207   -0.001884   18.752283    ( 0.0000,  0.0000,  0.0000)
  16 Pb     1.778836    3.081035   10.000000    ( 0.0000,  0.0000,  0.0000)
  17 Pb     3.557673    4.108047   12.904828    ( 0.0000,  0.0000,  0.0000)
  18 Pb     1.782131    5.133090   15.907226    ( 0.0000,  0.0000,  0.0000)
  19 Pb     1.780538    3.050576   18.806749    ( 0.0000,  0.0000,  0.0000)
  20 Pb    -0.000000    6.162070   10.000000    ( 0.0000,  0.0000,  0.0000)
  21 Pb     1.778836    7.189082   12.904828    ( 0.0000,  0.0000,  0.0000)
  22 Pb     0.000335    8.233621   15.918181    ( 0.0000,  0.0000,  0.0000)
  23 Pb    -0.029936    6.179375   18.809442    ( 0.0000,  0.0000,  0.0000)
  24 Pb     7.115346    0.000000   10.000000    ( 0.0000,  0.0000,  0.0000)
  25 Pb     8.894182    1.027012   12.904828    ( 0.0000,  0.0000,  0.0000)
  26 Pb     7.120636    2.050964   15.936789    ( 0.0000,  0.0000,  0.0000)
  27 Pb     7.113028    0.009746   18.758150    ( 0.0000,  0.0000,  0.0000)
  28 Pb     5.336509    3.081035   10.000000    ( 0.0000,  0.0000,  0.0000)
  29 Pb     7.115346    4.108047   12.904828    ( 0.0000,  0.0000,  0.0000)
  30 Pb     5.352681    5.133868   15.912475    ( 0.0000,  0.0000,  0.0000)
  31 Pb     5.346102    3.075445   18.754486    ( 0.0000,  0.0000,  0.0000)
  32 Pb     3.557673    6.162070   10.000000    ( 0.0000,  0.0000,  0.0000)
  33 Pb     5.336509    7.189082   12.904828    ( 0.0000,  0.0000,  0.0000)
  34 Pb     3.555170    8.229140   15.908686    ( 0.0000,  0.0000,  0.0000)
  35 Pb     3.585892    6.176412   18.806373    ( 0.0000,  0.0000,  0.0000)
  36 O      1.777105    5.137678   19.783493    ( 0.0000,  0.0000,  0.0000)

Unit cell:
           periodic     x           y           z      points  spacing
  1. axis:    yes   10.673019    0.000000    0.000000    52     0.1778
  2. axis:    yes   -5.336509    9.243105    0.000000    52     0.1778
  3. axis:    no     0.000000    0.000000   28.714483   160     0.1795

  Lengths:  10.673019  10.673019  28.714483
  Angles:   90.000000  90.000000 120.000000

Effective grid spacing dv^(1/3) = 0.1871

     iter     time        total  log10-change:
                         energy  eigst   dens
iter:   1 22:56:10 -12840.219962  -1.62
iter:   2 22:56:51 -12840.166521  -2.52  -2.38
iter:   3 22:57:31 -12840.120308c -3.23  -2.50
iter:   4 22:58:12 -12840.109331c -3.34  -2.91
iter:   5 22:58:52 -12840.109032c -3.94  -3.17
iter:   6 22:59:32 -12840.108879c -4.14  -3.28
iter:   7 23:00:13 -12840.108966c -4.51  -3.42
iter:   8 23:00:53 -12840.109476c -4.65  -3.55
iter:   9 23:01:34 -12840.109475c -5.25  -3.72
iter:  10 23:02:14 -12840.109467c -5.63  -3.80
iter:  11 23:02:55 -12840.109450c -5.99  -3.86
iter:  12 23:03:35 -12840.109501c -5.73  -3.99
iter:  13 23:04:16 -12840.109499c -6.15  -4.27c
iter:  14 23:04:56 -12840.109481c -6.43  -4.30c
iter:  15 23:05:36 -12840.109481c -6.60  -4.43c
iter:  16 23:06:17 -12840.109480c -7.09  -4.61c
iter:  17 23:06:57 -12840.109478c -7.53c -4.69c

Converged after 17 iterations.

Dipole moment: (-8.630888, -15.410775, -0.210251) |e|*Ang

Energy contributions relative to reference atoms: (reference = -20423921.533412)

Kinetic:       +1467.032422
Potential:     -1411.702540
External:        +0.000000
XC:            -12891.232320
Entropy (-ST):   -0.590527
Local:           -3.911776
--------------------------
Free energy:   -12840.404742
Extrapolated:  -12840.109478

Showing only first 2 kpts
 Kpt  Band  Eigenvalues  Occupancy
  0   253     -4.17701    1.35806
  0   254     -4.11820    1.08045
  0   255     -4.06106    0.79776
  0   256     -4.00109    0.53403

  1   253     -4.62213    1.98903
  1   254     -4.57328    1.98219
  1   255     -4.46536    1.94848
  1   256     -4.44751    1.93872


Fermi level: -4.10208

No gap

Forces in eV/Ang:
  0 Pb    0.00944   -0.00540    0.13880
  1 Pb    0.00891   -0.00644   -0.13277
  2 Pb   -0.02358    0.00137   -0.03405
  3 Pb    0.00472   -0.00207   -0.00892
  4 Pb   -0.00304    0.01088    0.08250
  5 Pb   -0.04550   -0.04098   -0.11957
  6 Pb   -0.00215   -0.01207   -0.05359
  7 Pb   -0.00766   -0.00931   -0.00658
  8 Pb   -0.00476   -0.01385    0.10515
  9 Pb   -0.03267    0.01887   -0.13500
 10 Pb   -0.00656    0.00370    0.03281
 11 Pb    0.00076   -0.00480   -0.02454
 12 Pb    0.00962    0.01105    0.10516
 13 Pb   -0.01882    0.02320   -0.06417
 14 Pb    0.01373   -0.01755   -0.04648
 15 Pb    0.00450    0.00200   -0.02453
 16 Pb    0.02414    0.01841    0.09422
 17 Pb    0.04768   -0.02762   -0.09615
 18 Pb    0.02041   -0.01189   -0.04089
 19 Pb    0.00146   -0.03519    0.16212
 20 Pb    0.00224   -0.00121    0.11959
 21 Pb    0.01262    0.05986   -0.11975
 22 Pb    0.00931    0.00795   -0.05338
 23 Pb   -0.04916    0.02862    0.16600
 24 Pb   -0.01101   -0.00286    0.08252
 25 Pb   -0.00987    0.00581   -0.09087
 26 Pb   -0.00175    0.00096    0.01078
 27 Pb    0.00419    0.01177   -0.00674
 28 Pb   -0.02229    0.01283    0.09789
 29 Pb   -0.02947    0.00469   -0.06417
 30 Pb    0.02219   -0.00321   -0.04671
 31 Pb    0.04795   -0.02797   -0.00992
 32 Pb   -0.00385   -0.03009    0.09424
 33 Pb    0.01007   -0.00451   -0.13286
 34 Pb   -0.01294    0.01990   -0.03400
 35 Pb    0.03228    0.01666    0.16193
 36 O    -0.01331    0.00692   -0.05690

BFGS:    2 23:07:13   -12840.109478        0.1755
System changes: positions 

Initializing position-dependent things.

Density initialized from wave functions
                                                    
                                                    
                                                    
                                                    
                                                    
                                                    
           Pb       Pb O     Pb                     
                                                    
             Pb       Pb       Pb                   
             Pb      Pb       Pb                    
                Pb      Pb       Pb                 
               Pb       Pb      Pb                  
                                                    
                PPb      PPb     PPb                
                                                    
                   Pb      Pb       Pb              
                                                    
           Pb       PPb     PPb       Pb            
                                                    
              Pb      Pb       Pb                   
                                                    
                Pb      Pb       Pb                 
                                                    
                                                    
                                                    
                                                    

Positions:
   0 Pb     0.000000    0.000000   10.000000    ( 0.0000,  0.0000,  0.0000)
   1 Pb     1.778836    1.027012   12.904828    ( 0.0000,  0.0000,  0.0000)
   2 Pb    -0.021754    2.043984   15.896520    ( 0.0000,  0.0000,  0.0000)
   3 Pb     0.003858   -0.002068   18.728474    ( 0.0000,  0.0000,  0.0000)
   4 Pb    -1.778836    3.081035   10.000000    ( 0.0000,  0.0000,  0.0000)
   5 Pb    -0.000000    4.108047   12.904828    ( 0.0000,  0.0000,  0.0000)
   6 Pb    -1.803487    5.119906   15.904890    ( 0.0000,  0.0000,  0.0000)
   7 Pb    -1.793789    3.075134   18.756786    ( 0.0000,  0.0000,  0.0000)
   8 Pb    -3.557673    6.162070   10.000000    ( 0.0000,  0.0000,  0.0000)
   9 Pb    -1.778836    7.189082   12.904828    ( 0.0000,  0.0000,  0.0000)
  10 Pb    -3.554509    8.214197   15.948995    ( 0.0000,  0.0000,  0.0000)
  11 Pb    -3.553631    6.162737   18.746346    ( 0.0000,  0.0000,  0.0000)
  12 Pb     3.557673    0.000000   10.000000    ( 0.0000,  0.0000,  0.0000)
  13 Pb     5.336509    1.027012   12.904828    ( 0.0000,  0.0000,  0.0000)
  14 Pb     3.577943    2.033677   15.899105    ( 0.0000,  0.0000,  0.0000)
  15 Pb     3.559028   -0.003754   18.746383    ( 0.0000,  0.0000,  0.0000)
  16 Pb     1.778836    3.081035   10.000000    ( 0.0000,  0.0000,  0.0000)
  17 Pb     3.557673    4.108047   12.904828    ( 0.0000,  0.0000,  0.0000)
  18 Pb     1.784132    5.131886   15.886831    ( 0.0000,  0.0000,  0.0000)
  19 Pb     1.780542    3.027721   18.843439    ( 0.0000,  0.0000,  0.0000)
  20 Pb    -0.000000    6.162070   10.000000    ( 0.0000,  0.0000,  0.0000)
  21 Pb     1.778836    7.189082   12.904828    ( 0.0000,  0.0000,  0.0000)
  22 Pb     0.000831    8.244942   15.904986    ( 0.0000,  0.0000,  0.0000)
  23 Pb    -0.052030    6.192154   18.849942    ( 0.0000,  0.0000,  0.0000)
  24 Pb     7.115346    0.000000   10.000000    ( 0.0000,  0.0000,  0.0000)
  25 Pb     8.894182    1.027012   12.904828    ( 0.0000,  0.0000,  0.0000)
  26 Pb     7.119613    2.051551   15.941487    ( 0.0000,  0.0000,  0.0000)
  27 Pb     7.112908    0.016155   18.756775    ( 0.0000,  0.0000,  0.0000)
  28 Pb     5.336509    3.081035   10.000000    ( 0.0000,  0.0000,  0.0000)
  29 Pb     7.115346    4.108047   12.904828    ( 0.0000,  0.0000,  0.0000)
  30 Pb     5.364401    5.127625   15.898905    ( 0.0000,  0.0000,  0.0000)
  31 Pb     5.354000    3.070842   18.752826    ( 0.0000,  0.0000,  0.0000)
  32 Pb     3.557673    6.162070   10.000000    ( 0.0000,  0.0000,  0.0000)
  33 Pb     5.336509    7.189082   12.904828    ( 0.0000,  0.0000,  0.0000)
  34 Pb     3.555480    8.240029   15.896436    ( 0.0000,  0.0000,  0.0000)
  35 Pb     3.606395    6.188248   18.842803    ( 0.0000,  0.0000,  0.0000)
  36 O      1.774335    5.138881   19.779652    ( 0.0000,  0.0000,  0.0000)

Unit cell:
           periodic     x           y           z      points  spacing
  1. axis:    yes   10.673019    0.000000    0.000000    52     0.1778
  2. axis:    yes   -5.336509    9.243105    0.000000    52     0.1778
  3. axis:    no     0.000000    0.000000   28.714483   160     0.1795

  Lengths:  10.673019  10.673019  28.714483
  Angles:   90.000000  90.000000 120.000000

Effective grid spacing dv^(1/3) = 0.1871

     iter     time        total  log10-change:
                         energy  eigst   dens
iter:   1 23:08:21 -12840.187635  -1.81
iter:   2 23:09:01 -12840.156655  -2.72  -2.50
iter:   3 23:09:42 -12840.130250c -3.43  -2.61
iter:   4 23:10:22 -12840.123879c -3.57  -3.00
iter:   5 23:11:03 -12840.123665c -4.09  -3.26
iter:   6 23:11:43 -12840.123648c -4.38  -3.39
iter:   7 23:12:24 -12840.123697c -4.76  -3.50
iter:   8 23:13:05 -12840.124064c -4.78  -3.65
iter:   9 23:13:45 -12840.124065c -5.45  -3.79
iter:  10 23:14:26 -12840.124049c -5.81  -3.87
iter:  11 23:15:06 -12840.124033c -6.11  -3.96
iter:  12 23:15:47 -12840.124052c -5.98  -4.07c
iter:  13 23:16:27 -12840.124061c -6.29  -4.32c
iter:  14 23:17:08 -12840.124061c -6.56  -4.39c
iter:  15 23:17:48 -12840.124053c -6.84  -4.53c
iter:  16 23:18:29 -12840.124053c -7.20  -4.68c
iter:  17 23:19:09 -12840.124052c -7.76c -4.77c

Converged after 17 iterations.

Dipole moment: (-8.716124, -15.317892, -0.195579) |e|*Ang

Energy contributions relative to reference atoms: (reference = -20423921.533412)

Kinetic:       +1465.915514
Potential:     -1410.823347
External:        +0.000000
XC:            -12891.004255
Entropy (-ST):   -0.588229
Local:           -3.917850
--------------------------
Free energy:   -12840.418167
Extrapolated:  -12840.124052

Showing only first 2 kpts
 Kpt  Band  Eigenvalues  Occupancy
  0   253     -4.17130    1.37688
  0   254     -4.10836    1.08151
  0   255     -4.03920    0.74186
  0   256     -3.99216    0.53843

  1   253     -4.60161    1.98783
  1   254     -4.55975    1.98156
  1   255     -4.45978    1.95068
  1   256     -4.44199    1.94136


Fermi level: -4.09202

No gap

Forces in eV/Ang:
  0 Pb    0.00626   -0.00355    0.13818
  1 Pb    0.00896   -0.01151   -0.13406
  2 Pb    0.01799    0.03713    0.01947
  3 Pb   -0.00181    0.00214   -0.00554
  4 Pb   -0.00585    0.01013    0.07742
  5 Pb   -0.03938   -0.03755   -0.12423
  6 Pb    0.07218    0.02197    0.00271
  7 Pb    0.02041   -0.00044   -0.00692
  8 Pb   -0.00457   -0.01833    0.10593
  9 Pb   -0.03709    0.02144   -0.13743
 10 Pb   -0.01156    0.00673   -0.00047
 11 Pb   -0.00804   -0.01692   -0.01224
 12 Pb    0.01357    0.01312    0.10594
 13 Pb   -0.01682    0.02358   -0.08177
 14 Pb   -0.03569    0.01863    0.00390
 15 Pb    0.01053    0.01583   -0.01236
 16 Pb    0.02482    0.01749    0.09714
 17 Pb    0.04171   -0.02417   -0.10274
 18 Pb    0.01407   -0.00800    0.05532
 19 Pb   -0.01185    0.05535    0.06817
 20 Pb    0.00218   -0.00117    0.12099
 21 Pb    0.01271    0.05284   -0.12437
 22 Pb    0.01689   -0.07321    0.00272
 23 Pb    0.05015   -0.02850    0.06666
 24 Pb   -0.01176   -0.00004    0.07741
 25 Pb   -0.01287    0.00754   -0.10306
 26 Pb    0.00394   -0.00231   -0.00772
 27 Pb    0.01081   -0.01743   -0.00699
 28 Pb   -0.01995    0.01148    0.09564
 29 Pb   -0.02878    0.00276   -0.08192
 30 Pb   -0.03417    0.02137    0.00398
 31 Pb    0.03235   -0.01890   -0.00986
 32 Pb   -0.00271   -0.03021    0.09716
 33 Pb    0.01444   -0.00202   -0.13416
 34 Pb   -0.02307   -0.03411    0.01963
 35 Pb   -0.05817   -0.02023    0.06974
 36 O    -0.01313    0.00729   -0.08401

BFGS:    3 23:19:25   -12840.124052        0.0930
System changes: positions 

Initializing position-dependent things.

Density initialized from wave functions
                                                    
                                                    
                                                    
                                                    
                                                    
                                                    
           Pb       Pb O     Pb                     
                                                    
             Pb       Pb       Pb                   
             Pb      Pb       Pb                    
                Pb      Pb       Pb                 
               Pb       Pb      Pb                  
                                                    
                PPb      PPb     PPb                
                                                    
                   Pb      Pb       Pb              
                                                    
           Pb       PPb     PPb       Pb            
                                                    
              Pb      Pb       Pb                   
                                                    
                Pb      Pb       Pb                 
                                                    
                                                    
                                                    
                                                    

Positions:
   0 Pb     0.000000    0.000000   10.000000    ( 0.0000,  0.0000,  0.0000)
   1 Pb     1.778836    1.027012   12.904828    ( 0.0000,  0.0000,  0.0000)
   2 Pb    -0.021309    2.044621   15.897048    ( 0.0000,  0.0000,  0.0000)
   3 Pb     0.003799   -0.002020   18.728451    ( 0.0000,  0.0000,  0.0000)
   4 Pb    -1.778836    3.081035   10.000000    ( 0.0000,  0.0000,  0.0000)
   5 Pb    -0.000000    4.108047   12.904828    ( 0.0000,  0.0000,  0.0000)
   6 Pb    -1.802280    5.120342   15.905204    ( 0.0000,  0.0000,  0.0000)
   7 Pb    -1.793387    3.075193   18.756721    ( 0.0000,  0.0000,  0.0000)
   8 Pb    -3.557673    6.162070   10.000000    ( 0.0000,  0.0000,  0.0000)
   9 Pb    -1.778836    7.189082   12.904828    ( 0.0000,  0.0000,  0.0000)
  10 Pb    -3.554666    8.214289   15.948769    ( 0.0000,  0.0000,  0.0000)
  11 Pb    -3.553778    6.162479   18.746303    ( 0.0000,  0.0000,  0.0000)
  12 Pb     3.557673    0.000000   10.000000    ( 0.0000,  0.0000,  0.0000)
  13 Pb     5.336509    1.027012   12.904828    ( 0.0000,  0.0000,  0.0000)
  14 Pb     3.577206    2.034082   15.899443    ( 0.0000,  0.0000,  0.0000)
  15 Pb     3.559178   -0.003493   18.746338    ( 0.0000,  0.0000,  0.0000)
  16 Pb     1.778836    3.081035   10.000000    ( 0.0000,  0.0000,  0.0000)
  17 Pb     3.557673    4.108047   12.904828    ( 0.0000,  0.0000,  0.0000)
  18 Pb     1.784287    5.131799   15.888034    ( 0.0000,  0.0000,  0.0000)
  19 Pb     1.780377    3.028992   18.843611    ( 0.0000,  0.0000,  0.0000)
  20 Pb    -0.000000    6.162070   10.000000    ( 0.0000,  0.0000,  0.0000)
  21 Pb     1.778836    7.189082   12.904828    ( 0.0000,  0.0000,  0.0000)
  22 Pb     0.001054    8.243684   15.905299    ( 0.0000,  0.0000,  0.0000)
  23 Pb    -0.050839    6.191472   18.850000    ( 0.0000,  0.0000,  0.0000)
  24 Pb     7.115346    0.000000   10.000000    ( 0.0000,  0.0000,  0.0000)
  25 Pb     8.894182    1.027012   12.904828    ( 0.0000,  0.0000,  0.0000)
  26 Pb     7.119689    2.051506   15.941282    ( 0.0000,  0.0000,  0.0000)
  27 Pb     7.113061    0.015775   18.756709    ( 0.0000,  0.0000,  0.0000)
  28 Pb     5.336509    3.081035   10.000000    ( 0.0000,  0.0000,  0.0000)
  29 Pb     7.115346    4.108047   12.904828    ( 0.0000,  0.0000,  0.0000)
  30 Pb     5.363678    5.128058   15.899246    ( 0.0000,  0.0000,  0.0000)
  31 Pb     5.354286    3.070674   18.752725    ( 0.0000,  0.0000,  0.0000)
  32 Pb     3.557673    6.162070   10.000000    ( 0.0000,  0.0000,  0.0000)
  33 Pb     5.336509    7.189082   12.904828    ( 0.0000,  0.0000,  0.0000)
  34 Pb     3.555152    8.239325   15.896968    ( 0.0000,  0.0000,  0.0000)
  35 Pb     3.605137    6.187708   18.843001    ( 0.0000,  0.0000,  0.0000)
  36 O      1.774211    5.138957   19.778561    ( 0.0000,  0.0000,  0.0000)

Unit cell:
           periodic     x           y           z      points  spacing
  1. axis:    yes   10.673019    0.000000    0.000000    52     0.1778
  2. axis:    yes   -5.336509    9.243105    0.000000    52     0.1778
  3. axis:    no     0.000000    0.000000   28.714483   160     0.1795

  Lengths:  10.673019  10.673019  28.714483
  Angles:   90.000000  90.000000 120.000000

Effective grid spacing dv^(1/3) = 0.1871

     iter     time        total  log10-change:
                         energy  eigst   dens
iter:   1 23:20:33 -12840.124915  -4.53
iter:   2 23:21:14 -12840.124859  -5.48  -3.99
iter:   3 23:21:54 -12840.124853c -6.05  -4.18c
iter:   4 23:22:35 -12840.124823c -6.00  -4.21c
iter:   5 23:23:16 -12840.124823c -6.83  -4.59c
iter:   6 23:23:56 -12840.124817c -6.72  -4.59c
iter:   7 23:24:37 -12840.124820c -6.78  -4.85c
iter:   8 23:25:17 -12840.124821c -7.62c -4.90c

Converged after 8 iterations.

Dipole moment: (-8.682823, -15.342955, -0.194169) |e|*Ang

Energy contributions relative to reference atoms: (reference = -20423921.533412)

Kinetic:       +1466.107035
Potential:     -1410.982761
External:        +0.000000
XC:            -12891.028862
Entropy (-ST):   -0.588259
Local:           -3.926104
--------------------------
Free energy:   -12840.418951
Extrapolated:  -12840.124821

Showing only first 2 kpts
 Kpt  Band  Eigenvalues  Occupancy
  0   253     -4.17048    1.37584
  0   254     -4.10773    1.08129
  0   255     -4.03889    0.74319
  0   256     -3.99168    0.53886

  1   253     -4.60127    1.98786
  1   254     -4.55915    1.98156
  1   255     -4.45908    1.95062
  1   256     -4.44119    1.94124


Fermi level: -4.09143

No gap

Forces in eV/Ang:
  0 Pb    0.00661   -0.00375    0.13773
  1 Pb    0.00883   -0.01140   -0.13428
  2 Pb    0.01651    0.03555    0.01871
  3 Pb   -0.00242    0.00260   -0.00759
  4 Pb   -0.00502    0.01047    0.07826
  5 Pb   -0.03933   -0.03776   -0.12639
  6 Pb    0.06751    0.01950    0.00262
  7 Pb    0.02106    0.00020   -0.00823
  8 Pb   -0.00479   -0.01787    0.10545
  9 Pb   -0.03693    0.02136   -0.13784
 10 Pb   -0.01109    0.00643    0.00141
 11 Pb   -0.00677   -0.01631   -0.01478
 12 Pb    0.01306    0.01309    0.10546
 13 Pb   -0.01589    0.02403   -0.08152
 14 Pb   -0.03435    0.01748    0.00398
 15 Pb    0.01053    0.01446   -0.01488
 16 Pb    0.02481    0.01785    0.09789
 17 Pb    0.04130   -0.02393   -0.10490
 18 Pb    0.01428   -0.00811    0.05085
 19 Pb   -0.01145    0.03985    0.05987
 20 Pb    0.00242   -0.00132    0.12180
 21 Pb    0.01293    0.05292   -0.12650
 22 Pb    0.01673   -0.06797    0.00259
 23 Pb    0.03798   -0.02140    0.05877
 24 Pb   -0.01164   -0.00093    0.07825
 25 Pb   -0.01355    0.00791   -0.10280
 26 Pb    0.00370   -0.00218   -0.00829
 27 Pb    0.01058   -0.01841   -0.00823
 28 Pb   -0.02064    0.01188    0.09646
 29 Pb   -0.02872    0.00173   -0.08166
 30 Pb   -0.03247    0.02078    0.00399
 31 Pb    0.02952   -0.01727   -0.01122
 32 Pb   -0.00303   -0.03039    0.09791
 33 Pb    0.01428   -0.00195   -0.13436
 34 Pb   -0.02248   -0.03202    0.01876
 35 Pb   -0.04404   -0.01253    0.06132
 36 O    -0.01469    0.00733   -0.07849

BFGS:    4 23:25:33   -12840.124821        0.0802
System changes: positions 

Initializing position-dependent things.

Density initialized from wave functions
                                                    
                                                    
                                                    
                                                    
                                                    
                                                    
           Pb       Pb O     Pb                     
                                                    
             Pb       Pb       Pb                   
             Pb      Pb       Pb                    
                Pb      Pb       Pb                 
               Pb       Pb      Pb                  
                                                    
                PPb      PPb     PPb                
                                                    
                   Pb      Pb       Pb              
                                                    
           Pb       PPb      Pb       Pb            
                                                    
              Pb      Pb       Pb                   
                                                    
                Pb      Pb       Pb                 
                                                    
                                                    
                                                    
                                                    

Positions:
   0 Pb     0.000000    0.000000   10.000000    ( 0.0000,  0.0000,  0.0000)
   1 Pb     1.778836    1.027012   12.904828    ( 0.0000,  0.0000,  0.0000)
   2 Pb    -0.018420    2.049746   15.900441    ( 0.0000,  0.0000,  0.0000)
   3 Pb     0.003369   -0.001622   18.727674    ( 0.0000,  0.0000,  0.0000)
   4 Pb    -1.778836    3.081035   10.000000    ( 0.0000,  0.0000,  0.0000)
   5 Pb    -0.000000    4.108047   12.904828    ( 0.0000,  0.0000,  0.0000)
   6 Pb    -1.792611    5.123417   15.906535    ( 0.0000,  0.0000,  0.0000)
   7 Pb    -1.790188    3.075449   18.755768    ( 0.0000,  0.0000,  0.0000)
   8 Pb    -3.557673    6.162070   10.000000    ( 0.0000,  0.0000,  0.0000)
   9 Pb    -1.778836    7.189082   12.904828    ( 0.0000,  0.0000,  0.0000)
  10 Pb    -3.556120    8.215135   15.948135    ( 0.0000,  0.0000,  0.0000)
  11 Pb    -3.554818    6.160246   18.744851    ( 0.0000,  0.0000,  0.0000)
  12 Pb     3.557673    0.000000   10.000000    ( 0.0000,  0.0000,  0.0000)
  13 Pb     5.336509    1.027012   12.904828    ( 0.0000,  0.0000,  0.0000)
  14 Pb     3.571800    2.036911   15.900975    ( 0.0000,  0.0000,  0.0000)
  15 Pb     3.560571   -0.001421   18.744870    ( 0.0000,  0.0000,  0.0000)
  16 Pb     1.778836    3.081035   10.000000    ( 0.0000,  0.0000,  0.0000)
  17 Pb     3.557673    4.108047   12.904828    ( 0.0000,  0.0000,  0.0000)
  18 Pb     1.786017    5.130822   15.896334    ( 0.0000,  0.0000,  0.0000)
  19 Pb     1.778851    3.036265   18.848779    ( 0.0000,  0.0000,  0.0000)
  20 Pb    -0.000000    6.162070   10.000000    ( 0.0000,  0.0000,  0.0000)
  21 Pb     1.778836    7.189082   12.904828    ( 0.0000,  0.0000,  0.0000)
  22 Pb     0.003207    8.233808   15.906623    ( 0.0000,  0.0000,  0.0000)
  23 Pb    -0.043806    6.187476   18.854631    ( 0.0000,  0.0000,  0.0000)
  24 Pb     7.115346    0.000000   10.000000    ( 0.0000,  0.0000,  0.0000)
  25 Pb     8.894182    1.027012   12.904828    ( 0.0000,  0.0000,  0.0000)
  26 Pb     7.120257    2.051173   15.939855    ( 0.0000,  0.0000,  0.0000)
  27 Pb     7.114471    0.012861   18.755755    ( 0.0000,  0.0000,  0.0000)
  28 Pb     5.336509    3.081035   10.000000    ( 0.0000,  0.0000,  0.0000)
  29 Pb     7.115346    4.108047   12.904828    ( 0.0000,  0.0000,  0.0000)
  30 Pb     5.358499    5.131297   15.900788    ( 0.0000,  0.0000,  0.0000)
  31 Pb     5.357626    3.068719   18.751392    ( 0.0000,  0.0000,  0.0000)
  32 Pb     3.557673    6.162070   10.000000    ( 0.0000,  0.0000,  0.0000)
  33 Pb     5.336509    7.189082   12.904828    ( 0.0000,  0.0000,  0.0000)
  34 Pb     3.552166    8.234264   15.900373    ( 0.0000,  0.0000,  0.0000)
  35 Pb     3.597520    6.185025   18.848377    ( 0.0000,  0.0000,  0.0000)
  36 O      1.772497    5.139831   19.768441    ( 0.0000,  0.0000,  0.0000)

Unit cell:
           periodic     x           y           z      points  spacing
  1. axis:    yes   10.673019    0.000000    0.000000    52     0.1778
  2. axis:    yes   -5.336509    9.243105    0.000000    52     0.1778
  3. axis:    no     0.000000    0.000000   28.714483   160     0.1795

  Lengths:  10.673019  10.673019  28.714483
  Angles:   90.000000  90.000000 120.000000

Effective grid spacing dv^(1/3) = 0.1871

     iter     time        total  log10-change:
                         energy  eigst   dens
iter:   1 23:26:41 -12840.132496  -2.78
iter:   2 23:27:22 -12840.130752  -3.74  -3.17
iter:   3 23:28:03 -12840.129366c -4.35  -3.20
iter:   4 23:28:43 -12840.128324c -4.36  -3.43
iter:   5 23:29:24 -12840.128156c -5.10  -3.69
iter:   6 23:30:05 -12840.128063c -4.84  -3.78
iter:   7 23:30:45 -12840.128103c -5.46  -3.94
iter:   8 23:31:26 -12840.128105c -6.02  -4.05c
iter:   9 23:32:07 -12840.128122c -6.07  -4.19c
iter:  10 23:32:47 -12840.128117c -6.73  -4.37c
iter:  11 23:33:28 -12840.128119c -6.94  -4.43c
iter:  12 23:34:09 -12840.128112c -6.85  -4.52c
iter:  13 23:34:49 -12840.128116c -7.41c -4.70c

Converged after 13 iterations.

Dipole moment: (-8.434170, -15.533325, -0.182466) |e|*Ang

Energy contributions relative to reference atoms: (reference = -20423921.533412)

Kinetic:       +1466.903107
Potential:     -1411.644461
External:        +0.000000
XC:            -12891.164932
Entropy (-ST):   -0.588345
Local:           -3.927658
--------------------------
Free energy:   -12840.422288
Extrapolated:  -12840.128116

Showing only first 2 kpts
 Kpt  Band  Eigenvalues  Occupancy
  0   253     -4.16282    1.36858
  0   254     -4.10155    1.08022
  0   255     -4.03416    0.74892
  0   256     -3.98675    0.54293

  1   253     -4.59639    1.98799
  1   254     -4.55281    1.98149
  1   255     -4.45228    1.95022
  1   256     -4.43368    1.94035


Fermi level: -4.08547

No gap

Forces in eV/Ang:
  0 Pb    0.00622   -0.00353    0.14104
  1 Pb    0.00978   -0.00997   -0.13542
  2 Pb    0.00949    0.01558    0.01549
  3 Pb    0.00174   -0.00003   -0.01387
  4 Pb   -0.00282    0.01122    0.08305
  5 Pb   -0.03843   -0.03721   -0.13262
  6 Pb    0.02706    0.00554    0.00251
  7 Pb    0.01576    0.00364   -0.00885
  8 Pb   -0.00543   -0.01842    0.10856
  9 Pb   -0.03558    0.02059   -0.13895
 10 Pb   -0.00505    0.00288    0.00597
 11 Pb   -0.00316   -0.00745   -0.02284
 12 Pb    0.01323    0.01392    0.10858
 13 Pb   -0.01571    0.02451   -0.07867
 14 Pb   -0.01787    0.00074    0.00846
 15 Pb    0.00478    0.00645   -0.02282
 16 Pb    0.02501    0.02080    0.10041
 17 Pb    0.04120   -0.02385   -0.11041
 18 Pb    0.01548   -0.00873    0.04402
 19 Pb   -0.00732   -0.06719    0.01578
 20 Pb    0.00403   -0.00229    0.12458
 21 Pb    0.01293    0.05191   -0.13260
 22 Pb    0.00875   -0.02619    0.00239
 23 Pb   -0.05845    0.03428    0.02134
 24 Pb   -0.01117   -0.00319    0.08307
 25 Pb   -0.01456    0.00845   -0.10269
 26 Pb   -0.00087    0.00052   -0.00631
 27 Pb    0.00507   -0.01568   -0.00881
 28 Pb   -0.02227    0.01282    0.10191
 29 Pb   -0.02907    0.00132   -0.07873
 30 Pb   -0.00962    0.01505    0.00855
 31 Pb    0.02210   -0.01288   -0.01621
 32 Pb   -0.00549   -0.03208    0.10043
 33 Pb    0.01349   -0.00348   -0.13543
 34 Pb   -0.00880   -0.01610    0.01557
 35 Pb    0.05393    0.03948    0.01604
 36 O    -0.00842    0.00243    0.04709

BFGS:    5 23:35:05   -12840.128116        0.0710
System changes: positions 

Initializing position-dependent things.

Density initialized from wave functions
                                                    
                                                    
                                                    
                                                    
                                                    
                                                    
           Pb       Pb O     Pb                     
                                                    
             Pb       Pb       Pb                   
             Pb      Pb       Pb                    
                Pb      Pb       Pb                 
               Pb       Pb      Pb                  
                                                    
                PPb      PPb     PPb                
                                                    
                   Pb      Pb       Pb              
                                                    
           Pb       PPb     PPb       Pb            
                                                    
              Pb      Pb       Pb                   
                                                    
                Pb      Pb       Pb                 
                                                    
                                                    
                                                    
                                                    

Positions:
   0 Pb     0.000000    0.000000   10.000000    ( 0.0000,  0.0000,  0.0000)
   1 Pb     1.778836    1.027012   12.904828    ( 0.0000,  0.0000,  0.0000)
   2 Pb    -0.018976    2.050094   15.899666    ( 0.0000,  0.0000,  0.0000)
   3 Pb     0.003544   -0.001676   18.727040    ( 0.0000,  0.0000,  0.0000)
   4 Pb    -1.778836    3.081035   10.000000    ( 0.0000,  0.0000,  0.0000)
   5 Pb    -0.000000    4.108047   12.904828    ( 0.0000,  0.0000,  0.0000)
   6 Pb    -1.791797    5.123255   15.905109    ( 0.0000,  0.0000,  0.0000)
   7 Pb    -1.790151    3.075139   18.755322    ( 0.0000,  0.0000,  0.0000)
   8 Pb    -3.557673    6.162070   10.000000    ( 0.0000,  0.0000,  0.0000)
   9 Pb    -1.778836    7.189082   12.904828    ( 0.0000,  0.0000,  0.0000)
  10 Pb    -3.556468    8.215332   15.949414    ( 0.0000,  0.0000,  0.0000)
  11 Pb    -3.554847    6.159903   18.743550    ( 0.0000,  0.0000,  0.0000)
  12 Pb     3.557673    0.000000   10.000000    ( 0.0000,  0.0000,  0.0000)
  13 Pb     5.336509    1.027012   12.904828    ( 0.0000,  0.0000,  0.0000)
  14 Pb     3.572093    2.036506   15.899620    ( 0.0000,  0.0000,  0.0000)
  15 Pb     3.560845   -0.001212   18.743569    ( 0.0000,  0.0000,  0.0000)
  16 Pb     1.778836    3.081035   10.000000    ( 0.0000,  0.0000,  0.0000)
  17 Pb     3.557673    4.108047   12.904828    ( 0.0000,  0.0000,  0.0000)
  18 Pb     1.786767    5.130389   15.895769    ( 0.0000,  0.0000,  0.0000)
  19 Pb     1.778474    3.033709   18.854664    ( 0.0000,  0.0000,  0.0000)
  20 Pb    -0.000000    6.162070   10.000000    ( 0.0000,  0.0000,  0.0000)
  21 Pb     1.778836    7.189082   12.904828    ( 0.0000,  0.0000,  0.0000)
  22 Pb     0.003753    8.233187   15.905200    ( 0.0000,  0.0000,  0.0000)
  23 Pb    -0.046183    6.188869   18.861005    ( 0.0000,  0.0000,  0.0000)
  24 Pb     7.115346    0.000000   10.000000    ( 0.0000,  0.0000,  0.0000)
  25 Pb     8.894182    1.027012   12.904828    ( 0.0000,  0.0000,  0.0000)
  26 Pb     7.120209    2.051200   15.940144    ( 0.0000,  0.0000,  0.0000)
  27 Pb     7.114765    0.012993   18.755307    ( 0.0000,  0.0000,  0.0000)
  28 Pb     5.336509    3.081035   10.000000    ( 0.0000,  0.0000,  0.0000)
  29 Pb     7.115346    4.108047   12.904828    ( 0.0000,  0.0000,  0.0000)
  30 Pb     5.358998    5.131237   15.899426    ( 0.0000,  0.0000,  0.0000)
  31 Pb     5.359536    3.067605   18.750740    ( 0.0000,  0.0000,  0.0000)
  32 Pb     3.557673    6.162070   10.000000    ( 0.0000,  0.0000,  0.0000)
  33 Pb     5.336509    7.189082   12.904828    ( 0.0000,  0.0000,  0.0000)
  34 Pb     3.551587    8.234575   15.899598    ( 0.0000,  0.0000,  0.0000)
  35 Pb     3.599529    6.186612   18.854268    ( 0.0000,  0.0000,  0.0000)
  36 O      1.771752    5.140165   19.766917    ( 0.0000,  0.0000,  0.0000)

Unit cell:
           periodic     x           y           z      points  spacing
  1. axis:    yes   10.673019    0.000000    0.000000    52     0.1778
  2. axis:    yes   -5.336509    9.243105    0.000000    52     0.1778
  3. axis:    no     0.000000    0.000000   28.714483   160     0.1795

  Lengths:  10.673019  10.673019  28.714483
  Angles:   90.000000  90.000000 120.000000

Effective grid spacing dv^(1/3) = 0.1871

     iter     time        total  log10-change:
                         energy  eigst   dens
iter:   1 23:36:13 -12840.129397  -3.55
iter:   2 23:36:54 -12840.129158  -4.49  -3.59
iter:   3 23:37:34 -12840.129048c -5.20  -3.69
iter:   4 23:38:14 -12840.129006c -5.54  -4.00c
iter:   5 23:38:55 -12840.129024c -5.90  -4.19c
iter:   6 23:39:35 -12840.129028c -6.34  -4.36c
iter:   7 23:40:16 -12840.129022c -6.52  -4.44c
iter:   8 23:40:56 -12840.129029c -6.60  -4.61c
iter:   9 23:41:37 -12840.129033c -7.32  -4.68c
iter:  10 23:42:17 -12840.129030c -7.56c -4.76c

Converged after 10 iterations.

Dipole moment: (-8.403477, -15.555454, -0.179091) |e|*Ang

Energy contributions relative to reference atoms: (reference = -20423921.533412)

Kinetic:       +1466.658531
Potential:     -1411.428647
External:        +0.000000
XC:            -12891.139470
Entropy (-ST):   -0.588089
Local:           -3.925398
--------------------------
Free energy:   -12840.423074
Extrapolated:  -12840.129030

Showing only first 2 kpts
 Kpt  Band  Eigenvalues  Occupancy
  0   253     -4.16122    1.36976
  0   254     -4.09966    1.08017
  0   255     -4.03099    0.74288
  0   256     -3.98513    0.54393

  1   253     -4.59330    1.98784
  1   254     -4.55025    1.98137
  1   255     -4.45068    1.95035
  1   256     -4.43212    1.94053


Fermi level: -4.08359

No gap

Forces in eV/Ang:
  0 Pb    0.00562   -0.00321    0.13930
  1 Pb    0.00880   -0.01210   -0.13368
  2 Pb    0.01665    0.01924    0.02160
  3 Pb   -0.00254    0.00240   -0.01121
  4 Pb   -0.00458    0.01070    0.07985
  5 Pb   -0.03514   -0.03651   -0.13047
  6 Pb    0.03517    0.00875    0.01235
  7 Pb    0.01878    0.00442   -0.00707
  8 Pb   -0.00564   -0.01966    0.10695
  9 Pb   -0.03778    0.02186   -0.13802
 10 Pb   -0.00479    0.00272   -0.00542
 11 Pb   -0.00155   -0.00999   -0.01923
 12 Pb    0.01419    0.01469    0.10695
 13 Pb   -0.01538    0.02424   -0.08022
 14 Pb   -0.02551    0.00784    0.01615
 15 Pb    0.00791    0.00632   -0.01916
 16 Pb    0.02563    0.01979    0.09934
 17 Pb    0.03768   -0.02182   -0.10906
 18 Pb    0.01547   -0.00883    0.04647
 19 Pb    0.00016   -0.05864   -0.00186
 20 Pb    0.00322   -0.00182    0.12328
 21 Pb    0.01398    0.04871   -0.13049
 22 Pb    0.00993   -0.03473    0.01219
 23 Pb   -0.05935    0.03480    0.00698
 24 Pb   -0.01158   -0.00142    0.07986
 25 Pb   -0.01414    0.00820   -0.10194
 26 Pb    0.00077   -0.00044   -0.01276
 27 Pb    0.00590   -0.01866   -0.00701
 28 Pb   -0.02090    0.01206    0.09900
 29 Pb   -0.02866    0.00117   -0.08035
 30 Pb   -0.01960    0.01814    0.01627
 31 Pb    0.01469   -0.00865   -0.01441
 32 Pb   -0.00428   -0.03208    0.09936
 33 Pb    0.01484   -0.00157   -0.13375
 34 Pb   -0.00827   -0.02406    0.02170
 35 Pb    0.04943    0.02861   -0.00122
 36 O    -0.00826    0.00311    0.04368

BFGS:    6 23:42:33   -12840.129030        0.0691
System changes: positions 

Initializing position-dependent things.

Density initialized from wave functions
                                                    
                                                    
                                                    
                                                    
                                                    
                                                    
           Pb       Pb O     Pb                     
                                                    
             Pb       Pb       Pb                   
                     Pb       Pb                    
                Pb      Pb       Pb                 
               Pb       Pb      Pb                  
                                                    
                PPb      PPb     PPb                
                                                    
                   Pb      Pb       Pb              
                                                    
           Pb       PPb      Pb       Pb            
                                                    
              Pb      Pb       Pb                   
                                                    
                Pb      Pb       Pb                 
                                                    
                                                    
                                                    
                                                    

Positions:
   0 Pb     0.000000    0.000000   10.000000    ( 0.0000,  0.0000,  0.0000)
   1 Pb     1.778836    1.027012   12.904828    ( 0.0000,  0.0000,  0.0000)
   2 Pb    -0.018521    2.052334   15.900084    ( 0.0000,  0.0000,  0.0000)
   3 Pb     0.003598   -0.001585   18.725743    ( 0.0000,  0.0000,  0.0000)
   4 Pb    -1.778836    3.081035   10.000000    ( 0.0000,  0.0000,  0.0000)
   5 Pb    -0.000000    4.108047   12.904828    ( 0.0000,  0.0000,  0.0000)
   6 Pb    -1.787371    5.124060   15.903926    ( 0.0000,  0.0000,  0.0000)
   7 Pb    -1.788815    3.074912   18.754332    ( 0.0000,  0.0000,  0.0000)
   8 Pb    -3.557673    6.162070   10.000000    ( 0.0000,  0.0000,  0.0000)
   9 Pb    -1.778836    7.189082   12.904828    ( 0.0000,  0.0000,  0.0000)
  10 Pb    -3.557409    8.215872   15.950742    ( 0.0000,  0.0000,  0.0000)
  11 Pb    -3.555190    6.158631   18.741010    ( 0.0000,  0.0000,  0.0000)
  12 Pb     3.557673    0.000000   10.000000    ( 0.0000,  0.0000,  0.0000)
  13 Pb     5.336509    1.027012   12.904828    ( 0.0000,  0.0000,  0.0000)
  14 Pb     3.570444    2.036901   15.898674    ( 0.0000,  0.0000,  0.0000)
  15 Pb     3.561761   -0.000249   18.741026    ( 0.0000,  0.0000,  0.0000)
  16 Pb     1.778836    3.081035   10.000000    ( 0.0000,  0.0000,  0.0000)
  17 Pb     3.557673    4.108047   12.904828    ( 0.0000,  0.0000,  0.0000)
  18 Pb     1.788581    5.129349   15.898358    ( 0.0000,  0.0000,  0.0000)
  19 Pb     1.777621    3.030722   18.863593    ( 0.0000,  0.0000,  0.0000)
  20 Pb    -0.000000    6.162070   10.000000    ( 0.0000,  0.0000,  0.0000)
  21 Pb     1.778836    7.189082   12.904828    ( 0.0000,  0.0000,  0.0000)
  22 Pb     0.005260    8.228967   15.904016    ( 0.0000,  0.0000,  0.0000)
  23 Pb    -0.049045    6.190577   18.870674    ( 0.0000,  0.0000,  0.0000)
  24 Pb     7.115346    0.000000   10.000000    ( 0.0000,  0.0000,  0.0000)
  25 Pb     8.894182    1.027012   12.904828    ( 0.0000,  0.0000,  0.0000)
  26 Pb     7.120310    2.051139   15.939825    ( 0.0000,  0.0000,  0.0000)
  27 Pb     7.115655    0.011954   18.754317    ( 0.0000,  0.0000,  0.0000)
  28 Pb     5.336509    3.081035   10.000000    ( 0.0000,  0.0000,  0.0000)
  29 Pb     7.115346    4.108047   12.904828    ( 0.0000,  0.0000,  0.0000)
  30 Pb     5.357826    5.132449   15.898478    ( 0.0000,  0.0000,  0.0000)
  31 Pb     5.363254    3.065432   18.749192    ( 0.0000,  0.0000,  0.0000)
  32 Pb     3.557673    6.162070   10.000000    ( 0.0000,  0.0000,  0.0000)
  33 Pb     5.336509    7.189082   12.904828    ( 0.0000,  0.0000,  0.0000)
  34 Pb     3.549879    8.233065   15.900023    ( 0.0000,  0.0000,  0.0000)
  35 Pb     3.601488    6.188713   18.863274    ( 0.0000,  0.0000,  0.0000)
  36 O      1.770153    5.140899   19.763598    ( 0.0000,  0.0000,  0.0000)

Unit cell:
           periodic     x           y           z      points  spacing
  1. axis:    yes   10.673019    0.000000    0.000000    52     0.1778
  2. axis:    yes   -5.336509    9.243105    0.000000    52     0.1778
  3. axis:    no     0.000000    0.000000   28.714483   160     0.1795

  Lengths:  10.673019  10.673019  28.714483
  Angles:   90.000000  90.000000 120.000000

Effective grid spacing dv^(1/3) = 0.1871

     iter     time        total  log10-change:
                         energy  eigst   dens
iter:   1 23:43:41 -12840.130096  -3.13
iter:   2 23:44:21 -12840.130156  -4.08  -3.61
iter:   3 23:45:02 -12840.130131c -4.76  -3.71
iter:   4 23:45:43 -12840.130124c -5.14  -3.94
iter:   5 23:46:23 -12840.130120c -5.60  -4.07c
iter:   6 23:47:04 -12840.130129c -5.84  -4.18c
iter:   7 23:47:44 -12840.130158c -6.06  -4.35c
iter:   8 23:48:25 -12840.130153c -6.74  -4.51c
iter:   9 23:49:05 -12840.130150c -6.74  -4.58c
iter:  10 23:49:46 -12840.130151c -7.20  -4.74c
iter:  11 23:50:26 -12840.130153c -7.58c -4.86c

Converged after 11 iterations.

Dipole moment: (-8.301555, -15.636770, -0.173019) |e|*Ang

Energy contributions relative to reference atoms: (reference = -20423921.533412)

Kinetic:       +1466.719665
Potential:     -1411.490470
External:        +0.000000
XC:            -12891.137167
Entropy (-ST):   -0.587801
Local:           -3.928281
--------------------------
Free energy:   -12840.424053
Extrapolated:  -12840.130153

Showing only first 2 kpts
 Kpt  Band  Eigenvalues  Occupancy
  0   253     -4.15811    1.36875
  0   254     -4.09660    1.07928
  0   255     -4.02701    0.73778
  0   256     -3.98270    0.54573

  1   253     -4.58942    1.98772
  1   254     -4.54604    1.98112
  1   255     -4.44765    1.95028
  1   256     -4.42930    1.94057


Fermi level: -4.08071

No gap

Forces in eV/Ang:
  0 Pb    0.00496   -0.00284    0.13806
  1 Pb    0.01019   -0.01102   -0.13277
  2 Pb    0.01830    0.00999    0.02244
  3 Pb   -0.00086    0.00132   -0.01269
  4 Pb   -0.00592    0.00973    0.07804
  5 Pb   -0.03203   -0.03534   -0.12823
  6 Pb    0.02038    0.00552    0.01563
  7 Pb    0.01328    0.00375   -0.00436
  8 Pb   -0.00657   -0.02070    0.10603
  9 Pb   -0.03759    0.02172   -0.13731
 10 Pb   -0.00228    0.00113   -0.00926
 11 Pb   -0.00163   -0.00673   -0.01839
 12 Pb    0.01463    0.01600    0.10601
 13 Pb   -0.01763    0.02463   -0.08021
 14 Pb   -0.01928    0.00345    0.01920
 15 Pb    0.00520    0.00449   -0.01822
 16 Pb    0.02644    0.01893    0.09768
 17 Pb    0.03653   -0.02104   -0.10599
 18 Pb    0.01511   -0.00845    0.04583
 19 Pb    0.00736   -0.05952   -0.02485
 20 Pb    0.00242   -0.00138    0.12135
 21 Pb    0.01461    0.04547   -0.12810
 22 Pb    0.00555   -0.02035    0.01544
 23 Pb   -0.06465    0.03773   -0.00808
 24 Pb   -0.01138    0.00022    0.07806
 25 Pb   -0.01337    0.00768   -0.10363
 26 Pb   -0.00212    0.00116   -0.01135
 27 Pb    0.00377   -0.01351   -0.00445
 28 Pb   -0.01974    0.01140    0.09823
 29 Pb   -0.03017    0.00298   -0.08031
 30 Pb   -0.01275    0.01518    0.01941
 31 Pb    0.01094   -0.00643   -0.01433
 32 Pb   -0.00312   -0.03236    0.09773
 33 Pb    0.01454   -0.00337   -0.13273
 34 Pb    0.00052   -0.02104    0.02258
 35 Pb    0.05430    0.02340   -0.02479
 36 O    -0.00698    0.00183    0.06353

BFGS:    7 23:50:42   -12840.130153        0.0753
System changes: positions 

Initializing position-dependent things.

Density initialized from wave functions
                                                    
                                                    
                                                    
                                                    
                                                    
                                                    
           Pb       Pb O     Pb                     
                                                    
             Pb       Pb       Pb                   
                     Pb       Pb                    
                Pb      Pb       Pb                 
               Pb       Pb      Pb                  
                                                    
                PPb      PPb     PPb                
                                                    
                   Pb      Pb       Pb              
                                                    
           Pb       PPb      Pb       Pb            
                                                    
              Pb      Pb       Pb                   
                                                    
                Pb      Pb       Pb                 
                                                    
                                                    
                                                    
                                                    

Positions:
   0 Pb     0.000000    0.000000   10.000000    ( 0.0000,  0.0000,  0.0000)
   1 Pb     1.778836    1.027012   12.904828    ( 0.0000,  0.0000,  0.0000)
   2 Pb    -0.017852    2.053955   15.900838    ( 0.0000,  0.0000,  0.0000)
   3 Pb     0.003658   -0.001520   18.724549    ( 0.0000,  0.0000,  0.0000)
   4 Pb    -1.778836    3.081035   10.000000    ( 0.0000,  0.0000,  0.0000)
   5 Pb    -0.000000    4.108047   12.904828    ( 0.0000,  0.0000,  0.0000)
   6 Pb    -1.784144    5.124655   15.903448    ( 0.0000,  0.0000,  0.0000)
   7 Pb    -1.787658    3.074854   18.753567    ( 0.0000,  0.0000,  0.0000)
   8 Pb    -3.557673    6.162070   10.000000    ( 0.0000,  0.0000,  0.0000)
   9 Pb    -1.778836    7.189082   12.904828    ( 0.0000,  0.0000,  0.0000)
  10 Pb    -3.558067    8.216245   15.951478    ( 0.0000,  0.0000,  0.0000)
  11 Pb    -3.555451    6.157674   18.738834    ( 0.0000,  0.0000,  0.0000)
  12 Pb     3.557673    0.000000   10.000000    ( 0.0000,  0.0000,  0.0000)
  13 Pb     5.336509    1.027012   12.904828    ( 0.0000,  0.0000,  0.0000)
  14 Pb     3.569008    2.037131   15.898467    ( 0.0000,  0.0000,  0.0000)
  15 Pb     3.562455    0.000466   18.738852    ( 0.0000,  0.0000,  0.0000)
  16 Pb     1.778836    3.081035   10.000000    ( 0.0000,  0.0000,  0.0000)
  17 Pb     3.557673    4.108047   12.904828    ( 0.0000,  0.0000,  0.0000)
  18 Pb     1.790158    5.128451   15.901125    ( 0.0000,  0.0000,  0.0000)
  19 Pb     1.777211    3.026793   18.868946    ( 0.0000,  0.0000,  0.0000)
  20 Pb    -0.000000    6.162070   10.000000    ( 0.0000,  0.0000,  0.0000)
  21 Pb     1.778836    7.189082   12.904828    ( 0.0000,  0.0000,  0.0000)
  22 Pb     0.006355    8.225886   15.903532    ( 0.0000,  0.0000,  0.0000)
  23 Pb    -0.052936    6.192871   18.876935    ( 0.0000,  0.0000,  0.0000)
  24 Pb     7.115346    0.000000   10.000000    ( 0.0000,  0.0000,  0.0000)
  25 Pb     8.894182    1.027012   12.904828    ( 0.0000,  0.0000,  0.0000)
  26 Pb     7.120300    2.051142   15.939389    ( 0.0000,  0.0000,  0.0000)
  27 Pb     7.116310    0.010981   18.753547    ( 0.0000,  0.0000,  0.0000)
  28 Pb     5.336509    3.081035   10.000000    ( 0.0000,  0.0000,  0.0000)
  29 Pb     7.115346    4.108047   12.904828    ( 0.0000,  0.0000,  0.0000)
  30 Pb     5.356902    5.133571   15.898275    ( 0.0000,  0.0000,  0.0000)
  31 Pb     5.366021    3.063815   18.747794    ( 0.0000,  0.0000,  0.0000)
  32 Pb     3.557673    6.162070   10.000000    ( 0.0000,  0.0000,  0.0000)
  33 Pb     5.336509    7.189082   12.904828    ( 0.0000,  0.0000,  0.0000)
  34 Pb     3.548812    8.231673   15.900786    ( 0.0000,  0.0000,  0.0000)
  35 Pb     3.604547    6.190955   18.868672    ( 0.0000,  0.0000,  0.0000)
  36 O      1.768962    5.141406   19.763517    ( 0.0000,  0.0000,  0.0000)

Unit cell:
           periodic     x           y           z      points  spacing
  1. axis:    yes   10.673019    0.000000    0.000000    52     0.1778
  2. axis:    yes   -5.336509    9.243105    0.000000    52     0.1778
  3. axis:    no     0.000000    0.000000   28.714483   160     0.1795

  Lengths:  10.673019  10.673019  28.714483
  Angles:   90.000000  90.000000 120.000000

Effective grid spacing dv^(1/3) = 0.1871

     iter     time        total  log10-change:
                         energy  eigst   dens
iter:   1 23:51:50 -12840.130911  -3.41
iter:   2 23:52:31 -12840.131041  -4.37  -3.93
iter:   3 23:53:12 -12840.131038c -5.02  -4.02c
iter:   4 23:53:52 -12840.131030c -5.43  -4.07c
iter:   5 23:54:33 -12840.131042c -5.90  -4.23c
iter:   6 23:55:14 -12840.131058c -6.08  -4.35c
iter:   7 23:55:55 -12840.131051c -6.47  -4.55c
iter:   8 23:56:35 -12840.131052c -7.00  -4.65c
iter:   9 23:57:16 -12840.131056c -7.16  -4.78c
iter:  10 23:57:57 -12840.131058c -7.70c -4.92c

Converged after 10 iterations.

Dipole moment: (-8.243762, -15.687326, -0.171823) |e|*Ang

Energy contributions relative to reference atoms: (reference = -20423921.533412)

Kinetic:       +1466.555485
Potential:     -1411.355261
External:        +0.000000
XC:            -12891.107319
Entropy (-ST):   -0.587597
Local:           -3.930165
--------------------------
Free energy:   -12840.424856
Extrapolated:  -12840.131058

Showing only first 2 kpts
 Kpt  Band  Eigenvalues  Occupancy
  0   253     -4.15726    1.36788
  0   254     -4.09575    1.07824
  0   255     -4.02585    0.73534
  0   256     -3.98216    0.54614

  1   253     -4.58829    1.98766
  1   254     -4.54415    1.98088
  1   255     -4.44665    1.95011
  1   256     -4.42893    1.94072


Fermi level: -4.08007

No gap

Forces in eV/Ang:
  0 Pb    0.00414   -0.00239    0.13941
  1 Pb    0.00857   -0.01160   -0.13273
  2 Pb    0.01673    0.00476    0.02059
  3 Pb   -0.00275    0.00233   -0.01258
  4 Pb   -0.00623    0.00988    0.07936
  5 Pb   -0.02916   -0.03448   -0.12809
  6 Pb    0.01485    0.00383    0.01894
  7 Pb    0.01232    0.00383   -0.00313
  8 Pb   -0.00655   -0.02176    0.10713
  9 Pb   -0.03759    0.02175   -0.13801
 10 Pb    0.00021   -0.00021   -0.01570
 11 Pb    0.00121   -0.00533   -0.01556
 12 Pb    0.01557    0.01649    0.10714
 13 Pb   -0.01737    0.02302   -0.08206
 14 Pb   -0.01614    0.00269    0.02115
 15 Pb    0.00551    0.00128   -0.01544
 16 Pb    0.02665    0.02003    0.09870
 17 Pb    0.03247   -0.01876   -0.10696
 18 Pb    0.01239   -0.00707    0.04319
 19 Pb    0.01520   -0.02759   -0.02392
 20 Pb    0.00306   -0.00175    0.12269
 21 Pb    0.01527    0.04256   -0.12802
 22 Pb    0.00409   -0.01463    0.01869
 23 Pb   -0.04332    0.02542   -0.00935
 24 Pb   -0.01165    0.00040    0.07938
 25 Pb   -0.01197    0.00689   -0.10333
 26 Pb    0.00062   -0.00038   -0.01385
 27 Pb    0.00326   -0.01272   -0.00313
 28 Pb   -0.01919    0.01110    0.09888
 29 Pb   -0.02862    0.00350   -0.08220
 30 Pb   -0.01052    0.01277    0.02142
 31 Pb    0.00109   -0.00075   -0.01165
 32 Pb   -0.00396   -0.03308    0.09872
 33 Pb    0.01426   -0.00162   -0.13280
 34 Pb    0.00435   -0.01690    0.02074
 35 Pb    0.03027    0.00084   -0.02341
 36 O    -0.00508    0.00178    0.04204

BFGS:    8 23:58:12   -12840.131058        0.0511
System changes: positions 

Initializing position-dependent things.

Density initialized from wave functions
                                                    
                                                    
                                                    
                                                    
                                                    
                                                    
           Pb       Pb O     Pb                     
                                                    
             Pb       Pb       Pb                   
                     Pb       Pb                    
                Pb      Pb       Pb                 
               Pb       Pb      Pb                  
                                                    
                PPb      PPb      Pb                
                                                    
                   Pb      Pb       Pb              
                                                    
           Pb       PPb      Pb       Pb            
                                                    
              Pb      Pb       Pb                   
                                                    
                Pb      Pb       Pb                 
                                                    
                                                    
                                                    
                                                    

Positions:
   0 Pb     0.000000    0.000000   10.000000    ( 0.0000,  0.0000,  0.0000)
   1 Pb     1.778836    1.027012   12.904828    ( 0.0000,  0.0000,  0.0000)
   2 Pb    -0.015792    2.056866   15.903388    ( 0.0000,  0.0000,  0.0000)
   3 Pb     0.003549   -0.001307   18.722809    ( 0.0000,  0.0000,  0.0000)
   4 Pb    -1.778836    3.081035   10.000000    ( 0.0000,  0.0000,  0.0000)
   5 Pb    -0.000000    4.108047   12.904828    ( 0.0000,  0.0000,  0.0000)
   6 Pb    -1.778395    5.126123   15.904288    ( 0.0000,  0.0000,  0.0000)
   7 Pb    -1.785252    3.075132   18.752519    ( 0.0000,  0.0000,  0.0000)
   8 Pb    -3.557673    6.162070   10.000000    ( 0.0000,  0.0000,  0.0000)
   9 Pb    -1.778836    7.189082   12.904828    ( 0.0000,  0.0000,  0.0000)
  10 Pb    -3.558974    8.216762   15.951321    ( 0.0000,  0.0000,  0.0000)
  11 Pb    -3.555940    6.156119   18.735957    ( 0.0000,  0.0000,  0.0000)
  12 Pb     3.557673    0.000000   10.000000    ( 0.0000,  0.0000,  0.0000)
  13 Pb     5.336509    1.027012   12.904828    ( 0.0000,  0.0000,  0.0000)
  14 Pb     3.565644    2.038113   15.899778    ( 0.0000,  0.0000,  0.0000)
  15 Pb     3.563560    0.001672   18.735979    ( 0.0000,  0.0000,  0.0000)
  16 Pb     1.778836    3.081035   10.000000    ( 0.0000,  0.0000,  0.0000)
  17 Pb     3.557673    4.108047   12.904828    ( 0.0000,  0.0000,  0.0000)
  18 Pb     1.792452    5.127148   15.907814    ( 0.0000,  0.0000,  0.0000)
  19 Pb     1.776904    3.023126   18.872993    ( 0.0000,  0.0000,  0.0000)
  20 Pb    -0.000000    6.162070   10.000000    ( 0.0000,  0.0000,  0.0000)
  21 Pb     1.778836    7.189082   12.904828    ( 0.0000,  0.0000,  0.0000)
  22 Pb     0.007952    8.220195   15.904355    ( 0.0000,  0.0000,  0.0000)
  23 Pb    -0.056940    6.195256   18.882104    ( 0.0000,  0.0000,  0.0000)
  24 Pb     7.115346    0.000000   10.000000    ( 0.0000,  0.0000,  0.0000)
  25 Pb     8.894182    1.027012   12.904828    ( 0.0000,  0.0000,  0.0000)
  26 Pb     7.120421    2.051069   15.938082    ( 0.0000,  0.0000,  0.0000)
  27 Pb     7.117321    0.008745   18.752497    ( 0.0000,  0.0000,  0.0000)
  28 Pb     5.336509    3.081035   10.000000    ( 0.0000,  0.0000,  0.0000)
  29 Pb     7.115346    4.108047   12.904828    ( 0.0000,  0.0000,  0.0000)
  30 Pb     5.354354    5.135986   15.899605    ( 0.0000,  0.0000,  0.0000)
  31 Pb     5.369259    3.061920   18.745728    ( 0.0000,  0.0000,  0.0000)
  32 Pb     3.557673    6.162070   10.000000    ( 0.0000,  0.0000,  0.0000)
  33 Pb     5.336509    7.189082   12.904828    ( 0.0000,  0.0000,  0.0000)
  34 Pb     3.547329    8.228428   15.903354    ( 0.0000,  0.0000,  0.0000)
  35 Pb     3.607282    6.192908   18.872823    ( 0.0000,  0.0000,  0.0000)
  36 O      1.767420    5.142056   19.764204    ( 0.0000,  0.0000,  0.0000)

Unit cell:
           periodic     x           y           z      points  spacing
  1. axis:    yes   10.673019    0.000000    0.000000    52     0.1778
  2. axis:    yes   -5.336509    9.243105    0.000000    52     0.1778
  3. axis:    no     0.000000    0.000000   28.714483   160     0.1795

  Lengths:  10.673019  10.673019  28.714483
  Angles:   90.000000  90.000000 120.000000

Effective grid spacing dv^(1/3) = 0.1871

     iter     time        total  log10-change:
                         energy  eigst   dens
iter:   1 23:59:21 -12840.132849  -3.21
iter:   2 00:00:02 -12840.132679  -4.14  -3.33
iter:   3 00:00:42 -12840.132108c -4.84  -3.48
iter:   4 00:01:23 -12840.132047c -5.11  -3.83
iter:   5 00:02:04 -12840.132017c -5.56  -4.03c
iter:   6 00:02:44 -12840.132016c -5.94  -4.13c
iter:   7 00:03:25 -12840.132048c -5.99  -4.23c
iter:   8 00:04:06 -12840.132049c -6.34  -4.46c
iter:   9 00:04:47 -12840.132044c -6.96  -4.52c
iter:  10 00:05:27 -12840.132051c -7.20  -4.66c
iter:  11 00:06:08 -12840.132051c -7.53c -4.78c

Converged after 11 iterations.

Dipole moment: (-8.171738, -15.758788, -0.172203) |e|*Ang

Energy contributions relative to reference atoms: (reference = -20423921.533412)

Kinetic:       +1466.504609
Potential:     -1411.320945
External:        +0.000000
XC:            -12891.090333
Entropy (-ST):   -0.587485
Local:           -3.931640
--------------------------
Free energy:   -12840.425794
Extrapolated:  -12840.132051

Showing only first 2 kpts
 Kpt  Band  Eigenvalues  Occupancy
  0   253     -4.15677    1.36459
  0   254     -4.09562    1.07626
  0   255     -4.02660    0.73759
  0   256     -3.98247    0.54628

  1   253     -4.58904    1.98772
  1   254     -4.54273    1.98056
  1   255     -4.44589    1.94960
  1   256     -4.42918    1.94071


Fermi level: -4.08034

No gap

Forces in eV/Ang:
  0 Pb    0.00343   -0.00199    0.14167
  1 Pb    0.00894   -0.01213   -0.13290
  2 Pb    0.01268   -0.00524    0.01650
  3 Pb   -0.00408    0.00281   -0.01471
  4 Pb   -0.00748    0.00905    0.08223
  5 Pb   -0.02850   -0.03497   -0.12682
  6 Pb   -0.00189   -0.00244    0.01767
  7 Pb    0.00484    0.00230   -0.00195
  8 Pb   -0.00711   -0.02245    0.10961
  9 Pb   -0.03826    0.02212   -0.13854
 10 Pb    0.00375   -0.00233   -0.01760
 11 Pb    0.00277   -0.00336   -0.01331
 12 Pb    0.01588    0.01731    0.10960
 13 Pb   -0.01780    0.02360   -0.08278
 14 Pb   -0.00371    0.00020    0.02062
 15 Pb    0.00469   -0.00125   -0.01316
 16 Pb    0.02691    0.01977    0.09911
 17 Pb    0.03239   -0.01866   -0.10446
 18 Pb    0.00983   -0.00552    0.03305
 19 Pb    0.02083    0.00163   -0.02146
 20 Pb    0.00248   -0.00146    0.12321
 21 Pb    0.01608    0.04225   -0.12663
 22 Pb    0.00125    0.00294    0.01742
 23 Pb   -0.01765    0.01038   -0.00617
 24 Pb   -0.01153    0.00192    0.08225
 25 Pb   -0.01170    0.00669   -0.10508
 26 Pb   -0.00049    0.00027   -0.01009
 27 Pb    0.00088   -0.00559   -0.00197
 28 Pb   -0.01743    0.01010    0.10187
 29 Pb   -0.02934    0.00361   -0.08288
 30 Pb   -0.00217    0.00345    0.02095
 31 Pb   -0.00703    0.00402   -0.01029
 32 Pb   -0.00359   -0.03320    0.09914
 33 Pb    0.01488   -0.00170   -0.13290
 34 Pb    0.01098   -0.00847    0.01669
 35 Pb    0.00855   -0.01815   -0.02129
 36 O    -0.00762    0.00333    0.01663

BFGS:    9 00:06:23   -12840.132051        0.0349
Timing:                                      incl.     excl.
-------------------------------------------------------------------
Density initialized from wave functions:     2.328     2.328   0.0% |
 Symmetrize density:                         0.000     0.000   0.0% |
Forces:                                    155.260   155.260   2.6% ||
Hamiltonian:                                52.051     0.001   0.0% |
 Atomic:                                     0.003     0.003   0.0% |
  XC Correction:                             0.000     0.000   0.0% |
 Calculate atomic Hamiltonians:              0.003     0.003   0.0% |
 Communicate:                                1.833     1.833   0.0% |
 Hartree integrate/restrict:                 0.154     0.154   0.0% |
 Initialize Hamiltonian:                     0.000     0.000   0.0% |
 Poisson:                                    2.590     0.122   0.0% |
  Communicate from 1D:                       0.276     0.276   0.0% |
  Communicate from 2D:                       0.444     0.444   0.0% |
  Communicate to 1D:                         0.113     0.113   0.0% |
  Communicate to 2D:                         0.474     0.474   0.0% |
  FFT 1D:                                    0.411     0.411   0.0% |
  FFT 2D:                                    0.751     0.751   0.0% |
 XC 3D grid:                                47.261    11.233   0.2% |
  VdW-DF integral:                          36.027     0.440   0.0% |
   Convolution:                              4.616     4.616   0.1% |
   FFT:                                      2.672     2.672   0.0% |
   gather:                                   8.793     8.793   0.1% |
   hmm1:                                     0.690     0.690   0.0% |
   hmm2:                                     1.474     1.474   0.0% |
   iFFT:                                     2.759     2.759   0.0% |
   potential:                               10.470     0.253   0.0% |
    collect:                                 1.024     1.024   0.0% |
    p1:                                      6.220     6.220   0.1% |
    p2:                                      2.121     2.121   0.0% |
    sum:                                     0.851     0.851   0.0% |
   splines:                                  4.115     4.115   0.1% |
 vbar:                                       0.206     0.206   0.0% |
LCAO initialization:                        19.742     0.940   0.0% |
 LCAO eigensolver:                           3.922     0.002   0.0% |
  Calculate projections:                     0.000     0.000   0.0% |
  DenseAtomicCorrection:                     0.000     0.000   0.0% |
  Distribute overlap matrix:                 3.506     3.506   0.1% |
  Orbital Layouts:                           0.377     0.377   0.0% |
  Potential matrix:                          0.009     0.009   0.0% |
  Sum over cells:                            0.028     0.028   0.0% |
 LCAO to grid:                              14.384    14.384   0.2% |
 Set positions (LCAO WFS):                   0.496     0.352   0.0% |
  Basic WFS set positions:                   0.001     0.001   0.0% |
  Basis functions set positions:             0.000     0.000   0.0% |
  P tci:                                     0.000     0.000   0.0% |
  ST tci:                                    0.104     0.104   0.0% |
  mktci:                                     0.038     0.038   0.0% |
Redistribute:                                0.004     0.004   0.0% |
SCF-cycle:                                5580.280    30.983   0.5% |
 Davidson:                                4891.061  1337.812  22.2% |--------|
  Apply hamiltonian:                       177.466   177.466   2.9% ||
  Subspace diag:                           641.842     0.016   0.0% |
   calc_h_matrix:                          327.286   171.489   2.8% ||
    Apply hamiltonian:                     155.797   155.797   2.6% ||
   diagonalize:                              9.490     9.490   0.2% |
   rotate_psi:                             305.050   305.050   5.1% |-|
  calc. matrices:                         2063.038  1128.732  18.7% |------|
   Apply hamiltonian:                      934.306   934.306  15.5% |-----|
  diagonalize:                              44.412    44.412   0.7% |
  rotate_psi:                              626.492   626.492  10.4% |---|
 Density:                                   13.131     0.003   0.0% |
  Atomic density matrices:                   0.819     0.819   0.0% |
  Mix:                                       3.124     3.124   0.1% |
  Multipole moments:                         0.045     0.045   0.0% |
  Pseudo density:                            9.139     9.135   0.2% |
   Symmetrize density:                       0.004     0.004   0.0% |
 Hamiltonian:                              605.419     0.016   0.0% |
  Atomic:                                    0.029     0.029   0.0% |
   XC Correction:                            0.000     0.000   0.0% |
  Calculate atomic Hamiltonians:             0.038     0.038   0.0% |
  Communicate:                              21.178    21.178   0.4% |
  Hartree integrate/restrict:                2.006     2.006   0.0% |
  Poisson:                                  33.099     1.570   0.0% |
   Communicate from 1D:                      3.619     3.619   0.1% |
   Communicate from 2D:                      5.667     5.667   0.1% |
   Communicate to 1D:                        1.438     1.438   0.0% |
   Communicate to 2D:                        6.068     6.068   0.1% |
   FFT 1D:                                   5.171     5.171   0.1% |
   FFT 2D:                                   9.567     9.567   0.2% |
  XC 3D grid:                              548.694   141.319   2.3% ||
   VdW-DF integral:                        407.376     5.510   0.1% |
    Convolution:                            58.222    58.222   1.0% |
    FFT:                                    34.366    34.366   0.6% |
    gather:                                113.892   113.892   1.9% ||
    hmm1:                                    8.560     8.560   0.1% |
    hmm2:                                   18.866    18.866   0.3% |
    iFFT:                                   35.003    35.003   0.6% |
    potential:                             132.956     3.186   0.1% |
     collect:                               13.089    13.089   0.2% |
     p1:                                    78.369    78.369   1.3% ||
     p2:                                    27.548    27.548   0.5% |
     sum:                                   10.763    10.763   0.2% |
    splines:                                 0.001     0.001   0.0% |
  vbar:                                      0.357     0.357   0.0% |
 Orthonormalize:                            39.686     0.002   0.0% |
  calc_s_matrix:                             5.195     5.195   0.1% |
  inverse-cholesky:                         23.169    23.169   0.4% |
  projections:                               0.001     0.001   0.0% |
  rotate_psi_s:                             11.320    11.320   0.2% |
Set symmetry:                                0.001     0.001   0.0% |
Other:                                     214.952   214.952   3.6% ||
-------------------------------------------------------------------
Total:                                              6024.618 100.0%

Memory usage: 2.31 GiB
Date: Thu Sep 28 00:06:23 2023
