
  ___ ___ ___ _ _ _  
 |   |   |_  | | | | 
 | | | | | . | | | | 
 |__ |  _|___|_____|  22.8.0
 |___|_|             

User:   s204775@a035.nifl.fysik.dtu.dk
Date:   Wed Sep 27 22:29:48 2023
Arch:   x86_64
Pid:    14767
CWD:    /home/cat/s204775/projects/Bachelor_project/O_missing_features
Python: 3.10.4
gpaw:   /home/modules/software/GPAW/22.8.0-intel-2022a/lib/python3.10/site-packages/gpaw
_gpaw:  /home/modules/software/GPAW/22.8.0-intel-2022a/lib/python3.10/site-packages/
        _gpaw.cpython-310-x86_64-linux-gnu.so
ase:    /home/modules/software/ASE/3.22.1-intel-2022a/lib/python3.10/site-packages/ase (version 3.22.1)
numpy:  /home/modules/software/SciPy-bundle/2022.05-intel-2022a/lib/python3.10/site-packages/numpy (version 1.22.3)
scipy:  /home/modules/software/SciPy-bundle/2022.05-intel-2022a/lib/python3.10/site-packages/scipy (version 1.8.1)
libxc:  5.2.3
units:  Angstrom and eV
cores: 40
OpenMP: False
OMP_NUM_THREADS: 1

Input parameters:
  basis: dzp
  h: 0.18
  kpts: {size: (4, 4, 1)}
  xc: BEEF-vdW

System changes: positions, numbers, cell, pbc, initial_charges, initial_magmoms 

Initialize ...

species:
  Pd:
    name: Palladium
    id: c3f348c122b85aed3f99c4295cac773c
    Z: 46.0
    valence: 16
    core: 30
    charge: 0.0
    file: /home/modules/software/GPAW-setups/0.9.20000/Pd.PBE.gz
    compensation charges: {type: gauss,
                           rc: 0.38,
                           lmax: 2}
    cutoffs: {filter: 2.38,
              core: 2.28}
    valence states:
      #              energy  rcut
      - 5s(0.00)    -3.315   1.228
      - 4p(6.00)   -51.209   1.360
      - 5p(0.00)    -0.314   1.360
      - 4d(10.00)    -4.047   1.228
      -  s          23.896   1.228
      -  d          23.165   1.228
  
    # LCAO basis set for Pd:
    #   Name: dzp
    #   File: /home/modules/software/GPAW-setups/0.9.20000/Pd.dzp.basis.gz
    #   Number of radial functions: 9
    #   Number of spherical harmonics: 27
    #     l=0, rc=10.0312 Bohr: 5s-sz confined orbital
    #     l=1, rc=3.5312 Bohr: 4p-sz confined orbital
    #     l=1, rc=16.0000 Bohr: 5p-sz confined orbital
    #     l=2, rc=6.2031 Bohr: 4d-sz confined orbital
    #     l=0, rc=6.0156 Bohr: 5s-dz split-valence wave
    #     l=1, rc=2.4062 Bohr: 4p-dz split-valence wave
    #     l=1, rc=9.9375 Bohr: 5p-dz split-valence wave
    #     l=2, rc=3.6719 Bohr: 4d-dz split-valence wave
    #     l=1, rc=10.0312 Bohr: p-type Gaussian polarization
    #   Number of RI-basis functions 0

  O:
    name: Oxygen
    id: 32ecd46bf208036f09c70b0ec9a88b78
    Z: 8.0
    valence: 6
    core: 2
    charge: 0.0
    file: /home/modules/software/GPAW-setups/0.9.20000/O.PBE.gz
    compensation charges: {type: gauss,
                           rc: 0.21,
                           lmax: 2}
    cutoffs: {filter: 1.17,
              core: 0.83}
    valence states:
      #              energy  rcut
      - 2s(2.00)   -23.961   0.688
      - 2p(4.00)    -9.029   0.598
      -  s           3.251   0.688
      -  p          18.182   0.598
      -  d           0.000   0.619
  
    # LCAO basis set for O:
    #   Name: dzp
    #   File: /home/modules/software/GPAW-setups/0.9.20000/O.dzp.basis.gz
    #   Number of radial functions: 5
    #   Number of spherical harmonics: 13
    #     l=0, rc=4.3438 Bohr: 2s-sz confined orbital
    #     l=1, rc=5.3906 Bohr: 2p-sz confined orbital
    #     l=0, rc=2.2969 Bohr: 2s-dz split-valence wave
    #     l=1, rc=2.8906 Bohr: 2p-dz split-valence wave
    #     l=2, rc=5.3906 Bohr: d-type Gaussian polarization
    #   Number of RI-basis functions 0

Reference energy: -4942230.518152  # eV

Spin-paired calculation

Convergence criteria:
 Maximum [total energy] change in last 3 cyles: 0.0005 eV / electron
 Maximum integral of absolute [dens]ity change: 0.0001 electrons / valence electron
 Maximum integral of absolute [eigenst]ate change: 4e-08 eV^2 / valence electron
 Maximum number of scf [iter]ations: 333
 (Square brackets indicate name in SCF output, whereas a 'c' in
 the SCF output indicates the quantity has converged.)

Symmetries present (total): 2

  ( 1  0  0)  (-1  0  0)
  ( 0  1  0)  ( 1  1  0)
  ( 0  0  1)  ( 0  0  1)
Note: your k-points are not as symmetric as your crystal!

16 k-points: 4 x 4 x 1 Monkhorst-Pack grid
8 k-points in the irreducible part of the Brillouin zone
       k-points in crystal coordinates                weights
   0:     0.12500000   -0.37500000    0.00000000          2/16
   1:     0.12500000   -0.12500000    0.00000000          2/16
   2:     0.12500000    0.12500000    0.00000000          2/16
   3:     0.12500000    0.37500000    0.00000000          2/16
   4:     0.37500000   -0.37500000    0.00000000          2/16
   5:     0.37500000   -0.12500000    0.00000000          2/16
   6:     0.37500000    0.12500000    0.00000000          2/16
   7:     0.37500000    0.37500000    0.00000000          2/16

Wave functions: Uniform real-space grid
  Kinetic energy operator: 8*3+1=25 point O(h^6) finite-difference Laplacian
  ScaLapack parameters: grid=1x1, blocksize=None
  Wavefunction extrapolation:
    Improved wavefunction reuse through dual PAW basis 

Occupation numbers: Fermi-Dirac:
  width: 0.1000  # eV
 

Eigensolver
   Davidson(niter=2) 

Densities:
  Coarse grid: 40*40*148 grid
  Fine grid: 80*80*296 grid
  Total Charge: 0.000000 

Density mixing:
  Method: separate
  Backend: pulay
  Linear mixing parameter: 0.05
  old densities: 5
  Damping of long wavelength oscillations: 50 

Hamiltonian:
  XC and Coulomb potentials evaluated on a 80*80*296 grid
  Using the BEEF-vdW Exchange-Correlation functional
  Interpolation: tri-quintic (5. degree polynomial)
  Poisson solver: FastPoissonSolver using
    Stencil: 8*3+1=25 point O(h^6) finite-difference Laplacian
    FFT axes: [0, 1]
    FST axes: [2]
 

XC parameters: BEEF-vdW with 2 nearest neighbor stencil

Memory estimate:
  Process memory now: 195.45 MiB
  Calculator: 602.24 MiB
    Density: 60.14 MiB
      Arrays: 9.35 MiB
      Localized functions: 47.25 MiB
      Mixer: 3.54 MiB
    Hamiltonian: 9.60 MiB
      Arrays: 6.12 MiB
      XC: 0.00 MiB
      Poisson: 0.00 MiB
      vbar: 3.49 MiB
    Wavefunctions: 532.50 MiB
      Arrays psit_nG: 250.63 MiB
      Eigensolver: 273.31 MiB
      Projections: 0.71 MiB
      Projectors: 7.84 MiB

Total number of cores used: 40
Parallelization over k-points: 8
Domain decomposition: 1 x 1 x 5

Number of atoms: 37
Number of atomic orbitals: 985
Number of bands in calculation: 354
Number of valence electrons: 582
Bands to converge: occupied

... initialized

Initializing position-dependent things.

Density initialized from atomic densities
Creating initial wave functions:
  354 bands from LCAO basis set

                                                
                                                
                                                
                                                
                                                
                 Pd     Pd O   Pd               
                                                
           Pd     PPd    PPd     Pd             
                     Pd     Pd     Pd           
             Pd     Pd     Pd                   
              PPd    PPd    PPd                 
                                                
                Pd     Pd     Pd                
                  Pd     Pd     Pd              
          Pd     Pd     Pd                      
            Pd     Pd     Pd                    
              Pd     Pd     Pd                  
                                                
                                                
                                                
                                                

Positions:
   0 Pd     0.000000    0.000000    9.999999    ( 0.0000,  0.0000,  0.0000)
   1 Pd     1.418446    0.818940   12.316312    ( 0.0000,  0.0000,  0.0000)
   2 Pd    -0.000000    1.637341   14.614319    ( 0.0000,  0.0000,  0.0000)
   3 Pd     2.836318   -0.000221   16.938702    ( 0.0000,  0.0000,  0.0000)
   4 Pd    -1.418446    2.456821    9.999999    ( 0.0000,  0.0000,  0.0000)
   5 Pd    -0.000000    3.275761   12.316312    ( 0.0000,  0.0000,  0.0000)
   6 Pd    -1.417250    4.095392   14.618454    ( 0.0000,  0.0000,  0.0000)
   7 Pd     1.417968    2.456434   16.938702    ( 0.0000,  0.0000,  0.0000)
   8 Pd    -2.836893    4.913642    9.999999    ( 0.0000,  0.0000,  0.0000)
   9 Pd    -1.418446    5.732582   12.316312    ( 0.0000,  0.0000,  0.0000)
  10 Pd    -2.837360    6.551793   14.614319    ( 0.0000,  0.0000,  0.0000)
  11 Pd    -0.000000    4.913642   16.946916    ( 0.0000,  0.0000,  0.0000)
  12 Pd     2.836893    0.000000    9.999999    ( 0.0000,  0.0000,  0.0000)
  13 Pd     4.255339    0.818940   12.316312    ( 0.0000,  0.0000,  0.0000)
  14 Pd     2.837300    1.638116   14.617798    ( 0.0000,  0.0000,  0.0000)
  15 Pd     5.674360   -0.000221   16.938702    ( 0.0000,  0.0000,  0.0000)
  16 Pd     1.418446    2.456821    9.999999    ( 0.0000,  0.0000,  0.0000)
  17 Pd     2.836893    3.275761   12.316312    ( 0.0000,  0.0000,  0.0000)
  18 Pd     1.417250    4.095392   14.618454    ( 0.0000,  0.0000,  0.0000)
  19 Pd     4.255339    2.456821   16.946466    ( 0.0000,  0.0000,  0.0000)
  20 Pd     0.000000    4.913642    9.999999    ( 0.0000,  0.0000,  0.0000)
  21 Pd     1.418446    5.732582   12.316312    ( 0.0000,  0.0000,  0.0000)
  22 Pd    -0.000000    6.550142   14.618454    ( 0.0000,  0.0000,  0.0000)
  23 Pd     2.836989    4.914250   16.938702    ( 0.0000,  0.0000,  0.0000)
  24 Pd     5.673785    0.000000    9.999999    ( 0.0000,  0.0000,  0.0000)
  25 Pd     7.092231    0.818940   12.316312    ( 0.0000,  0.0000,  0.0000)
  26 Pd     5.673378    1.638116   14.617798    ( 0.0000,  0.0000,  0.0000)
  27 Pd     8.510678    0.000000   16.935460    ( 0.0000,  0.0000,  0.0000)
  28 Pd     4.255339    2.456821    9.999999    ( 0.0000,  0.0000,  0.0000)
  29 Pd     5.673785    3.275761   12.316312    ( 0.0000,  0.0000,  0.0000)
  30 Pd     4.255339    4.094232   14.617798    ( 0.0000,  0.0000,  0.0000)
  31 Pd     7.092710    2.456434   16.938702    ( 0.0000,  0.0000,  0.0000)
  32 Pd     2.836893    4.913642    9.999999    ( 0.0000,  0.0000,  0.0000)
  33 Pd     4.255339    5.732582   12.316312    ( 0.0000,  0.0000,  0.0000)
  34 Pd     2.837360    6.551793   14.614319    ( 0.0000,  0.0000,  0.0000)
  35 Pd     5.673689    4.914250   16.938702    ( 0.0000,  0.0000,  0.0000)
  36 O      4.255339    4.094984   17.765547    ( 0.0000,  0.0000,  0.0000)

Unit cell:
           periodic     x           y           z      points  spacing
  1. axis:    yes    8.510678    0.000000    0.000000    40     0.1843
  2. axis:    yes   -4.255339    7.370463    0.000000    40     0.1843
  3. axis:    no     0.000000    0.000000   26.948937   148     0.1821

  Lengths:   8.510678   8.510678  26.948937
  Angles:   90.000000  90.000000 120.000000

Effective grid spacing dv^(1/3) = 0.1925

     iter     time        total  log10-change:
                         energy  eigst   dens
iter:   1 22:31:49 -5258.329548
iter:   2 22:32:26 -5353.620538  -0.08  -1.14
iter:   3 22:33:04 -5239.486615  -0.88  -0.99
iter:   4 22:33:41 -5234.675023  -0.86  -1.21
iter:   5 22:34:18 -5223.929473  -1.15  -1.28
iter:   6 22:34:55 -5227.874752  -1.02  -1.38
iter:   7 22:35:32 -5215.948244  -0.86  -1.47
iter:   8 22:36:09 -5216.001665  -1.55  -1.75
iter:   9 22:36:46 -5215.345426  -1.97  -1.81
iter:  10 22:37:23 -5214.068130  -1.76  -1.93
iter:  11 22:38:00 -5214.139624  -2.18  -2.06
iter:  12 22:38:37 -5214.555564  -2.56  -2.10
iter:  13 22:39:14 -5214.082510  -2.68  -2.10
iter:  14 22:39:51 -5214.108728  -2.79  -2.28
iter:  15 22:40:28 -5213.878322c -2.81  -2.35
iter:  16 22:41:05 -5213.855528c -3.40  -2.67
iter:  17 22:41:42 -5213.831746c -3.90  -2.73
iter:  18 22:42:19 -5213.824806c -4.10  -2.88
iter:  19 22:42:56 -5213.836710c -4.31  -3.03
iter:  20 22:43:33 -5213.821693c -4.03  -2.90
iter:  21 22:44:11 -5213.820935c -4.68  -3.27
iter:  22 22:44:48 -5213.820756c -5.05  -3.37
iter:  23 22:45:25 -5213.822319c -4.84  -3.46
iter:  24 22:46:02 -5213.821377c -5.45  -3.61
iter:  25 22:46:39 -5213.821150c -5.31  -3.76
iter:  26 22:47:16 -5213.821126c -5.95  -3.73
iter:  27 22:47:53 -5213.821018c -6.28  -3.92
iter:  28 22:48:30 -5213.821054c -5.78  -3.89
iter:  29 22:49:07 -5213.821128c -6.16  -4.09c
iter:  30 22:49:44 -5213.821162c -6.59  -4.15c
iter:  31 22:50:21 -5213.821076c -6.86  -4.19c
iter:  32 22:50:58 -5213.821054c -6.86  -4.31c
iter:  33 22:51:35 -5213.821064c -7.42c -4.51c

Converged after 33 iterations.

Dipole moment: (-4.138345, -7.479752, 0.005460) |e|*Ang

Energy contributions relative to reference atoms: (reference = -4942230.518152)

Kinetic:       +837.335186
Potential:     -928.871740
External:        +0.000000
XC:            -5111.145610
Entropy (-ST):   -2.391624
Local:           -9.943087
--------------------------
Free energy:   -5215.016876
Extrapolated:  -5213.821064

Showing only first 2 kpts
 Kpt  Band  Eigenvalues  Occupancy
  0   289     -5.44331    1.36796
  0   290     -5.40512    1.19266
  0   291     -5.39696    1.15307
  0   292     -5.38058    1.07228

  1   289     -5.52051    1.64812
  1   290     -5.51303    1.62590
  1   291     -5.50060    1.58662
  1   292     -5.47592    1.49984


Fermi level: -5.36610

No gap

Forces in eV/Ang:
  0 Pd    0.00000   -0.01165   -0.01262
  1 Pd   -0.02675    0.00713   -0.02442
  2 Pd    0.00000    0.00231   -0.03021
  3 Pd    0.06741   -0.02998   -0.02327
  4 Pd   -0.01071    0.00337   -0.03987
  5 Pd    0.00000   -0.01430   -0.03532
  6 Pd    0.06047    0.01026   -0.01520
  7 Pd   -0.22182   -0.13171   -0.03327
  8 Pd   -0.00590    0.00093   -0.03517
  9 Pd    0.00831   -0.00728    0.03721
 10 Pd    0.04460    0.04415   -0.00483
 11 Pd    0.00000    0.07114   -0.02863
 12 Pd   -0.00632    0.00257   -0.03003
 13 Pd    0.00000    0.00371    0.05145
 14 Pd   -0.02017   -0.05444   -0.01736
 15 Pd   -0.06741   -0.02998   -0.02327
 16 Pd    0.01071    0.00337   -0.03987
 17 Pd   -0.00050   -0.00356    0.02552
 18 Pd   -0.06047    0.01026   -0.01520
 19 Pd    0.00000   -3.31763   -1.11166
 20 Pd    0.00000   -0.00314   -0.05522
 21 Pd   -0.00831   -0.00728    0.03721
 22 Pd    0.00000    0.00170   -0.01981
 23 Pd   -2.81039    1.62203   -1.09514
 24 Pd    0.00632    0.00257   -0.03003
 25 Pd    0.02675    0.00713   -0.02442
 26 Pd    0.02017   -0.05444   -0.01736
 27 Pd    0.00000    0.26387   -0.02867
 28 Pd    0.00000    0.00395   -0.06020
 29 Pd    0.00050   -0.00356    0.02552
 30 Pd    0.00000   -0.00037   -0.56343
 31 Pd    0.22182   -0.13171   -0.03327
 32 Pd    0.00590    0.00093   -0.03517
 33 Pd    0.00000    0.01225    0.02142
 34 Pd   -0.04460    0.04415   -0.00483
 35 Pd    2.81039    1.62203   -1.09514
 36 O     0.00000    0.05991    4.45550

      Step     Time          Energy         fmax
BFGS:    0 22:51:55    -5213.821064        4.4559
System changes: positions 

Initializing position-dependent things.

Density initialized from wave functions
                                                
                                                
                                                
                                                
                                                
                           O                    
                 Pd     Pd     Pd               
                   Pd     Pd     Pd             
           Pd     Pd     Pd                     
             Pd     PPd    PPd     Pd           
                                                
              PPd    PPd    PPd                 
                                                
                Pd     Pd     Pd                
                  Pd     Pd     Pd              
          Pd     Pd     Pd                      
            Pd     Pd     Pd                    
              Pd     Pd     Pd                  
                                                
                                                
                                                
                                                

Positions:
   0 Pd     0.000000    0.000000    9.999999    ( 0.0000,  0.0000,  0.0000)
   1 Pd     1.418446    0.818940   12.316312    ( 0.0000,  0.0000,  0.0000)
   2 Pd    -0.000000    1.637374   14.613887    ( 0.0000,  0.0000,  0.0000)
   3 Pd     2.837281   -0.000649   16.938369    ( 0.0000,  0.0000,  0.0000)
   4 Pd    -1.418446    2.456821    9.999999    ( 0.0000,  0.0000,  0.0000)
   5 Pd    -0.000000    3.275761   12.316312    ( 0.0000,  0.0000,  0.0000)
   6 Pd    -1.416387    4.095539   14.618237    ( 0.0000,  0.0000,  0.0000)
   7 Pd     1.414799    2.454552   16.938226    ( 0.0000,  0.0000,  0.0000)
   8 Pd    -2.836893    4.913642    9.999999    ( 0.0000,  0.0000,  0.0000)
   9 Pd    -1.418446    5.732582   12.316312    ( 0.0000,  0.0000,  0.0000)
  10 Pd    -2.836723    6.552423   14.614250    ( 0.0000,  0.0000,  0.0000)
  11 Pd    -0.000000    4.914658   16.946507    ( 0.0000,  0.0000,  0.0000)
  12 Pd     2.836893    0.000000    9.999999    ( 0.0000,  0.0000,  0.0000)
  13 Pd     4.255339    0.818940   12.316312    ( 0.0000,  0.0000,  0.0000)
  14 Pd     2.837012    1.637338   14.617550    ( 0.0000,  0.0000,  0.0000)
  15 Pd     5.673397   -0.000649   16.938369    ( 0.0000,  0.0000,  0.0000)
  16 Pd     1.418446    2.456821    9.999999    ( 0.0000,  0.0000,  0.0000)
  17 Pd     2.836893    3.275761   12.316312    ( 0.0000,  0.0000,  0.0000)
  18 Pd     1.416387    4.095539   14.618237    ( 0.0000,  0.0000,  0.0000)
  19 Pd     4.255339    2.409426   16.930585    ( 0.0000,  0.0000,  0.0000)
  20 Pd     0.000000    4.913642    9.999999    ( 0.0000,  0.0000,  0.0000)
  21 Pd     1.418446    5.732582   12.316312    ( 0.0000,  0.0000,  0.0000)
  22 Pd    -0.000000    6.550166   14.618172    ( 0.0000,  0.0000,  0.0000)
  23 Pd     2.796840    4.937422   16.923057    ( 0.0000,  0.0000,  0.0000)
  24 Pd     5.673785    0.000000    9.999999    ( 0.0000,  0.0000,  0.0000)
  25 Pd     7.092231    0.818940   12.316312    ( 0.0000,  0.0000,  0.0000)
  26 Pd     5.673666    1.637338   14.617550    ( 0.0000,  0.0000,  0.0000)
  27 Pd     8.510678    0.003770   16.935050    ( 0.0000,  0.0000,  0.0000)
  28 Pd     4.255339    2.456821    9.999999    ( 0.0000,  0.0000,  0.0000)
  29 Pd     5.673785    3.275761   12.316312    ( 0.0000,  0.0000,  0.0000)
  30 Pd     4.255339    4.094226   14.609749    ( 0.0000,  0.0000,  0.0000)
  31 Pd     7.095878    2.454552   16.938226    ( 0.0000,  0.0000,  0.0000)
  32 Pd     2.836893    4.913642    9.999999    ( 0.0000,  0.0000,  0.0000)
  33 Pd     4.255339    5.732582   12.316312    ( 0.0000,  0.0000,  0.0000)
  34 Pd     2.836723    6.552423   14.614250    ( 0.0000,  0.0000,  0.0000)
  35 Pd     5.713837    4.937422   16.923057    ( 0.0000,  0.0000,  0.0000)
  36 O      4.255339    4.095840   17.829198    ( 0.0000,  0.0000,  0.0000)

Unit cell:
           periodic     x           y           z      points  spacing
  1. axis:    yes    8.510678    0.000000    0.000000    40     0.1843
  2. axis:    yes   -4.255339    7.370463    0.000000    40     0.1843
  3. axis:    no     0.000000    0.000000   26.948937   148     0.1821

  Lengths:   8.510678   8.510678  26.948937
  Angles:   90.000000  90.000000 120.000000

Effective grid spacing dv^(1/3) = 0.1925

     iter     time        total  log10-change:
                         energy  eigst   dens
iter:   1 22:53:24 -5216.140192  -1.35
iter:   2 22:54:02 -5224.392877  -1.73  -2.21
iter:   3 22:54:40 -5219.184264  -1.73  -1.76
iter:   4 22:55:18 -5216.715367  -2.06  -1.87
iter:   5 22:55:56 -5215.007212  -2.77  -2.08
iter:   6 22:56:34 -5214.486997  -2.82  -2.46
iter:   7 22:57:12 -5214.419982  -3.22  -2.78
iter:   8 22:57:49 -5214.394584c -3.38  -2.92
iter:   9 22:58:27 -5214.402056c -3.88  -3.04
iter:  10 22:59:05 -5214.425401c -3.69  -2.99
iter:  11 22:59:43 -5214.386125c -4.24  -2.84
iter:  12 23:00:21 -5214.382300c -4.76  -3.34
iter:  13 23:00:59 -5214.380913c -4.49  -3.40
iter:  14 23:01:37 -5214.380322c -4.89  -3.59
iter:  15 23:02:14 -5214.380163c -5.14  -3.59
iter:  16 23:02:52 -5214.380862c -5.08  -3.92
iter:  17 23:03:30 -5214.379914c -5.64  -3.71
iter:  18 23:04:08 -5214.379997c -6.07  -3.88
iter:  19 23:04:46 -5214.379835c -5.83  -3.99
iter:  20 23:05:24 -5214.379960c -6.03  -4.18c
iter:  21 23:06:01 -5214.379935c -6.42  -4.32c
iter:  22 23:06:39 -5214.379891c -6.69  -4.30c
iter:  23 23:07:17 -5214.379915c -6.79  -4.45c
iter:  24 23:07:55 -5214.379786c -6.85  -4.49c
iter:  25 23:08:33 -5214.379808c -6.92  -4.41c
iter:  26 23:09:11 -5214.379802c -7.49c -4.67c

Converged after 26 iterations.

Dipole moment: (-6.446131, -7.584598, -0.044187) |e|*Ang

Energy contributions relative to reference atoms: (reference = -4942230.518152)

Kinetic:       +826.069298
Potential:     -919.547201
External:        +0.000000
XC:            -5109.778196
Entropy (-ST):   -2.430499
Local:           -9.908454
--------------------------
Free energy:   -5215.595052
Extrapolated:  -5214.379802

Showing only first 2 kpts
 Kpt  Band  Eigenvalues  Occupancy
  0   289     -5.49317    1.38816
  0   290     -5.44911    1.18711
  0   291     -5.44233    1.15422
  0   292     -5.42664    1.07683

  1   289     -5.56620    1.64971
  1   290     -5.55674    1.62153
  1   291     -5.54368    1.57980
  1   292     -5.52045    1.49755


Fermi level: -5.41124

No gap

Forces in eV/Ang:
  0 Pd    0.00000   -0.01294   -0.00827
  1 Pd   -0.02817    0.00779   -0.01548
  2 Pd    0.00000    0.00197   -0.03393
  3 Pd    0.04480   -0.01775   -0.01278
  4 Pd   -0.01173    0.00383   -0.03566
  5 Pd    0.00000   -0.01569   -0.02654
  6 Pd    0.06359   -0.00834   -0.05849
  7 Pd   -0.17029   -0.10227   -0.03031
  8 Pd   -0.00436    0.00193   -0.03578
  9 Pd    0.00724   -0.00769    0.03417
 10 Pd    0.02871    0.05591   -0.04933
 11 Pd    0.00000    0.04560   -0.01771
 12 Pd   -0.00306    0.00075   -0.03048
 13 Pd    0.00000    0.00493    0.04831
 14 Pd   -0.03828   -0.04793   -0.06129
 15 Pd   -0.04480   -0.01775   -0.01278
 16 Pd    0.01173    0.00383   -0.03566
 17 Pd   -0.00552   -0.00637    0.01648
 18 Pd   -0.06359   -0.00834   -0.05849
 19 Pd    0.00000   -1.45502   -0.40889
 20 Pd    0.00000    0.00069   -0.05581
 21 Pd   -0.00724   -0.00769    0.03417
 22 Pd    0.00000    0.00139   -0.03937
 23 Pd   -1.20372    0.71715   -0.40084
 24 Pd    0.00306    0.00075   -0.03048
 25 Pd    0.02817    0.00779   -0.01548
 26 Pd    0.03828   -0.04793   -0.06129
 27 Pd    0.00000    0.19835   -0.02576
 28 Pd    0.00000    0.00232   -0.06087
 29 Pd    0.00552   -0.00637    0.01648
 30 Pd    0.00000    0.00271   -0.35927
 31 Pd    0.17029   -0.10227   -0.03031
 32 Pd    0.00436    0.00193   -0.03578
 33 Pd    0.00000    0.01851    0.01275
 34 Pd   -0.02871    0.05591   -0.04933
 35 Pd    1.20372    0.71715   -0.40084
 36 O     0.00000    0.02278    2.35603

BFGS:    1 23:09:30    -5214.379802        2.3561
System changes: positions 

Initializing position-dependent things.

Density initialized from wave functions
                                                
                                                
                                                
                                                
                                                
                           O                    
                 Pd     Pd     Pd               
                   Pd     Pd     Pd             
           Pd     Pd     Pd                     
             Pd     PPd    PPd     Pd           
                                                
              PPd    PPd    PPd                 
                                                
                Pd     Pd     Pd                
                  Pd     Pd     Pd              
          Pd     Pd     Pd                      
            Pd     Pd     Pd                    
              Pd     Pd     Pd                  
                                                
                                                
                                                
                                                

Positions:
   0 Pd     0.000000    0.000000    9.999999    ( 0.0000,  0.0000,  0.0000)
   1 Pd     1.418446    0.818940   12.316312    ( 0.0000,  0.0000,  0.0000)
   2 Pd    -0.000000    1.637427   14.612974    ( 0.0000,  0.0000,  0.0000)
   3 Pd     2.838492   -0.001129   16.938023    ( 0.0000,  0.0000,  0.0000)
   4 Pd    -1.418446    2.456821    9.999999    ( 0.0000,  0.0000,  0.0000)
   5 Pd    -0.000000    3.275761   12.316312    ( 0.0000,  0.0000,  0.0000)
   6 Pd    -1.414675    4.095317   14.616670    ( 0.0000,  0.0000,  0.0000)
   7 Pd     1.410204    2.451793   16.937410    ( 0.0000,  0.0000,  0.0000)
   8 Pd    -2.836893    4.913642    9.999999    ( 0.0000,  0.0000,  0.0000)
   9 Pd    -1.418446    5.732582   12.316312    ( 0.0000,  0.0000,  0.0000)
  10 Pd    -2.835947    6.553927   14.612929    ( 0.0000,  0.0000,  0.0000)
  11 Pd    -0.000000    4.915891   16.946028    ( 0.0000,  0.0000,  0.0000)
  12 Pd     2.836893    0.000000    9.999999    ( 0.0000,  0.0000,  0.0000)
  13 Pd     4.255339    0.818940   12.316312    ( 0.0000,  0.0000,  0.0000)
  14 Pd     2.835984    1.636046   14.615908    ( 0.0000,  0.0000,  0.0000)
  15 Pd     5.672186   -0.001129   16.938023    ( 0.0000,  0.0000,  0.0000)
  16 Pd     1.418446    2.456821    9.999999    ( 0.0000,  0.0000,  0.0000)
  17 Pd     2.836893    3.275761   12.316312    ( 0.0000,  0.0000,  0.0000)
  18 Pd     1.414675    4.095317   14.616670    ( 0.0000,  0.0000,  0.0000)
  19 Pd     4.255339    2.369908   16.919448    ( 0.0000,  0.0000,  0.0000)
  20 Pd     0.000000    4.913642    9.999999    ( 0.0000,  0.0000,  0.0000)
  21 Pd     1.418446    5.732582   12.316312    ( 0.0000,  0.0000,  0.0000)
  22 Pd    -0.000000    6.550204   14.617115    ( 0.0000,  0.0000,  0.0000)
  23 Pd     2.764136    4.956897   16.912137    ( 0.0000,  0.0000,  0.0000)
  24 Pd     5.673785    0.000000    9.999999    ( 0.0000,  0.0000,  0.0000)
  25 Pd     7.092231    0.818940   12.316312    ( 0.0000,  0.0000,  0.0000)
  26 Pd     5.674694    1.636046   14.615908    ( 0.0000,  0.0000,  0.0000)
  27 Pd     8.510678    0.009123   16.934356    ( 0.0000,  0.0000,  0.0000)
  28 Pd     4.255339    2.456821    9.999999    ( 0.0000,  0.0000,  0.0000)
  29 Pd     5.673785    3.275761   12.316312    ( 0.0000,  0.0000,  0.0000)
  30 Pd     4.255339    4.094299   14.600037    ( 0.0000,  0.0000,  0.0000)
  31 Pd     7.100474    2.451793   16.937410    ( 0.0000,  0.0000,  0.0000)
  32 Pd     2.836893    4.913642    9.999999    ( 0.0000,  0.0000,  0.0000)
  33 Pd     4.255339    5.732582   12.316312    ( 0.0000,  0.0000,  0.0000)
  34 Pd     2.835947    6.553927   14.612929    ( 0.0000,  0.0000,  0.0000)
  35 Pd     5.746542    4.956897   16.912137    ( 0.0000,  0.0000,  0.0000)
  36 O      4.255339    4.096460   17.893023    ( 0.0000,  0.0000,  0.0000)

Unit cell:
           periodic     x           y           z      points  spacing
  1. axis:    yes    8.510678    0.000000    0.000000    40     0.1843
  2. axis:    yes   -4.255339    7.370463    0.000000    40     0.1843
  3. axis:    no     0.000000    0.000000   26.948937   148     0.1821

  Lengths:   8.510678   8.510678  26.948937
  Angles:   90.000000  90.000000 120.000000

Effective grid spacing dv^(1/3) = 0.1925

     iter     time        total  log10-change:
                         energy  eigst   dens
iter:   1 23:10:59 -5215.911942  -1.51
iter:   2 23:11:36 -5222.400498  -1.86  -2.26
iter:   3 23:12:14 -5219.901290  -1.78  -1.80
iter:   4 23:12:52 -5216.139559  -2.25  -1.85
iter:   5 23:13:29 -5215.067686  -2.85  -2.14
iter:   6 23:14:07 -5214.646767  -2.96  -2.53
iter:   7 23:14:45 -5214.597194  -3.28  -2.84
iter:   8 23:15:22 -5214.587583c -3.61  -2.99
iter:   9 23:16:00 -5214.593558c -3.98  -3.08
iter:  10 23:16:38 -5214.592029c -3.68  -3.05
iter:  11 23:17:15 -5214.576610c -4.28  -3.03
iter:  12 23:17:53 -5214.573002c -4.59  -3.43
iter:  13 23:18:31 -5214.573269c -5.20  -3.61
iter:  14 23:19:08 -5214.573131c -5.43  -3.62
iter:  15 23:19:46 -5214.572487c -5.34  -3.71
iter:  16 23:20:24 -5214.577972c -5.22  -3.73
iter:  17 23:21:02 -5214.572381c -5.15  -3.34
iter:  18 23:21:39 -5214.572367c -5.55  -3.81
iter:  19 23:22:17 -5214.572471c -5.87  -3.95
iter:  20 23:22:54 -5214.572661c -6.11  -4.00c
iter:  21 23:23:32 -5214.572636c -6.47  -4.17c
iter:  22 23:24:10 -5214.572463c -6.83  -4.38c
iter:  23 23:24:47 -5214.572569c -6.64  -4.39c
iter:  24 23:25:25 -5214.572422c -6.83  -4.41c
iter:  25 23:26:03 -5214.572372c -6.99  -4.58c
iter:  26 23:26:40 -5214.572363c -7.00  -4.66c
iter:  27 23:27:18 -5214.572415c -7.54c -4.72c

Converged after 27 iterations.

Dipole moment: (-8.260301, -7.723898, -0.090025) |e|*Ang

Energy contributions relative to reference atoms: (reference = -4942230.518152)

Kinetic:       +818.850170
Potential:     -913.507634
External:        +0.000000
XC:            -5108.791950
Entropy (-ST):   -2.462320
Local:           -9.891841
--------------------------
Free energy:   -5215.803575
Extrapolated:  -5214.572415

Showing only first 2 kpts
 Kpt  Band  Eigenvalues  Occupancy
  0   289     -5.53454    1.39384
  0   290     -5.48898    1.18635
  0   291     -5.48258    1.15529
  0   292     -5.46760    1.08144

  1   289     -5.60691    1.65166
  1   290     -5.59603    1.61926
  1   291     -5.58147    1.57236
  1   292     -5.56061    1.49802


Fermi level: -5.45127

No gap

Forces in eV/Ang:
  0 Pd    0.00000   -0.01375   -0.00243
  1 Pd   -0.02955    0.00830   -0.01318
  2 Pd    0.00000    0.00167   -0.03321
  3 Pd    0.02905   -0.01114   -0.00605
  4 Pd   -0.01236    0.00414   -0.02991
  5 Pd    0.00000   -0.01703   -0.02465
  6 Pd    0.06109   -0.01624   -0.07725
  7 Pd   -0.11911   -0.07155   -0.02530
  8 Pd   -0.00319    0.00260   -0.03426
  9 Pd    0.00603   -0.00826    0.02812
 10 Pd    0.02024    0.05797   -0.07082
 11 Pd    0.00000    0.02858   -0.01027
 12 Pd   -0.00008   -0.00093   -0.02954
 13 Pd    0.00000    0.00625    0.04193
 14 Pd   -0.04447   -0.04276   -0.08319
 15 Pd   -0.02905   -0.01114   -0.00605
 16 Pd    0.01236    0.00414   -0.02991
 17 Pd   -0.00924   -0.00842    0.00103
 18 Pd   -0.06109   -0.01624   -0.07725
 19 Pd    0.00000   -0.22324    0.06488
 20 Pd    0.00000    0.00422   -0.05494
 21 Pd   -0.00603   -0.00826    0.02812
 22 Pd    0.00000    0.00148   -0.03718
 23 Pd   -0.21571    0.13621    0.08162
 24 Pd    0.00008   -0.00093   -0.02954
 25 Pd    0.02955    0.00830   -0.01318
 26 Pd    0.04447   -0.04276   -0.08319
 27 Pd    0.00000    0.13294   -0.01949
 28 Pd    0.00000    0.00120   -0.05931
 29 Pd    0.00924   -0.00842    0.00103
 30 Pd    0.00000    0.00133   -0.19145
 31 Pd    0.11911   -0.07155   -0.02530
 32 Pd    0.00319    0.00260   -0.03426
 33 Pd    0.00000    0.02352   -0.00224
 34 Pd   -0.02024    0.05797   -0.07082
 35 Pd    0.21571    0.13621    0.08162
 36 O     0.00000    0.04467    0.93986

BFGS:    2 23:27:38    -5214.572415        0.9409
System changes: positions 

Initializing position-dependent things.

Density initialized from wave functions
                                                
                                                
                                                
                                                
                                                
                           O                    
                 Pd     Pd     Pd               
                   Pd     Pd     Pd             
           Pd     Pd     Pd                     
             Pd     PPd    PPd     Pd           
                                                
              PPd    PPd    PPd                 
                                                
                Pd     Pd     Pd                
                  Pd     Pd     Pd              
          Pd     Pd     Pd                      
            Pd     Pd     Pd                    
              Pd     Pd     Pd                  
                                                
                                                
                                                
                                                

Positions:
   0 Pd     0.000000    0.000000    9.999999    ( 0.0000,  0.0000,  0.0000)
   1 Pd     1.418446    0.818940   12.316312    ( 0.0000,  0.0000,  0.0000)
   2 Pd    -0.000000    1.637470   14.612146    ( 0.0000,  0.0000,  0.0000)
   3 Pd     2.839301   -0.001443   16.937835    ( 0.0000,  0.0000,  0.0000)
   4 Pd    -1.418446    2.456821    9.999999    ( 0.0000,  0.0000,  0.0000)
   5 Pd    -0.000000    3.275761   12.316312    ( 0.0000,  0.0000,  0.0000)
   6 Pd    -1.413144    4.094959   14.614858    ( 0.0000,  0.0000,  0.0000)
   7 Pd     1.406964    2.449847   16.936754    ( 0.0000,  0.0000,  0.0000)
   8 Pd    -2.836893    4.913642    9.999999    ( 0.0000,  0.0000,  0.0000)
   9 Pd    -1.418446    5.732582   12.316312    ( 0.0000,  0.0000,  0.0000)
  10 Pd    -2.835396    6.555354   14.611292    ( 0.0000,  0.0000,  0.0000)
  11 Pd    -0.000000    4.916696   16.945731    ( 0.0000,  0.0000,  0.0000)
  12 Pd     2.836893    0.000000    9.999999    ( 0.0000,  0.0000,  0.0000)
  13 Pd     4.255339    0.818940   12.316312    ( 0.0000,  0.0000,  0.0000)
  14 Pd     2.834916    1.634955   14.613965    ( 0.0000,  0.0000,  0.0000)
  15 Pd     5.671376   -0.001443   16.937835    ( 0.0000,  0.0000,  0.0000)
  16 Pd     1.418446    2.456821    9.999999    ( 0.0000,  0.0000,  0.0000)
  17 Pd     2.836893    3.275761   12.316312    ( 0.0000,  0.0000,  0.0000)
  18 Pd     1.413144    4.094959   14.614858    ( 0.0000,  0.0000,  0.0000)
  19 Pd     4.255339    2.357486   16.918419    ( 0.0000,  0.0000,  0.0000)
  20 Pd     0.000000    4.913642    9.999999    ( 0.0000,  0.0000,  0.0000)
  21 Pd     1.418446    5.732582   12.316312    ( 0.0000,  0.0000,  0.0000)
  22 Pd    -0.000000    6.550240   14.616184    ( 0.0000,  0.0000,  0.0000)
  23 Pd     2.753235    4.963530   16.911482    ( 0.0000,  0.0000,  0.0000)
  24 Pd     5.673785    0.000000    9.999999    ( 0.0000,  0.0000,  0.0000)
  25 Pd     7.092231    0.818940   12.316312    ( 0.0000,  0.0000,  0.0000)
  26 Pd     5.675762    1.634955   14.613965    ( 0.0000,  0.0000,  0.0000)
  27 Pd     8.510678    0.012784   16.933838    ( 0.0000,  0.0000,  0.0000)
  28 Pd     4.255339    2.456821    9.999999    ( 0.0000,  0.0000,  0.0000)
  29 Pd     5.673785    3.275761   12.316312    ( 0.0000,  0.0000,  0.0000)
  30 Pd     4.255339    4.094338   14.594354    ( 0.0000,  0.0000,  0.0000)
  31 Pd     7.103713    2.449847   16.936754    ( 0.0000,  0.0000,  0.0000)
  32 Pd     2.836893    4.913642    9.999999    ( 0.0000,  0.0000,  0.0000)
  33 Pd     4.255339    5.732582   12.316312    ( 0.0000,  0.0000,  0.0000)
  34 Pd     2.835396    6.555354   14.611292    ( 0.0000,  0.0000,  0.0000)
  35 Pd     5.757442    4.963530   16.911482    ( 0.0000,  0.0000,  0.0000)
  36 O      4.255339    4.097464   17.924272    ( 0.0000,  0.0000,  0.0000)

Unit cell:
           periodic     x           y           z      points  spacing
  1. axis:    yes    8.510678    0.000000    0.000000    40     0.1843
  2. axis:    yes   -4.255339    7.370463    0.000000    40     0.1843
  3. axis:    no     0.000000    0.000000   26.948937   148     0.1821

  Lengths:   8.510678   8.510678  26.948937
  Angles:   90.000000  90.000000 120.000000

Effective grid spacing dv^(1/3) = 0.1925

     iter     time        total  log10-change:
                         energy  eigst   dens
iter:   1 23:29:07 -5215.078196  -2.33
iter:   2 23:29:45 -5222.152062  -2.02  -2.36
iter:   3 23:30:23 -5215.132751  -2.24  -1.81
iter:   4 23:31:01 -5214.716899  -3.40  -2.31
iter:   5 23:31:38 -5214.625647  -3.97  -2.74
iter:   6 23:32:16 -5214.606318c -4.25  -3.10
iter:   7 23:32:54 -5214.598258c -4.39  -3.23
iter:   8 23:33:32 -5214.597038c -4.22  -3.40
iter:   9 23:34:10 -5214.596086c -4.71  -3.59
iter:  10 23:34:48 -5214.595527c -5.07  -3.72
iter:  11 23:35:26 -5214.594751c -5.48  -3.73
iter:  12 23:36:04 -5214.594893c -5.94  -3.90
iter:  13 23:36:42 -5214.594454c -5.80  -3.94
iter:  14 23:37:20 -5214.594486c -5.89  -4.19c
iter:  15 23:37:58 -5214.594466c -6.31  -4.04c
iter:  16 23:38:36 -5214.594560c -6.57  -4.24c
iter:  17 23:39:14 -5214.594542c -6.59  -4.29c
iter:  18 23:39:52 -5214.594599c -6.70  -4.46c
iter:  19 23:40:30 -5214.594540c -7.25  -4.80c
iter:  20 23:41:07 -5214.594614c -7.30  -4.69c
iter:  21 23:41:45 -5214.594586c -7.72c -4.72c

Converged after 21 iterations.

Dipole moment: (-8.883157, -7.808021, -0.108183) |e|*Ang

Energy contributions relative to reference atoms: (reference = -4942230.518152)

Kinetic:       +816.659111
Potential:     -911.675688
External:        +0.000000
XC:            -5108.449729
Entropy (-ST):   -2.473337
Local:           -9.891612
--------------------------
Free energy:   -5215.831255
Extrapolated:  -5214.594586

Showing only first 2 kpts
 Kpt  Band  Eigenvalues  Occupancy
  0   289     -5.54950    1.39328
  0   290     -5.50430    1.18746
  0   291     -5.49769    1.15538
  0   292     -5.48304    1.08319

  1   289     -5.62226    1.65242
  1   290     -5.61080    1.61827
  1   291     -5.59543    1.56854
  1   292     -5.57632    1.50036


Fermi level: -5.46636

No gap

Forces in eV/Ang:
  0 Pd    0.00000   -0.01387    0.00332
  1 Pd   -0.03202    0.00940   -0.02230
  2 Pd    0.00000    0.00130   -0.03353
  3 Pd    0.02150   -0.00591   -0.01224
  4 Pd   -0.01240    0.00414   -0.02422
  5 Pd    0.00000   -0.01965   -0.03397
  6 Pd    0.04675   -0.01445   -0.06600
  7 Pd   -0.09098   -0.05465   -0.03164
  8 Pd   -0.00266    0.00294   -0.03063
  9 Pd    0.00540   -0.00855    0.01860
 10 Pd    0.01492    0.04500   -0.06162
 11 Pd    0.00000    0.01947   -0.01596
 12 Pd    0.00109   -0.00160   -0.02596
 13 Pd    0.00000    0.00682    0.03199
 14 Pd   -0.03582   -0.03227   -0.07415
 15 Pd   -0.02150   -0.00591   -0.01224
 16 Pd    0.01240    0.00414   -0.02422
 17 Pd   -0.01167   -0.00963   -0.01222
 18 Pd   -0.04675   -0.01445   -0.06600
 19 Pd    0.00000    0.12804    0.19217
 20 Pd    0.00000    0.00562   -0.05138
 21 Pd   -0.00540   -0.00855    0.01860
 22 Pd    0.00000    0.00176   -0.03117
 23 Pd    0.09298   -0.04665    0.22025
 24 Pd   -0.00109   -0.00160   -0.02596
 25 Pd    0.03202    0.00940   -0.02230
 26 Pd    0.03582   -0.03227   -0.07415
 27 Pd    0.00000    0.09601   -0.02459
 28 Pd    0.00000    0.00064   -0.05567
 29 Pd    0.01167   -0.00963   -0.01222
 30 Pd    0.00000   -0.00059   -0.11528
 31 Pd    0.09098   -0.05465   -0.03164
 32 Pd    0.00266    0.00294   -0.03063
 33 Pd    0.00000    0.02661   -0.01479
 34 Pd   -0.01492    0.04500   -0.06162
 35 Pd   -0.09298   -0.04665    0.22025
 36 O     0.00000   -0.01486    0.40855

BFGS:    3 23:42:05    -5214.594586        0.4088
System changes: positions 

Initializing position-dependent things.

Density initialized from wave functions
                                                
                                                
                                                
                                                
                                                
                           O                    
                 Pd     Pd     Pd               
                   Pd     Pd     Pd             
           Pd     Pd     Pd                     
             Pd     PPd    PPd     Pd           
                                                
              PPd    PPd    PPd                 
                                                
                Pd     Pd     Pd                
                  Pd     Pd     Pd              
          Pd     Pd     Pd                      
            Pd     Pd     Pd                    
              Pd     Pd     Pd                  
                                                
                                                
                                                
                                                

Positions:
   0 Pd     0.000000    0.000000    9.999999    ( 0.0000,  0.0000,  0.0000)
   1 Pd     1.418446    0.818940   12.316312    ( 0.0000,  0.0000,  0.0000)
   2 Pd    -0.000000    1.637506   14.611289    ( 0.0000,  0.0000,  0.0000)
   3 Pd     2.839938   -0.001644   16.937544    ( 0.0000,  0.0000,  0.0000)
   4 Pd    -1.418446    2.456821    9.999999    ( 0.0000,  0.0000,  0.0000)
   5 Pd    -0.000000    3.275761   12.316312    ( 0.0000,  0.0000,  0.0000)
   6 Pd    -1.411854    4.094600   14.613150    ( 0.0000,  0.0000,  0.0000)
   7 Pd     1.404337    2.448269   16.935972    ( 0.0000,  0.0000,  0.0000)
   8 Pd    -2.836893    4.913642    9.999999    ( 0.0000,  0.0000,  0.0000)
   9 Pd    -1.418446    5.732582   12.316312    ( 0.0000,  0.0000,  0.0000)
  10 Pd    -2.834959    6.556579   14.609715    ( 0.0000,  0.0000,  0.0000)
  11 Pd    -0.000000    4.917294   16.945339    ( 0.0000,  0.0000,  0.0000)
  12 Pd     2.836893    0.000000    9.999999    ( 0.0000,  0.0000,  0.0000)
  13 Pd     4.255339    0.818940   12.316312    ( 0.0000,  0.0000,  0.0000)
  14 Pd     2.833963    1.634051   14.612069    ( 0.0000,  0.0000,  0.0000)
  15 Pd     5.670740   -0.001644   16.937544    ( 0.0000,  0.0000,  0.0000)
  16 Pd     1.418446    2.456821    9.999999    ( 0.0000,  0.0000,  0.0000)
  17 Pd     2.836893    3.275761   12.316312    ( 0.0000,  0.0000,  0.0000)
  18 Pd     1.411854    4.094600   14.613150    ( 0.0000,  0.0000,  0.0000)
  19 Pd     4.255339    2.355450   16.921345    ( 0.0000,  0.0000,  0.0000)
  20 Pd     0.000000    4.913642    9.999999    ( 0.0000,  0.0000,  0.0000)
  21 Pd     1.418446    5.732582   12.316312    ( 0.0000,  0.0000,  0.0000)
  22 Pd    -0.000000    6.550283   14.615349    ( 0.0000,  0.0000,  0.0000)
  23 Pd     2.751158    4.964955   16.915038    ( 0.0000,  0.0000,  0.0000)
  24 Pd     5.673785    0.000000    9.999999    ( 0.0000,  0.0000,  0.0000)
  25 Pd     7.092231    0.818940   12.316312    ( 0.0000,  0.0000,  0.0000)
  26 Pd     5.676715    1.634051   14.612069    ( 0.0000,  0.0000,  0.0000)
  27 Pd     8.510678    0.015629   16.933227    ( 0.0000,  0.0000,  0.0000)
  28 Pd     4.255339    2.456821    9.999999    ( 0.0000,  0.0000,  0.0000)
  29 Pd     5.673785    3.275761   12.316312    ( 0.0000,  0.0000,  0.0000)
  30 Pd     4.255339    4.094337   14.590516    ( 0.0000,  0.0000,  0.0000)
  31 Pd     7.106340    2.448269   16.935972    ( 0.0000,  0.0000,  0.0000)
  32 Pd     2.836893    4.913642    9.999999    ( 0.0000,  0.0000,  0.0000)
  33 Pd     4.255339    5.732582   12.316312    ( 0.0000,  0.0000,  0.0000)
  34 Pd     2.834959    6.556579   14.609715    ( 0.0000,  0.0000,  0.0000)
  35 Pd     5.759519    4.964955   16.915038    ( 0.0000,  0.0000,  0.0000)
  36 O      4.255339    4.097417   17.941619    ( 0.0000,  0.0000,  0.0000)

Unit cell:
           periodic     x           y           z      points  spacing
  1. axis:    yes    8.510678    0.000000    0.000000    40     0.1843
  2. axis:    yes   -4.255339    7.370463    0.000000    40     0.1843
  3. axis:    no     0.000000    0.000000   26.948937   148     0.1821

  Lengths:   8.510678   8.510678  26.948937
  Angles:   90.000000  90.000000 120.000000

Effective grid spacing dv^(1/3) = 0.1925

     iter     time        total  log10-change:
                         energy  eigst   dens
iter:   1 23:43:34 -5214.743156  -2.98
iter:   2 23:44:11 -5217.555037  -2.51  -2.59
iter:   3 23:44:49 -5214.810280  -2.70  -1.98
iter:   4 23:45:27 -5214.636637  -3.90  -2.49
iter:   5 23:46:05 -5214.608621c -4.60  -2.97
iter:   6 23:46:43 -5214.604297c -4.86  -3.44
iter:   7 23:47:21 -5214.603199c -5.18  -3.69
iter:   8 23:47:58 -5214.602819c -5.09  -3.73
iter:   9 23:48:36 -5214.602597c -5.21  -4.05c
iter:  10 23:49:14 -5214.602553c -5.76  -4.12c
iter:  11 23:49:52 -5214.602451c -6.24  -4.19c
iter:  12 23:50:30 -5214.602317c -6.45  -4.28c
iter:  13 23:51:07 -5214.602400c -7.03  -4.25c
iter:  14 23:51:45 -5214.602236c -6.90  -4.49c
iter:  15 23:52:23 -5214.602261c -7.04  -4.38c
iter:  16 23:53:01 -5214.602349c -7.13  -4.55c
iter:  17 23:53:39 -5214.602398c -7.38  -4.78c
iter:  18 23:54:16 -5214.602343c -7.64c -4.80c

Converged after 18 iterations.

Dipole moment: (-9.063041, -7.873335, -0.116403) |e|*Ang

Energy contributions relative to reference atoms: (reference = -4942230.518152)

Kinetic:       +815.481798
Potential:     -910.674634
External:        +0.000000
XC:            -5108.280492
Entropy (-ST):   -2.476740
Local:           -9.890644
--------------------------
Free energy:   -5215.840713
Extrapolated:  -5214.602343

Showing only first 2 kpts
 Kpt  Band  Eigenvalues  Occupancy
  0   289     -5.55674    1.39279
  0   290     -5.51177    1.18802
  0   291     -5.50501    1.15519
  0   292     -5.49038    1.08313

  1   289     -5.62959    1.65234
  1   290     -5.61791    1.61749
  1   291     -5.60226    1.56673
  1   292     -5.58434    1.50285


Fermi level: -5.47372

No gap

Forces in eV/Ang:
  0 Pd    0.00000   -0.01391    0.00193
  1 Pd   -0.03353    0.01001   -0.02791
  2 Pd    0.00000    0.00094   -0.03751
  3 Pd    0.01698   -0.00268   -0.00994
  4 Pd   -0.01246    0.00417   -0.02560
  5 Pd    0.00000   -0.02123   -0.03956
  6 Pd    0.03032   -0.00816   -0.04737
  7 Pd   -0.07041   -0.04274   -0.02803
  8 Pd   -0.00256    0.00296   -0.03223
  9 Pd    0.00596   -0.00820    0.01574
 10 Pd    0.01262    0.02781   -0.04407
 11 Pd    0.00000    0.01427   -0.01378
 12 Pd    0.00154   -0.00184   -0.02792
 13 Pd    0.00000    0.00603    0.02856
 14 Pd   -0.02228   -0.02218   -0.05702
 15 Pd   -0.01698   -0.00268   -0.00994
 16 Pd    0.01246    0.00417   -0.02560
 17 Pd   -0.01383   -0.01068   -0.01905
 18 Pd   -0.03032   -0.00816   -0.04737
 19 Pd    0.00000    0.21908    0.21654
 20 Pd    0.00000    0.00617   -0.05339
 21 Pd   -0.00596   -0.00820    0.01574
 22 Pd    0.00000    0.00191   -0.02823
 23 Pd    0.17455   -0.09418    0.24481
 24 Pd   -0.00154   -0.00184   -0.02792
 25 Pd    0.03353    0.01001   -0.02791
 26 Pd    0.02228   -0.02218   -0.05702
 27 Pd    0.00000    0.06896   -0.01999
 28 Pd    0.00000    0.00058   -0.05723
 29 Pd    0.01383   -0.01068   -0.01905
 30 Pd    0.00000   -0.00148   -0.06897
 31 Pd    0.07041   -0.04274   -0.02803
 32 Pd    0.00256    0.00296   -0.03223
 33 Pd    0.00000    0.02923   -0.02085
 34 Pd   -0.01262    0.02781   -0.04407
 35 Pd   -0.17455   -0.09418    0.24481
 36 O     0.00000   -0.01412    0.29861

BFGS:    4 23:54:36    -5214.602343        0.3151
System changes: positions 

Initializing position-dependent things.

Density initialized from wave functions
                                                
                                                
                                                
                                                
                                                
                           O                    
                 Pd     Pd     Pd               
                   Pd     Pd     Pd             
           Pd     Pd     Pd                     
             Pd     PPd    PPd     Pd           
                                                
              PPd    PPd    PPd                 
                                                
                Pd     Pd     Pd                
                  Pd     Pd     Pd              
          Pd     Pd     Pd                      
            Pd     Pd     Pd                    
              Pd     Pd     Pd                  
                                                
                                                
                                                
                                                

Positions:
   0 Pd     0.000000    0.000000    9.999999    ( 0.0000,  0.0000,  0.0000)
   1 Pd     1.418446    0.818940   12.316312    ( 0.0000,  0.0000,  0.0000)
   2 Pd    -0.000000    1.637637   14.607512    ( 0.0000,  0.0000,  0.0000)
   3 Pd     2.842282   -0.002274   16.936438    ( 0.0000,  0.0000,  0.0000)
   4 Pd    -1.418446    2.456821    9.999999    ( 0.0000,  0.0000,  0.0000)
   5 Pd    -0.000000    3.275761   12.316312    ( 0.0000,  0.0000,  0.0000)
   6 Pd    -1.407390    4.093412   14.606984    ( 0.0000,  0.0000,  0.0000)
   7 Pd     1.394713    2.442467   16.932886    ( 0.0000,  0.0000,  0.0000)
   8 Pd    -2.836893    4.913642    9.999999    ( 0.0000,  0.0000,  0.0000)
   9 Pd    -1.418446    5.732582   12.316312    ( 0.0000,  0.0000,  0.0000)
  10 Pd    -2.833302    6.560750   14.604023    ( 0.0000,  0.0000,  0.0000)
  11 Pd    -0.000000    4.919431   16.943815    ( 0.0000,  0.0000,  0.0000)
  12 Pd     2.836893    0.000000    9.999999    ( 0.0000,  0.0000,  0.0000)
  13 Pd     4.255339    0.818940   12.316312    ( 0.0000,  0.0000,  0.0000)
  14 Pd     2.830708    1.630862   14.605025    ( 0.0000,  0.0000,  0.0000)
  15 Pd     5.668395   -0.002274   16.936438    ( 0.0000,  0.0000,  0.0000)
  16 Pd     1.418446    2.456821    9.999999    ( 0.0000,  0.0000,  0.0000)
  17 Pd     2.836893    3.275761   12.316312    ( 0.0000,  0.0000,  0.0000)
  18 Pd     1.407390    4.093412   14.606984    ( 0.0000,  0.0000,  0.0000)
  19 Pd     4.255339    2.356728   16.936721    ( 0.0000,  0.0000,  0.0000)
  20 Pd     0.000000    4.913642    9.999999    ( 0.0000,  0.0000,  0.0000)
  21 Pd     1.418446    5.732582   12.316312    ( 0.0000,  0.0000,  0.0000)
  22 Pd    -0.000000    6.550472   14.612050    ( 0.0000,  0.0000,  0.0000)
  23 Pd     2.750892    4.965980   16.933130    ( 0.0000,  0.0000,  0.0000)
  24 Pd     5.673785    0.000000    9.999999    ( 0.0000,  0.0000,  0.0000)
  25 Pd     7.092231    0.818940   12.316312    ( 0.0000,  0.0000,  0.0000)
  26 Pd     5.679969    1.630862   14.605025    ( 0.0000,  0.0000,  0.0000)
  27 Pd     8.510678    0.025748   16.930909    ( 0.0000,  0.0000,  0.0000)
  28 Pd     4.255339    2.456821    9.999999    ( 0.0000,  0.0000,  0.0000)
  29 Pd     5.673785    3.275761   12.316312    ( 0.0000,  0.0000,  0.0000)
  30 Pd     4.255339    4.094275   14.577713    ( 0.0000,  0.0000,  0.0000)
  31 Pd     7.115964    2.442467   16.932886    ( 0.0000,  0.0000,  0.0000)
  32 Pd     2.836893    4.913642    9.999999    ( 0.0000,  0.0000,  0.0000)
  33 Pd     4.255339    5.732582   12.316312    ( 0.0000,  0.0000,  0.0000)
  34 Pd     2.833302    6.560750   14.604023    ( 0.0000,  0.0000,  0.0000)
  35 Pd     5.759785    4.965980   16.933130    ( 0.0000,  0.0000,  0.0000)
  36 O      4.255339    4.097060   18.001903    ( 0.0000,  0.0000,  0.0000)

Unit cell:
           periodic     x           y           z      points  spacing
  1. axis:    yes    8.510678    0.000000    0.000000    40     0.1843
  2. axis:    yes   -4.255339    7.370463    0.000000    40     0.1843
  3. axis:    no     0.000000    0.000000   26.948937   148     0.1821

  Lengths:   8.510678   8.510678  26.948937
  Angles:   90.000000  90.000000 120.000000

Effective grid spacing dv^(1/3) = 0.1925

     iter     time        total  log10-change:
                         energy  eigst   dens
iter:   1 23:56:05 -5217.016490  -1.86
iter:   2 23:56:43 -5242.505335  -1.30  -1.99
iter:   3 23:57:20 -5215.376858  -1.82  -1.55
iter:   4 23:57:58 -5215.251662  -2.28  -2.32
iter:   5 23:58:36 -5214.738118  -3.42  -2.25
iter:   6 23:59:14 -5214.641592  -4.09  -2.72
iter:   7 23:59:52 -5214.629816c -4.31  -3.00
iter:   8 00:00:30 -5214.623091c -4.11  -3.12
iter:   9 00:01:08 -5214.619498c -4.03  -3.15
iter:  10 00:01:46 -5214.618590c -4.57  -3.48
iter:  11 00:02:24 -5214.620022c -4.98  -3.50
iter:  12 00:03:02 -5214.617462c -5.11  -3.46
iter:  13 00:03:40 -5214.618039c -5.29  -3.91
iter:  14 00:04:18 -5214.616932c -5.77  -3.74
iter:  15 00:04:56 -5214.616932c -6.23  -4.05c
iter:  16 00:05:34 -5214.616943c -6.15  -4.09c
iter:  17 00:06:12 -5214.616998c -6.14  -4.21c
iter:  18 00:06:49 -5214.617389c -6.60  -4.27c
iter:  19 00:07:27 -5214.617025c -7.06  -4.04c
iter:  20 00:08:05 -5214.617298c -6.60  -4.38c
iter:  21 00:08:43 -5214.617196c -7.04  -4.28c
iter:  22 00:09:21 -5214.617055c -6.87  -4.35c
iter:  23 00:09:59 -5214.617023c -7.34  -4.77c
iter:  24 00:10:37 -5214.617041c -7.25  -4.81c
iter:  25 00:11:15 -5214.617109c -7.71c -4.95c

Converged after 25 iterations.

Dipole moment: (-9.384547, -8.114454, -0.139938) |e|*Ang

Energy contributions relative to reference atoms: (reference = -4942230.518152)

Kinetic:       +812.698723
Potential:     -908.355388
External:        +0.000000
XC:            -5107.828680
Entropy (-ST):   -2.484074
Local:           -9.889726
--------------------------
Free energy:   -5215.859146
Extrapolated:  -5214.617109

Showing only first 2 kpts
 Kpt  Band  Eigenvalues  Occupancy
  0   289     -5.57514    1.39014
  0   290     -5.53132    1.19050
  0   291     -5.52397    1.15487
  0   292     -5.50929    1.08255

  1   289     -5.64870    1.65257
  1   290     -5.63623    1.61529
  1   291     -5.61944    1.56044
  1   292     -5.60611    1.51301


Fermi level: -5.49275

No gap

Forces in eV/Ang:
  0 Pd    0.00000   -0.01396    0.00585
  1 Pd   -0.04032    0.01227   -0.06024
  2 Pd    0.00000   -0.00039   -0.04783
  3 Pd   -0.00144    0.00978   -0.02123
  4 Pd   -0.01242    0.00427   -0.02194
  5 Pd    0.00000   -0.02792   -0.07182
  6 Pd   -0.04331    0.01487    0.03786
  7 Pd    0.01400    0.00342   -0.03578
  8 Pd   -0.00215    0.00309   -0.02984
  9 Pd    0.00632   -0.00790   -0.00195
 10 Pd   -0.00231   -0.04590    0.03688
 11 Pd    0.00000   -0.00583   -0.02541
 12 Pd    0.00257   -0.00255   -0.02579
 13 Pd    0.00000    0.00460    0.00823
 14 Pd    0.03461    0.02670    0.02554
 15 Pd    0.00144    0.00978   -0.02123
 16 Pd    0.01242    0.00427   -0.02194
 17 Pd   -0.02184   -0.01413   -0.04614
 18 Pd    0.04331    0.01487    0.03786
 19 Pd    0.00000    0.40041    0.22688
 20 Pd    0.00000    0.00750   -0.05143
 21 Pd   -0.00632   -0.00790   -0.00195
 22 Pd    0.00000    0.00271   -0.01083
 23 Pd    0.33486   -0.18574    0.22978
 24 Pd   -0.00257   -0.00255   -0.02579
 25 Pd    0.04032    0.01227   -0.06024
 26 Pd   -0.03461    0.02670    0.02554
 27 Pd    0.00000   -0.03012   -0.02685
 28 Pd    0.00000    0.00038   -0.05490
 29 Pd    0.02184   -0.01413   -0.04614
 30 Pd    0.00000   -0.00397    0.08669
 31 Pd   -0.01400    0.00342   -0.03578
 32 Pd    0.00215    0.00309   -0.02984
 33 Pd    0.00000    0.03882   -0.04427
 34 Pd    0.00231   -0.04590    0.03688
 35 Pd   -0.33486   -0.18574    0.22978
 36 O     0.00000   -0.01262   -0.07190

BFGS:    5 00:11:35    -5214.617109        0.4602
System changes: positions 

Initializing position-dependent things.

Density initialized from wave functions
                                                
                                                
                                                
                                                
                                                
                           O                    
                 Pd     Pd     Pd               
                   Pd     Pd     Pd             
           Pd     Pd     Pd                     
             Pd     PPd    PPd     Pd           
                                                
              PPd    PPd    PPd                 
                                                
                Pd     Pd     Pd                
                  Pd     Pd     Pd              
          Pd     Pd     Pd                      
            Pd     Pd     Pd                    
              Pd     Pd     Pd                  
                                                
                                                
                                                
                                                

Positions:
   0 Pd     0.000000    0.000000    9.999999    ( 0.0000,  0.0000,  0.0000)
   1 Pd     1.418446    0.818940   12.316312    ( 0.0000,  0.0000,  0.0000)
   2 Pd    -0.000000    1.637669   14.605776    ( 0.0000,  0.0000,  0.0000)
   3 Pd     2.842918   -0.002313   16.935778    ( 0.0000,  0.0000,  0.0000)
   4 Pd    -1.418446    2.456821    9.999999    ( 0.0000,  0.0000,  0.0000)
   5 Pd    -0.000000    3.275761   12.316312    ( 0.0000,  0.0000,  0.0000)
   6 Pd    -1.406703    4.093248   14.605697    ( 0.0000,  0.0000,  0.0000)
   7 Pd     1.392193    2.440873   16.931442    ( 0.0000,  0.0000,  0.0000)
   8 Pd    -2.836893    4.913642    9.999999    ( 0.0000,  0.0000,  0.0000)
   9 Pd    -1.418446    5.732582   12.316312    ( 0.0000,  0.0000,  0.0000)
  10 Pd    -2.832880    6.561332   14.602855    ( 0.0000,  0.0000,  0.0000)
  11 Pd    -0.000000    4.919946   16.942978    ( 0.0000,  0.0000,  0.0000)
  12 Pd     2.836893    0.000000    9.999999    ( 0.0000,  0.0000,  0.0000)
  13 Pd     4.255339    0.818940   12.316312    ( 0.0000,  0.0000,  0.0000)
  14 Pd     2.830226    1.630327   14.603314    ( 0.0000,  0.0000,  0.0000)
  15 Pd     5.667760   -0.002313   16.935778    ( 0.0000,  0.0000,  0.0000)
  16 Pd     1.418446    2.456821    9.999999    ( 0.0000,  0.0000,  0.0000)
  17 Pd     2.836893    3.275761   12.316312    ( 0.0000,  0.0000,  0.0000)
  18 Pd     1.406703    4.093248   14.605697    ( 0.0000,  0.0000,  0.0000)
  19 Pd     4.255339    2.364264   16.944916    ( 0.0000,  0.0000,  0.0000)
  20 Pd     0.000000    4.913642    9.999999    ( 0.0000,  0.0000,  0.0000)
  21 Pd     1.418446    5.732582   12.316312    ( 0.0000,  0.0000,  0.0000)
  22 Pd    -0.000000    6.550565   14.610963    ( 0.0000,  0.0000,  0.0000)
  23 Pd     2.756722    4.962954   16.942125    ( 0.0000,  0.0000,  0.0000)
  24 Pd     5.673785    0.000000    9.999999    ( 0.0000,  0.0000,  0.0000)
  25 Pd     7.092231    0.818940   12.316312    ( 0.0000,  0.0000,  0.0000)
  26 Pd     5.680451    1.630327   14.603314    ( 0.0000,  0.0000,  0.0000)
  27 Pd     8.510678    0.028193   16.929807    ( 0.0000,  0.0000,  0.0000)
  28 Pd     4.255339    2.456821    9.999999    ( 0.0000,  0.0000,  0.0000)
  29 Pd     5.673785    3.275761   12.316312    ( 0.0000,  0.0000,  0.0000)
  30 Pd     4.255339    4.094202   14.575389    ( 0.0000,  0.0000,  0.0000)
  31 Pd     7.118485    2.440873   16.931442    ( 0.0000,  0.0000,  0.0000)
  32 Pd     2.836893    4.913642    9.999999    ( 0.0000,  0.0000,  0.0000)
  33 Pd     4.255339    5.732582   12.316312    ( 0.0000,  0.0000,  0.0000)
  34 Pd     2.832880    6.561332   14.602855    ( 0.0000,  0.0000,  0.0000)
  35 Pd     5.753955    4.962954   16.942125    ( 0.0000,  0.0000,  0.0000)
  36 O      4.255339    4.096736   18.016051    ( 0.0000,  0.0000,  0.0000)

Unit cell:
           periodic     x           y           z      points  spacing
  1. axis:    yes    8.510678    0.000000    0.000000    40     0.1843
  2. axis:    yes   -4.255339    7.370463    0.000000    40     0.1843
  3. axis:    no     0.000000    0.000000   26.948937   148     0.1821

  Lengths:   8.510678   8.510678  26.948937
  Angles:   90.000000  90.000000 120.000000

Effective grid spacing dv^(1/3) = 0.1925

     iter     time        total  log10-change:
                         energy  eigst   dens
iter:   1 00:13:03 -5214.877691  -2.74
iter:   2 00:13:41 -5220.227286  -2.18  -2.44
iter:   3 00:14:19 -5214.671776  -2.69  -1.86
iter:   4 00:14:56 -5214.635120  -3.44  -2.91
iter:   5 00:15:34 -5214.633633c -4.50  -3.26
iter:   6 00:16:12 -5214.629878c -4.77  -3.48
iter:   7 00:16:50 -5214.629121c -5.21  -3.72
iter:   8 00:17:28 -5214.628996c -5.34  -3.78
iter:   9 00:18:05 -5214.628580c -5.49  -4.08c
iter:  10 00:18:43 -5214.628844c -5.93  -4.17c
iter:  11 00:19:21 -5214.628717c -6.21  -4.05c
iter:  12 00:19:59 -5214.628722c -6.54  -4.30c
iter:  13 00:20:37 -5214.628560c -6.63  -4.20c
iter:  14 00:21:14 -5214.628495c -7.08  -4.60c
iter:  15 00:21:52 -5214.628518c -7.53c -4.74c

Converged after 15 iterations.

Dipole moment: (-9.196528, -8.192735, -0.141802) |e|*Ang

Energy contributions relative to reference atoms: (reference = -4942230.518152)

Kinetic:       +812.128204
Potential:     -907.876301
External:        +0.000000
XC:            -5107.748200
Entropy (-ST):   -2.482573
Local:           -9.890934
--------------------------
Free energy:   -5215.869805
Extrapolated:  -5214.628518

Showing only first 2 kpts
 Kpt  Band  Eigenvalues  Occupancy
  0   289     -5.57752    1.39020
  0   290     -5.53374    1.19078
  0   291     -5.52639    1.15512
  0   292     -5.51138    1.08113

  1   289     -5.65106    1.65255
  1   290     -5.63847    1.61491
  1   291     -5.62139    1.55900
  1   292     -5.60940    1.51641


Fermi level: -5.49512

No gap

Forces in eV/Ang:
  0 Pd    0.00000   -0.01368   -0.00153
  1 Pd   -0.04061    0.01168   -0.07009
  2 Pd    0.00000   -0.00069   -0.04811
  3 Pd   -0.00220    0.01091   -0.02151
  4 Pd   -0.01224    0.00415   -0.02932
  5 Pd    0.00000   -0.02764   -0.08139
  6 Pd   -0.06174    0.02433    0.06665
  7 Pd    0.03825    0.01628   -0.02953
  8 Pd   -0.00211    0.00306   -0.03734
  9 Pd    0.00631   -0.00794   -0.00652
 10 Pd   -0.00393   -0.06605    0.06434
 11 Pd    0.00000   -0.00687   -0.02664
 12 Pd    0.00264   -0.00260   -0.03285
 13 Pd    0.00000    0.00419    0.00231
 14 Pd    0.05195    0.03734    0.05610
 15 Pd    0.00220    0.01091   -0.02151
 16 Pd    0.01224    0.00415   -0.02932
 17 Pd   -0.02368   -0.01466   -0.05127
 18 Pd    0.06174    0.02433    0.06665
 19 Pd    0.00000    0.33984    0.17813
 20 Pd    0.00000    0.00765   -0.05852
 21 Pd   -0.00631   -0.00794   -0.00652
 22 Pd    0.00000    0.00281    0.00241
 23 Pd    0.28090   -0.15310    0.17114
 24 Pd   -0.00264   -0.00260   -0.03285
 25 Pd    0.04061    0.01168   -0.07009
 26 Pd   -0.05195    0.03734    0.05610
 27 Pd    0.00000   -0.05306   -0.02181
 28 Pd    0.00000    0.00035   -0.06240
 29 Pd    0.02368   -0.01466   -0.05127
 30 Pd    0.00000   -0.00354    0.12064
 31 Pd   -0.03825    0.01628   -0.02953
 32 Pd    0.00211    0.00306   -0.03734
 33 Pd    0.00000    0.04111   -0.04776
 34 Pd    0.00393   -0.06605    0.06434
 35 Pd   -0.28090   -0.15310    0.17114
 36 O     0.00000    0.01452   -0.06775

BFGS:    6 00:22:12    -5214.628518        0.3837
System changes: positions 

Initializing position-dependent things.

Density initialized from wave functions
                                                
                                                
                                                
                                                
                                                
                           O                    
                 Pd     Pd     Pd               
                   Pd     Pd     Pd             
           Pd     Pd     Pd                     
             Pd     PPd    PPd     Pd           
                                                
              PPd    PPd    PPd                 
                                                
                Pd     Pd     Pd                
                  Pd     Pd     Pd              
          Pd     Pd     Pd                      
            Pd     Pd     Pd                    
              Pd     Pd     Pd                  
                                                
                                                
                                                
                                                

Positions:
   0 Pd     0.000000    0.000000    9.999999    ( 0.0000,  0.0000,  0.0000)
   1 Pd     1.418446    0.818940   12.316312    ( 0.0000,  0.0000,  0.0000)
   2 Pd    -0.000000    1.637714   14.600644    ( 0.0000,  0.0000,  0.0000)
   3 Pd     2.844196   -0.002052   16.933664    ( 0.0000,  0.0000,  0.0000)
   4 Pd    -1.418446    2.456821    9.999999    ( 0.0000,  0.0000,  0.0000)
   5 Pd    -0.000000    3.275761   12.316312    ( 0.0000,  0.0000,  0.0000)
   6 Pd    -1.407354    4.093752   14.605357    ( 0.0000,  0.0000,  0.0000)
   7 Pd     1.388437    2.438208   16.927531    ( 0.0000,  0.0000,  0.0000)
   8 Pd    -2.836893    4.913642    9.999999    ( 0.0000,  0.0000,  0.0000)
   9 Pd    -1.418446    5.732582   12.316312    ( 0.0000,  0.0000,  0.0000)
  10 Pd    -2.832139    6.560312   14.602672    ( 0.0000,  0.0000,  0.0000)
  11 Pd    -0.000000    4.920819   16.940312    ( 0.0000,  0.0000,  0.0000)
  12 Pd     2.836893    0.000000    9.999999    ( 0.0000,  0.0000,  0.0000)
  13 Pd     4.255339    0.818940   12.316312    ( 0.0000,  0.0000,  0.0000)
  14 Pd     2.830996    1.630466   14.601795    ( 0.0000,  0.0000,  0.0000)
  15 Pd     5.666482   -0.002052   16.933664    ( 0.0000,  0.0000,  0.0000)
  16 Pd     1.418446    2.456821    9.999999    ( 0.0000,  0.0000,  0.0000)
  17 Pd     2.836893    3.275761   12.316312    ( 0.0000,  0.0000,  0.0000)
  18 Pd     1.407354    4.093752   14.605357    ( 0.0000,  0.0000,  0.0000)
  19 Pd     4.255339    2.392117   16.967962    ( 0.0000,  0.0000,  0.0000)
  20 Pd     0.000000    4.913642    9.999999    ( 0.0000,  0.0000,  0.0000)
  21 Pd     1.418446    5.732582   12.316312    ( 0.0000,  0.0000,  0.0000)
  22 Pd    -0.000000    6.550851   14.608994    ( 0.0000,  0.0000,  0.0000)
  23 Pd     2.778683    4.951281   16.966491    ( 0.0000,  0.0000,  0.0000)
  24 Pd     5.673785    0.000000    9.999999    ( 0.0000,  0.0000,  0.0000)
  25 Pd     7.092231    0.818940   12.316312    ( 0.0000,  0.0000,  0.0000)
  26 Pd     5.679682    1.630466   14.601795    ( 0.0000,  0.0000,  0.0000)
  27 Pd     8.510678    0.031399   16.926827    ( 0.0000,  0.0000,  0.0000)
  28 Pd     4.255339    2.456821    9.999999    ( 0.0000,  0.0000,  0.0000)
  29 Pd     5.673785    3.275761   12.316312    ( 0.0000,  0.0000,  0.0000)
  30 Pd     4.255339    4.093949   14.574845    ( 0.0000,  0.0000,  0.0000)
  31 Pd     7.122241    2.438208   16.927531    ( 0.0000,  0.0000,  0.0000)
  32 Pd     2.836893    4.913642    9.999999    ( 0.0000,  0.0000,  0.0000)
  33 Pd     4.255339    5.732582   12.316312    ( 0.0000,  0.0000,  0.0000)
  34 Pd     2.832139    6.560312   14.602672    ( 0.0000,  0.0000,  0.0000)
  35 Pd     5.731995    4.951281   16.966491    ( 0.0000,  0.0000,  0.0000)
  36 O      4.255339    4.096978   18.040904    ( 0.0000,  0.0000,  0.0000)

Unit cell:
           periodic     x           y           z      points  spacing
  1. axis:    yes    8.510678    0.000000    0.000000    40     0.1843
  2. axis:    yes   -4.255339    7.370463    0.000000    40     0.1843
  3. axis:    no     0.000000    0.000000   26.948937   148     0.1821

  Lengths:   8.510678   8.510678  26.948937
  Angles:   90.000000  90.000000 120.000000

Effective grid spacing dv^(1/3) = 0.1925

     iter     time        total  log10-change:
                         energy  eigst   dens
iter:   1 00:23:40 -5215.080304  -1.89
iter:   2 00:24:18 -5222.361777  -1.95  -2.34
iter:   3 00:24:55 -5214.962310  -2.61  -1.81
iter:   4 00:25:33 -5214.692425  -3.23  -2.51
iter:   5 00:26:11 -5214.668832  -3.81  -2.94
iter:   6 00:26:48 -5214.653787c -4.07  -3.11
iter:   7 00:27:26 -5214.655258c -4.85  -3.35
iter:   8 00:28:03 -5214.652607c -4.58  -3.41
iter:   9 00:28:41 -5214.652668c -4.86  -3.80
iter:  10 00:29:19 -5214.652702c -5.42  -3.86
iter:  11 00:29:56 -5214.652692c -5.71  -3.89
iter:  12 00:30:34 -5214.652378c -5.53  -3.92
iter:  13 00:31:12 -5214.653255c -5.79  -3.81
iter:  14 00:31:49 -5214.652660c -6.26  -3.90
iter:  15 00:32:27 -5214.652390c -6.28  -4.15c
iter:  16 00:33:04 -5214.652319c -6.62  -4.48c
iter:  17 00:33:42 -5214.652398c -6.91  -4.40c
iter:  18 00:34:20 -5214.652521c -6.71  -4.67c
iter:  19 00:34:57 -5214.652460c -7.30  -4.88c
iter:  20 00:35:35 -5214.652477c -7.78c -5.13c

Converged after 20 iterations.

Dipole moment: (-8.254860, -8.369886, -0.137259) |e|*Ang

Energy contributions relative to reference atoms: (reference = -4942230.518152)

Kinetic:       +812.219816
Potential:     -907.984910
External:        +0.000000
XC:            -5107.755160
Entropy (-ST):   -2.473301
Local:           -9.895572
--------------------------
Free energy:   -5215.889128
Extrapolated:  -5214.652477

Showing only first 2 kpts
 Kpt  Band  Eigenvalues  Occupancy
  0   289     -5.57192    1.39031
  0   290     -5.52830    1.19166
  0   291     -5.52104    1.15649
  0   292     -5.50480    1.07641

  1   289     -5.64565    1.65318
  1   290     -5.63324    1.61615
  1   291     -5.61515    1.55690
  1   292     -5.60574    1.52358


Fermi level: -5.48948

No gap

Forces in eV/Ang:
  0 Pd    0.00000   -0.01335    0.00094
  1 Pd   -0.03771    0.00820   -0.08265
  2 Pd    0.00000    0.00042   -0.04094
  3 Pd   -0.00522    0.01258   -0.01847
  4 Pd   -0.01187    0.00426   -0.02723
  5 Pd    0.00000   -0.02284   -0.09274
  6 Pd   -0.08263    0.03832    0.11326
  7 Pd    0.06691    0.03204   -0.02654
  8 Pd   -0.00249    0.00274   -0.03132
  9 Pd    0.00672   -0.00809   -0.00511
 10 Pd   -0.00675   -0.09004    0.11083
 11 Pd    0.00000   -0.00799   -0.02712
 12 Pd    0.00076   -0.00171   -0.02755
 13 Pd    0.00000    0.00284    0.00063
 14 Pd    0.07463    0.04885    0.10930
 15 Pd    0.00522    0.01258   -0.01847
 16 Pd    0.01187    0.00426   -0.02723
 17 Pd   -0.02450   -0.01378   -0.05252
 18 Pd    0.08263    0.03832    0.11326
 19 Pd    0.00000   -0.03058   -0.03357
 20 Pd    0.00000    0.00552   -0.05333
 21 Pd   -0.00672   -0.00809   -0.00511
 22 Pd    0.00000    0.00176   -0.00120
 23 Pd   -0.01857   -0.00085   -0.01394
 24 Pd   -0.00076   -0.00171   -0.02755
 25 Pd    0.03771    0.00820   -0.08265
 26 Pd   -0.07463    0.04885    0.10930
 27 Pd    0.00000   -0.07290   -0.02188
 28 Pd    0.00000    0.00102   -0.05665
 29 Pd    0.02450   -0.01378   -0.05252
 30 Pd    0.00000   -0.00070    0.13124
 31 Pd   -0.06691    0.03204   -0.02654
 32 Pd    0.00249    0.00274   -0.03132
 33 Pd    0.00000    0.04174   -0.04577
 34 Pd    0.00675   -0.09004    0.11083
 35 Pd    0.01857   -0.00085   -0.01394
 36 O     0.00000    0.01381    0.25899

BFGS:    7 00:35:54    -5214.652477        0.2594
System changes: positions 

Initializing position-dependent things.

Density initialized from wave functions
                                                
                                                
                                                
                                                
                                                
                           O                    
                 Pd     Pd     Pd               
                   Pd     Pd     Pd             
           Pd     Pd     Pd                     
             Pd     PPd    PPd     Pd           
                                                
              PPd    PPd    PPd                 
                                                
                Pd     Pd     Pd                
                  Pd     Pd     Pd              
          Pd     Pd     Pd                      
            Pd     Pd     Pd                    
              Pd     Pd     Pd                  
                                                
                                                
                                                
                                                

Positions:
   0 Pd     0.000000    0.000000    9.999999    ( 0.0000,  0.0000,  0.0000)
   1 Pd     1.418446    0.818940   12.316312    ( 0.0000,  0.0000,  0.0000)
   2 Pd    -0.000000    1.637750   14.598295    ( 0.0000,  0.0000,  0.0000)
   3 Pd     2.844746   -0.001890   16.932733    ( 0.0000,  0.0000,  0.0000)
   4 Pd    -1.418446    2.456821    9.999999    ( 0.0000,  0.0000,  0.0000)
   5 Pd    -0.000000    3.275761   12.316312    ( 0.0000,  0.0000,  0.0000)
   6 Pd    -1.408142    4.094290   14.606152    ( 0.0000,  0.0000,  0.0000)
   7 Pd     1.387200    2.437243   16.925772    ( 0.0000,  0.0000,  0.0000)
   8 Pd    -2.836893    4.913642    9.999999    ( 0.0000,  0.0000,  0.0000)
   9 Pd    -1.418446    5.732582   12.316312    ( 0.0000,  0.0000,  0.0000)
  10 Pd    -2.831835    6.559284   14.603536    ( 0.0000,  0.0000,  0.0000)
  11 Pd    -0.000000    4.921205   16.939061    ( 0.0000,  0.0000,  0.0000)
  12 Pd     2.836893    0.000000    9.999999    ( 0.0000,  0.0000,  0.0000)
  13 Pd     4.255339    0.818940   12.316312    ( 0.0000,  0.0000,  0.0000)
  14 Pd     2.831860    1.630797   14.602133    ( 0.0000,  0.0000,  0.0000)
  15 Pd     5.665931   -0.001890   16.932733    ( 0.0000,  0.0000,  0.0000)
  16 Pd     1.418446    2.456821    9.999999    ( 0.0000,  0.0000,  0.0000)
  17 Pd     2.836893    3.275761   12.316312    ( 0.0000,  0.0000,  0.0000)
  18 Pd     1.408142    4.094290   14.606152    ( 0.0000,  0.0000,  0.0000)
  19 Pd     4.255339    2.397516   16.974656    ( 0.0000,  0.0000,  0.0000)
  20 Pd     0.000000    4.913642    9.999999    ( 0.0000,  0.0000,  0.0000)
  21 Pd     1.418446    5.732582   12.316312    ( 0.0000,  0.0000,  0.0000)
  22 Pd    -0.000000    6.550970   14.608036    ( 0.0000,  0.0000,  0.0000)
  23 Pd     2.782834    4.949064   16.974172    ( 0.0000,  0.0000,  0.0000)
  24 Pd     5.673785    0.000000    9.999999    ( 0.0000,  0.0000,  0.0000)
  25 Pd     7.092231    0.818940   12.316312    ( 0.0000,  0.0000,  0.0000)
  26 Pd     5.678818    1.630797   14.602133    ( 0.0000,  0.0000,  0.0000)
  27 Pd     8.510678    0.032493   16.925464    ( 0.0000,  0.0000,  0.0000)
  28 Pd     4.255339    2.456821    9.999999    ( 0.0000,  0.0000,  0.0000)
  29 Pd     5.673785    3.275761   12.316312    ( 0.0000,  0.0000,  0.0000)
  30 Pd     4.255339    4.093872   14.574812    ( 0.0000,  0.0000,  0.0000)
  31 Pd     7.123478    2.437243   16.925772    ( 0.0000,  0.0000,  0.0000)
  32 Pd     2.836893    4.913642    9.999999    ( 0.0000,  0.0000,  0.0000)
  33 Pd     4.255339    5.732582   12.316312    ( 0.0000,  0.0000,  0.0000)
  34 Pd     2.831835    6.559284   14.603536    ( 0.0000,  0.0000,  0.0000)
  35 Pd     5.727843    4.949064   16.974172    ( 0.0000,  0.0000,  0.0000)
  36 O      4.255339    4.097177   18.060072    ( 0.0000,  0.0000,  0.0000)

Unit cell:
           periodic     x           y           z      points  spacing
  1. axis:    yes    8.510678    0.000000    0.000000    40     0.1843
  2. axis:    yes   -4.255339    7.370463    0.000000    40     0.1843
  3. axis:    no     0.000000    0.000000   26.948937   148     0.1821

  Lengths:   8.510678   8.510678  26.948937
  Angles:   90.000000  90.000000 120.000000

Effective grid spacing dv^(1/3) = 0.1925

     iter     time        total  log10-change:
                         energy  eigst   dens
iter:   1 00:37:23 -5214.730666  -2.86
iter:   2 00:38:01 -5216.815326  -2.65  -2.68
iter:   3 00:38:39 -5214.687332  -2.99  -2.04
iter:   4 00:39:16 -5214.660081  -4.11  -2.88
iter:   5 00:39:54 -5214.656914c -5.12  -3.33
iter:   6 00:40:32 -5214.656197c -5.45  -3.73
iter:   7 00:41:10 -5214.655852c -5.73  -3.83
iter:   8 00:41:47 -5214.656529c -5.16  -3.89
iter:   9 00:42:25 -5214.656316c -5.81  -3.94
iter:  10 00:43:03 -5214.656198c -6.28  -4.02c
iter:  11 00:43:41 -5214.655704c -6.35  -4.08c
iter:  12 00:44:18 -5214.655725c -6.44  -4.29c
iter:  13 00:44:56 -5214.655731c -6.90  -4.54c
iter:  14 00:45:34 -5214.655801c -6.52  -4.69c
iter:  15 00:46:12 -5214.655785c -7.18  -4.85c
iter:  16 00:46:49 -5214.655795c -7.74c -4.81c

Converged after 16 iterations.

Dipole moment: (-8.081139, -8.455258, -0.141969) |e|*Ang

Energy contributions relative to reference atoms: (reference = -4942230.518152)

Kinetic:       +811.420843
Potential:     -907.311461
External:        +0.000000
XC:            -5107.633039
Entropy (-ST):   -2.474006
Local:           -9.895135
--------------------------
Free energy:   -5215.892798
Extrapolated:  -5214.655795

Showing only first 2 kpts
 Kpt  Band  Eigenvalues  Occupancy
  0   289     -5.57653    1.38881
  0   290     -5.53351    1.19288
  0   291     -5.52607    1.15683
  0   292     -5.50947    1.07498

  1   289     -5.65093    1.65410
  1   290     -5.63852    1.61713
  1   291     -5.61962    1.55520
  1   292     -5.61144    1.52628


Fermi level: -5.49445

No gap

Forces in eV/Ang:
  0 Pd    0.00000   -0.01283   -0.00156
  1 Pd   -0.03540    0.00643   -0.08463
  2 Pd    0.00000    0.00145   -0.03762
  3 Pd   -0.00811    0.01248   -0.01115
  4 Pd   -0.01157    0.00396   -0.02962
  5 Pd    0.00000   -0.01984   -0.09437
  6 Pd   -0.08188    0.03731    0.11447
  7 Pd    0.07391    0.03641   -0.01724
  8 Pd   -0.00207    0.00293   -0.03366
  9 Pd    0.00524   -0.00901   -0.00794
 10 Pd   -0.00965   -0.08820    0.11204
 11 Pd    0.00000   -0.01021   -0.02144
 12 Pd    0.00085   -0.00159   -0.02976
 13 Pd    0.00000    0.00449   -0.00337
 14 Pd    0.07281    0.04885    0.11301
 15 Pd    0.00811    0.01248   -0.01115
 16 Pd    0.01157    0.00396   -0.02962
 17 Pd   -0.02557   -0.01423   -0.05232
 18 Pd    0.08188    0.03731    0.11447
 19 Pd    0.00000   -0.04614   -0.03447
 20 Pd    0.00000    0.00563   -0.05555
 21 Pd   -0.00524   -0.00901   -0.00794
 22 Pd    0.00000    0.00189    0.00347
 23 Pd   -0.03274    0.00119   -0.01862
 24 Pd   -0.00085   -0.00159   -0.02976
 25 Pd    0.03540    0.00643   -0.08463
 26 Pd   -0.07281    0.04885    0.11301
 27 Pd    0.00000   -0.07722   -0.01396
 28 Pd    0.00000    0.00044   -0.05889
 29 Pd    0.02557   -0.01423   -0.05232
 30 Pd    0.00000    0.00004    0.13569
 31 Pd   -0.07391    0.03641   -0.01724
 32 Pd    0.00207    0.00293   -0.03366
 33 Pd    0.00000    0.04318   -0.04440
 34 Pd    0.00965   -0.08820    0.11204
 35 Pd    0.03274    0.00119   -0.01862
 36 O     0.00000    0.01577    0.17035

BFGS:    8 00:47:09    -5214.655795        0.1711
System changes: positions 

Initializing position-dependent things.

Density initialized from wave functions
                                                
                                                
                                                
                                                
                                                
                           O                    
                 Pd     Pd     Pd               
                   Pd     Pd     Pd             
           Pd     Pd     Pd                     
             Pd     PPd    PPd     Pd           
                                                
              PPd    PPd    PPd                 
                                                
                Pd     Pd     Pd                
                  Pd     Pd     Pd              
          Pd     Pd     Pd                      
            Pd     Pd     Pd                    
              Pd     Pd     Pd                  
                                                
                                                
                                                
                                                

Positions:
   0 Pd     0.000000    0.000000    9.999999    ( 0.0000,  0.0000,  0.0000)
   1 Pd     1.418446    0.818940   12.316312    ( 0.0000,  0.0000,  0.0000)
   2 Pd    -0.000000    1.637844   14.593978    ( 0.0000,  0.0000,  0.0000)
   3 Pd     2.845183   -0.001265   16.931143    ( 0.0000,  0.0000,  0.0000)
   4 Pd    -1.418446    2.456821    9.999999    ( 0.0000,  0.0000,  0.0000)
   5 Pd    -0.000000    3.275761   12.316312    ( 0.0000,  0.0000,  0.0000)
   6 Pd    -1.411782    4.096150   14.610767    ( 0.0000,  0.0000,  0.0000)
   7 Pd     1.387917    2.437129   16.922876    ( 0.0000,  0.0000,  0.0000)
   8 Pd    -2.836893    4.913642    9.999999    ( 0.0000,  0.0000,  0.0000)
   9 Pd    -1.418446    5.732582   12.316312    ( 0.0000,  0.0000,  0.0000)
  10 Pd    -2.831764    6.555143   14.608164    ( 0.0000,  0.0000,  0.0000)
  11 Pd    -0.000000    4.921356   16.936727    ( 0.0000,  0.0000,  0.0000)
  12 Pd     2.836893    0.000000    9.999999    ( 0.0000,  0.0000,  0.0000)
  13 Pd     4.255339    0.818940   12.316312    ( 0.0000,  0.0000,  0.0000)
[...]
  18 Pd     1.418088    4.099306   14.620343    ( 0.0000,  0.0000,  0.0000)
  19 Pd     4.255339    2.409127   16.988720    ( 0.0000,  0.0000,  0.0000)
  20 Pd     0.000000    4.913642    9.999999    ( 0.0000,  0.0000,  0.0000)
  21 Pd     1.418446    5.732582   12.316312    ( 0.0000,  0.0000,  0.0000)
  22 Pd    -0.000000    6.551418   14.606137    ( 0.0000,  0.0000,  0.0000)
  23 Pd     2.791868    4.942105   16.991287    ( 0.0000,  0.0000,  0.0000)
  24 Pd     5.673785    0.000000    9.999999    ( 0.0000,  0.0000,  0.0000)
  25 Pd     7.092231    0.818940   12.316312    ( 0.0000,  0.0000,  0.0000)
  26 Pd     5.669671    1.636423   14.615799    ( 0.0000,  0.0000,  0.0000)
  27 Pd     8.510678    0.025719   16.921574    ( 0.0000,  0.0000,  0.0000)
  28 Pd     4.255339    2.456821    9.999999    ( 0.0000,  0.0000,  0.0000)
  29 Pd     5.673785    3.275761   12.316312    ( 0.0000,  0.0000,  0.0000)
  30 Pd     4.255339    4.094051   14.591694    ( 0.0000,  0.0000,  0.0000)
  31 Pd     7.117541    2.439684   16.920537    ( 0.0000,  0.0000,  0.0000)
  32 Pd     2.836893    4.913642    9.999999    ( 0.0000,  0.0000,  0.0000)
  33 Pd     4.255339    5.732582   12.316312    ( 0.0000,  0.0000,  0.0000)
  34 Pd     2.832562    6.548345   14.617834    ( 0.0000,  0.0000,  0.0000)
  35 Pd     5.718810    4.942105   16.991287    ( 0.0000,  0.0000,  0.0000)
  36 O      4.255339    4.097563   18.110715    ( 0.0000,  0.0000,  0.0000)

Unit cell:
           periodic     x           y           z      points  spacing
  1. axis:    yes    8.510678    0.000000    0.000000    40     0.1843
  2. axis:    yes   -4.255339    7.370463    0.000000    40     0.1843
  3. axis:    no     0.000000    0.000000   26.948937   148     0.1821

  Lengths:   8.510678   8.510678  26.948937
  Angles:   90.000000  90.000000 120.000000

Effective grid spacing dv^(1/3) = 0.1925

     iter     time        total  log10-change:
                         energy  eigst   dens
iter:   1 01:33:01 -5214.828043  -2.52
iter:   2 01:33:39 -5217.404013  -2.50  -2.62
iter:   3 01:34:16 -5214.856583  -2.74  -1.97
iter:   4 01:34:54 -5214.689550  -4.00  -2.56
iter:   5 01:35:32 -5214.695847c -4.34  -3.19
iter:   6 01:36:10 -5214.673228c -4.85  -3.04
iter:   7 01:36:47 -5214.672050c -5.28  -3.69
iter:   8 01:37:25 -5214.671379c -5.16  -3.78
iter:   9 01:38:03 -5214.670862c -5.16  -4.00c
iter:  10 01:38:41 -5214.670855c -5.62  -3.72
iter:  11 01:39:18 -5214.670954c -6.00  -4.15c
iter:  12 01:39:56 -5214.670681c -6.55  -4.24c
iter:  13 01:40:34 -5214.670884c -6.88  -4.32c
iter:  14 01:41:12 -5214.670970c -6.21  -4.37c
iter:  15 01:41:49 -5214.670960c -6.66  -4.60c
iter:  16 01:42:27 -5214.670828c -7.29  -4.59c
iter:  17 01:43:05 -5214.670927c -7.44c -4.76c

Converged after 17 iterations.

Dipole moment: (-7.379776, -8.604759, -0.154807) |e|*Ang

Energy contributions relative to reference atoms: (reference = -4942230.518152)

Kinetic:       +809.590593
Potential:     -905.793533
External:        +0.000000
XC:            -5107.332522
Entropy (-ST):   -2.478143
Local:           -9.896393
--------------------------
Free energy:   -5215.909998
Extrapolated:  -5214.670927

Showing only first 2 kpts
 Kpt  Band  Eigenvalues  Occupancy
  0   289     -5.58713    1.38234
  0   290     -5.54710    1.19994
  0   291     -5.53832    1.15744
  0   292     -5.52014    1.06776

  1   289     -5.66483    1.65914
  1   290     -5.65416    1.62792
  1   291     -5.63070    1.55159
  1   292     -5.62476    1.53056


Fermi level: -5.50657

No gap

Forces in eV/Ang:
  0 Pd    0.00000   -0.01196   -0.00238
  1 Pd   -0.01178   -0.00806   -0.03596
  2 Pd    0.00000    0.00528    0.01572
  3 Pd   -0.00462   -0.00382    0.01562
  4 Pd   -0.01063    0.00354   -0.03070
  5 Pd    0.00000    0.00898   -0.04629
  6 Pd   -0.00010    0.00719    0.02625
  7 Pd    0.01524    0.01110    0.00973
  8 Pd   -0.00078    0.00366   -0.02881
  9 Pd   -0.00403   -0.01418    0.02559
 10 Pd   -0.00550    0.00219    0.03107
 11 Pd    0.00000   -0.00113    0.00359
 12 Pd   -0.00192   -0.00008   -0.02646
 13 Pd    0.00000    0.01472    0.02800
 14 Pd    0.00092   -0.00234    0.03949
 15 Pd    0.00462   -0.00382    0.01562
 16 Pd    0.01063    0.00354   -0.03070
 17 Pd   -0.02153   -0.01127   -0.00147
 18 Pd    0.00010    0.00719    0.02625
 19 Pd    0.00000   -0.02847    0.01805
 20 Pd    0.00000    0.00227   -0.05214
 21 Pd    0.00403   -0.01418    0.02559
 22 Pd    0.00000    0.00034   -0.00158
 23 Pd   -0.03051    0.00315    0.01379
 24 Pd    0.00192   -0.00008   -0.02646
 25 Pd    0.01178   -0.00806   -0.03596
 26 Pd   -0.00092   -0.00234    0.03949
 27 Pd    0.00000   -0.01779    0.01678
 28 Pd    0.00000   -0.00078   -0.05434
 29 Pd    0.02153   -0.01127   -0.00147
 30 Pd    0.00000    0.00853    0.05789
 31 Pd   -0.01524    0.01110    0.00973
 32 Pd    0.00078    0.00366   -0.02881
 33 Pd    0.00000    0.03850    0.00699
 34 Pd    0.00550    0.00219    0.03107
 35 Pd    0.03051    0.00315    0.01379
 36 O     0.00000   -0.00696    0.01631

BFGS:   12 01:43:25    -5214.670927        0.0585
System changes: positions 

Initializing position-dependent things.

Density initialized from wave functions
                                                
                                                
                                                
                                                
                                                
                           O                    
                 Pd     Pd     Pd               
                   Pd     Pd     Pd             
           Pd     Pd     Pd                     
             Pd     PPd    PPd     Pd           
                                                
              PPd    PPd    PPd                 
                                                
                Pd     Pd     Pd                
                  Pd     Pd     Pd              
          Pd     Pd     Pd                      
            Pd     Pd     Pd                    
              Pd     Pd     Pd                  
                                                
                                                
                                                
                                                

Positions:
   0 Pd     0.000000    0.000000    9.999999    ( 0.0000,  0.0000,  0.0000)
   1 Pd     1.418446    0.818940   12.316312    ( 0.0000,  0.0000,  0.0000)
   2 Pd    -0.000000    1.638350   14.590174    ( 0.0000,  0.0000,  0.0000)
   3 Pd     2.844586   -0.000400   16.930381    ( 0.0000,  0.0000,  0.0000)
   4 Pd    -1.418446    2.456821    9.999999    ( 0.0000,  0.0000,  0.0000)
   5 Pd    -0.000000    3.275761   12.316312    ( 0.0000,  0.0000,  0.0000)
   6 Pd    -1.418983    4.099831   14.622006    ( 0.0000,  0.0000,  0.0000)
   7 Pd     1.394066    2.440186   16.920341    ( 0.0000,  0.0000,  0.0000)
   8 Pd    -2.836893    4.913642    9.999999    ( 0.0000,  0.0000,  0.0000)
   9 Pd    -1.418446    5.732582   12.316312    ( 0.0000,  0.0000,  0.0000)
  10 Pd    -2.832739    6.547411   14.619564    ( 0.0000,  0.0000,  0.0000)
  11 Pd    -0.000000    4.920729   16.934179    ( 0.0000,  0.0000,  0.0000)
  12 Pd     2.836893    0.000000    9.999999    ( 0.0000,  0.0000,  0.0000)
  13 Pd     4.255339    0.818940   12.316312    ( 0.0000,  0.0000,  0.0000)
  14 Pd     2.841828    1.636913   14.617643    ( 0.0000,  0.0000,  0.0000)
  15 Pd     5.666091   -0.000400   16.930381    ( 0.0000,  0.0000,  0.0000)
  16 Pd     1.418446    2.456821    9.999999    ( 0.0000,  0.0000,  0.0000)
  17 Pd     2.836893    3.275761   12.316312    ( 0.0000,  0.0000,  0.0000)
  18 Pd     1.418983    4.099831   14.622006    ( 0.0000,  0.0000,  0.0000)
  19 Pd     4.255339    2.409152   16.989494    ( 0.0000,  0.0000,  0.0000)
  20 Pd     0.000000    4.913642    9.999999    ( 0.0000,  0.0000,  0.0000)
  21 Pd     1.418446    5.732582   12.316312    ( 0.0000,  0.0000,  0.0000)
  22 Pd    -0.000000    6.551452   14.606023    ( 0.0000,  0.0000,  0.0000)
  23 Pd     2.791786    4.941788   16.992198    ( 0.0000,  0.0000,  0.0000)
  24 Pd     5.673785    0.000000    9.999999    ( 0.0000,  0.0000,  0.0000)
  25 Pd     7.092231    0.818940   12.316312    ( 0.0000,  0.0000,  0.0000)
  26 Pd     5.668849    1.636913   14.617643    ( 0.0000,  0.0000,  0.0000)
  27 Pd     8.510678    0.024685   16.921557    ( 0.0000,  0.0000,  0.0000)
  28 Pd     4.255339    2.456821    9.999999    ( 0.0000,  0.0000,  0.0000)
  29 Pd     5.673785    3.275761   12.316312    ( 0.0000,  0.0000,  0.0000)
  30 Pd     4.255339    4.094192   14.594130    ( 0.0000,  0.0000,  0.0000)
  31 Pd     7.116611    2.440186   16.920341    ( 0.0000,  0.0000,  0.0000)
  32 Pd     2.836893    4.913642    9.999999    ( 0.0000,  0.0000,  0.0000)
  33 Pd     4.255339    5.732582   12.316312    ( 0.0000,  0.0000,  0.0000)
  34 Pd     2.832739    6.547411   14.619564    ( 0.0000,  0.0000,  0.0000)
  35 Pd     5.718892    4.941788   16.992198    ( 0.0000,  0.0000,  0.0000)
  36 O      4.255339    4.097467   18.113929    ( 0.0000,  0.0000,  0.0000)

Unit cell:
           periodic     x           y           z      points  spacing
  1. axis:    yes    8.510678    0.000000    0.000000    40     0.1843
  2. axis:    yes   -4.255339    7.370463    0.000000    40     0.1843
  3. axis:    no     0.000000    0.000000   26.948937   148     0.1821

  Lengths:   8.510678   8.510678  26.948937
  Angles:   90.000000  90.000000 120.000000

Effective grid spacing dv^(1/3) = 0.1925

     iter     time        total  log10-change:
                         energy  eigst   dens
iter:   1 01:44:53 -5214.708629  -3.82
iter:   2 01:45:31 -5215.739079  -3.02  -2.87
iter:   3 01:46:09 -5214.674719  -3.42  -2.17
iter:   4 01:46:47 -5214.671401  -4.25  -3.32
iter:   5 01:47:24 -5214.671191c -5.15  -3.66
iter:   6 01:48:02 -5214.671105c -5.67  -4.18c
iter:   7 01:48:40 -5214.671057c -6.19  -4.17c
iter:   8 01:49:18 -5214.671296c -6.58  -4.44c
iter:   9 01:49:55 -5214.671277c -6.99  -4.29c
iter:  10 01:50:33 -5214.670982c -6.89  -4.28c
iter:  11 01:51:11 -5214.670982c -7.06  -4.52c
iter:  12 01:51:49 -5214.670969c -7.37  -4.76c
iter:  13 01:52:26 -5214.671024c -7.68c -4.80c

Converged after 13 iterations.

Dipole moment: (-7.350107, -8.594359, -0.154822) |e|*Ang

Energy contributions relative to reference atoms: (reference = -4942230.518152)

Kinetic:       +809.359921
Potential:     -905.591874
External:        +0.000000
XC:            -5107.301783
Entropy (-ST):   -2.478919
Local:           -9.897829
--------------------------
Free energy:   -5215.910484
Extrapolated:  -5214.671024

Showing only first 2 kpts
 Kpt  Band  Eigenvalues  Occupancy
  0   289     -5.58820    1.38227
  0   290     -5.54832    1.20057
  0   291     -5.53935    1.15713
  0   292     -5.52112    1.06722

  1   289     -5.66607    1.65958
  1   290     -5.65552    1.62874
  1   291     -5.63166    1.55113
  1   292     -5.62585    1.53058


Fermi level: -5.50766

No gap

Forces in eV/Ang:
  0 Pd    0.00000   -0.01218   -0.00381
  1 Pd   -0.00937   -0.00904   -0.03034
  2 Pd    0.00000    0.00508    0.01036
  3 Pd   -0.00424   -0.00474    0.01908
  4 Pd   -0.01082    0.00354   -0.03202
  5 Pd    0.00000    0.01129   -0.04094
  6 Pd    0.01006    0.00208    0.00557
  7 Pd   -0.00032    0.00228    0.01104
  8 Pd   -0.00079    0.00370   -0.03009
  9 Pd   -0.00528   -0.01455    0.02738
 10 Pd   -0.00352    0.01382    0.01136
 11 Pd    0.00000   -0.00062    0.00804
 12 Pd   -0.00217    0.00005   -0.02809
 13 Pd    0.00000    0.01659    0.03038
 14 Pd   -0.00676   -0.00822    0.02026
 15 Pd    0.00424   -0.00474    0.01908
 16 Pd    0.01082    0.00354   -0.03202
 17 Pd   -0.02030   -0.01120    0.00295
 18 Pd   -0.01006    0.00208    0.00557
 19 Pd    0.00000   -0.01339    0.03892
 20 Pd    0.00000    0.00204   -0.05386
 21 Pd    0.00528   -0.01455    0.02738
 22 Pd    0.00000    0.00114   -0.01242
 23 Pd   -0.01762   -0.00295    0.03454
 24 Pd    0.00217    0.00005   -0.02809
 25 Pd    0.00937   -0.00904   -0.03034
 26 Pd    0.00676   -0.00822    0.02026
 27 Pd    0.00000   -0.00137    0.01846
 28 Pd    0.00000   -0.00082   -0.05550
 29 Pd    0.02030   -0.01120    0.00295
 30 Pd    0.00000    0.00832    0.02966
 31 Pd    0.00032    0.00228    0.01104
 32 Pd    0.00079    0.00370   -0.03009
 33 Pd    0.00000    0.03740    0.01064
 34 Pd    0.00352    0.01382    0.01136
 35 Pd    0.01762   -0.00295    0.03454
 36 O     0.00000   -0.00861    0.00089

BFGS:   13 01:52:46    -5214.671024        0.0412
Timing:                                      incl.     excl.
-------------------------------------------------------------------
Density initialized from wave functions:     4.407     4.014   0.0% |
 Symmetrize density:                         0.394     0.394   0.0% |
Forces:                                    273.472   273.472   2.2% ||
Hamiltonian:                                40.293     0.002   0.0% |
 Atomic:                                     0.003     0.003   0.0% |
  XC Correction:                             0.000     0.000   0.0% |
 Calculate atomic Hamiltonians:              0.004     0.004   0.0% |
 Communicate:                                2.185     2.185   0.0% |
 Hartree integrate/restrict:                 0.117     0.117   0.0% |
 Initialize Hamiltonian:                     0.000     0.000   0.0% |
 Poisson:                                    2.135     0.097   0.0% |
  Communicate from 1D:                       0.165     0.165   0.0% |
  Communicate from 2D:                       0.353     0.353   0.0% |
  Communicate to 1D:                         0.095     0.095   0.0% |
  Communicate to 2D:                         0.391     0.391   0.0% |
  FFT 1D:                                    0.528     0.528   0.0% |
  FFT 2D:                                    0.507     0.507   0.0% |
 XC 3D grid:                                35.647     8.959   0.1% |
  VdW-DF integral:                          26.688     1.658   0.0% |
   Convolution:                              2.797     2.797   0.0% |
   FFT:                                      1.820     1.820   0.0% |
   gather:                                   5.806     5.806   0.0% |
   hmm1:                                     0.513     0.513   0.0% |
   hmm2:                                     1.117     1.117   0.0% |
   iFFT:                                     1.766     1.766   0.0% |
   potential:                                7.699     0.203   0.0% |
    collect:                                 0.608     0.608   0.0% |
    p1:                                      4.684     4.684   0.0% |
    p2:                                      1.670     1.670   0.0% |
    sum:                                     0.533     0.533   0.0% |
   splines:                                  3.514     3.514   0.0% |
 vbar:                                       0.200     0.200   0.0% |
LCAO initialization:                        69.646     0.814   0.0% |
 LCAO eigensolver:                          57.725     0.004   0.0% |
  Calculate projections:                     0.000     0.000   0.0% |
  DenseAtomicCorrection:                     0.000     0.000   0.0% |
  Distribute overlap matrix:                56.814    56.814   0.5% |
  Orbital Layouts:                           0.616     0.616   0.0% |
  Potential matrix:                          0.168     0.168   0.0% |
  Sum over cells:                            0.123     0.123   0.0% |
 LCAO to grid:                               9.198     9.198   0.1% |
 Set positions (LCAO WFS):                   1.909     1.287   0.0% |
  Basic WFS set positions:                   0.002     0.002   0.0% |
  Basis functions set positions:             0.000     0.000   0.0% |
  P tci:                                     0.000     0.000   0.0% |
  ST tci:                                    0.509     0.509   0.0% |
  mktci:                                     0.110     0.110   0.0% |
Redistribute:                                0.006     0.006   0.0% |
SCF-cycle:                               11205.408   155.613   1.3% ||
 Davidson:                               10210.579  3502.656  28.8% |-----------|
  Apply hamiltonian:                       194.423   194.423   1.6% ||
  Subspace diag:                           882.478     0.033   0.0% |
   calc_h_matrix:                          424.080   239.821   2.0% ||
    Apply hamiltonian:                     184.259   184.259   1.5% ||
   diagonalize:                             17.578    17.578   0.1% |
   rotate_psi:                             440.787   440.787   3.6% ||
  calc. matrices:                         4646.152  1585.693  13.0% |----|
   Apply hamiltonian:                     3060.459  3060.459  25.1% |---------|
  diagonalize:                             139.577   139.577   1.1% |
  rotate_psi:                              845.295   845.295   6.9% |--|
 Density:                                   24.505     0.006   0.0% |
  Atomic density matrices:                   1.266     1.266   0.0% |
  Mix:                                       3.896     3.896   0.0% |
  Multipole moments:                         0.101     0.101   0.0% |
  Pseudo density:                           19.235    12.413   0.1% |
   Symmetrize density:                       6.822     6.822   0.1% |
 Hamiltonian:                              735.905     0.034   0.0% |
  Atomic:                                    0.059     0.058   0.0% |
   XC Correction:                            0.001     0.001   0.0% |
  Calculate atomic Hamiltonians:             0.079     0.079   0.0% |
  Communicate:                              43.310    43.310   0.4% |
  Hartree integrate/restrict:                2.337     2.337   0.0% |
  Poisson:                                  42.829     1.807   0.0% |
   Communicate from 1D:                      3.365     3.365   0.0% |
   Communicate from 2D:                      7.204     7.204   0.1% |
   Communicate to 1D:                        1.927     1.927   0.0% |
   Communicate to 2D:                        7.799     7.799   0.1% |
   FFT 1D:                                  10.602    10.602   0.1% |
   FFT 2D:                                  10.124    10.124   0.1% |
  XC 3D grid:                              646.769   179.340   1.5% ||
   VdW-DF integral:                        467.429    33.403   0.3% |
    Convolution:                            56.481    56.481   0.5% |
    FFT:                                    36.333    36.333   0.3% |
    gather:                                118.257   118.257   1.0% |
    hmm1:                                   10.228    10.228   0.1% |
    hmm2:                                   21.942    21.942   0.2% |
    iFFT:                                   35.745    35.745   0.3% |
    potential:                             155.039     4.149   0.0% |
     collect:                               11.996    11.996   0.1% |
     p1:                                    93.973    93.973   0.8% |
     p2:                                    33.658    33.658   0.3% |
     sum:                                   11.263    11.263   0.1% |
    splines:                                 0.002     0.002   0.0% |
  vbar:                                      0.488     0.488   0.0% |
 Orthonormalize:                            78.806     0.002   0.0% |
  calc_s_matrix:                             4.807     4.807   0.0% |
  inverse-cholesky:                         64.146    64.146   0.5% |
  projections:                               0.001     0.001   0.0% |
  rotate_psi_s:                              9.850     9.850   0.1% |
Set symmetry:                                0.001     0.001   0.0% |
Other:                                     584.749   584.749   4.8% |-|
-------------------------------------------------------------------
Total:                                             12177.983 100.0%

Memory usage: 1.52 GiB
Date: Thu Sep 28 01:52:46 2023
