
  ___ ___ ___ _ _ _  
 |   |   |_  | | | | 
 | | | | | . | | | | 
 |__ |  _|___|_____|  22.8.0
 |___|_|             

User:   s204775@a120.nifl.fysik.dtu.dk
Date:   Wed Sep 27 22:49:16 2023
Arch:   x86_64
Pid:    17379
CWD:    /home/cat/s204775/projects/Bachelor_project/O_missing_features
Python: 3.10.4
gpaw:   /home/modules/software/GPAW/22.8.0-intel-2022a/lib/python3.10/site-packages/gpaw
_gpaw:  /home/modules/software/GPAW/22.8.0-intel-2022a/lib/python3.10/site-packages/
        _gpaw.cpython-310-x86_64-linux-gnu.so
ase:    /home/modules/software/ASE/3.22.1-intel-2022a/lib/python3.10/site-packages/ase (version 3.22.1)
numpy:  /home/modules/software/SciPy-bundle/2022.05-intel-2022a/lib/python3.10/site-packages/numpy (version 1.22.3)
scipy:  /home/modules/software/SciPy-bundle/2022.05-intel-2022a/lib/python3.10/site-packages/scipy (version 1.8.1)
libxc:  5.2.3
units:  Angstrom and eV
cores: 40
OpenMP: False
OMP_NUM_THREADS: 1

Input parameters:
  basis: dzp
  h: 0.18
  kpts: {size: (4, 4, 1)}
  xc: BEEF-vdW

System changes: positions, numbers, cell, pbc, initial_charges, initial_magmoms 

Initialize ...

species:
  Pt:
    name: Platinum
    id: 5ed695806aff0c961dba1a84acd7f4b2
    Z: 78.0
    valence: 16
    core: 62
    charge: 0.0
    file: /home/modules/software/GPAW-setups/0.9.20000/Pt.PBE.gz
    compensation charges: {type: gauss,
                           rc: 0.41,
                           lmax: 2}
    cutoffs: {filter: 2.26,
              core: 2.26}
    valence states:
      #              energy  rcut
      - 6s(1.00)    -5.628   1.307
      - 5p(6.00)   -56.051   1.371
      - 6p(0.00)    -0.845   1.371
      - 5d(9.00)    -6.153   1.307
      -  s          21.583   1.307
      -  d          21.058   1.307
  
    # LCAO basis set for Pt:
    #   Name: dzp
    #   File: /home/modules/software/GPAW-setups/0.9.20000/Pt.dzp.basis.gz
    #   Number of radial functions: 9
    #   Number of spherical harmonics: 27
    #     l=0, rc=8.5938 Bohr: 6s-sz confined orbital
    #     l=1, rc=3.5781 Bohr: 5p-sz confined orbital
    #     l=1, rc=13.6250 Bohr: 6p-sz confined orbital
    #     l=2, rc=6.0938 Bohr: 5d-sz confined orbital
    #     l=0, rc=5.0625 Bohr: 6s-dz split-valence wave
    #     l=1, rc=2.4219 Bohr: 5p-dz split-valence wave
    #     l=1, rc=8.3281 Bohr: 6p-dz split-valence wave
    #     l=2, rc=3.6406 Bohr: 5d-dz split-valence wave
    #     l=1, rc=8.5938 Bohr: p-type Gaussian polarization
    #   Number of RI-basis functions 0

  O:
    name: Oxygen
    id: 32ecd46bf208036f09c70b0ec9a88b78
    Z: 8.0
    valence: 6
    core: 2
    charge: 0.0
    file: /home/modules/software/GPAW-setups/0.9.20000/O.PBE.gz
    compensation charges: {type: gauss,
                           rc: 0.21,
                           lmax: 2}
    cutoffs: {filter: 1.17,
              core: 0.83}
    valence states:
      #              energy  rcut
      - 2s(2.00)   -23.961   0.688
      - 2p(4.00)    -9.029   0.598
      -  s           3.251   0.688
      -  p          18.182   0.598
      -  d           0.000   0.619
  
    # LCAO basis set for O:
    #   Name: dzp
    #   File: /home/modules/software/GPAW-setups/0.9.20000/O.dzp.basis.gz
    #   Number of radial functions: 5
    #   Number of spherical harmonics: 13
    #     l=0, rc=4.3438 Bohr: 2s-sz confined orbital
    #     l=1, rc=5.3906 Bohr: 2p-sz confined orbital
    #     l=0, rc=2.2969 Bohr: 2s-dz split-valence wave
    #     l=1, rc=2.8906 Bohr: 2p-dz split-valence wave
    #     l=2, rc=5.3906 Bohr: d-type Gaussian polarization
    #   Number of RI-basis functions 0

Reference energy: -18015553.911929  # eV

Spin-paired calculation

Convergence criteria:
 Maximum [total energy] change in last 3 cyles: 0.0005 eV / electron
 Maximum integral of absolute [dens]ity change: 0.0001 electrons / valence electron
 Maximum integral of absolute [eigenst]ate change: 4e-08 eV^2 / valence electron
 Maximum number of scf [iter]ations: 333
 (Square brackets indicate name in SCF output, whereas a 'c' in
 the SCF output indicates the quantity has converged.)

Symmetries present (total): 1

  ( 1  0  0)
  ( 0  1  0)
  ( 0  0  1)

16 k-points: 4 x 4 x 1 Monkhorst-Pack grid
8 k-points in the irreducible part of the Brillouin zone
       k-points in crystal coordinates                weights
   0:     0.12500000   -0.37500000    0.00000000          2/16
   1:     0.12500000   -0.12500000    0.00000000          2/16
   2:     0.12500000    0.12500000    0.00000000          2/16
   3:     0.12500000    0.37500000    0.00000000          2/16
   4:     0.37500000   -0.37500000    0.00000000          2/16
   5:     0.37500000   -0.12500000    0.00000000          2/16
   6:     0.37500000    0.12500000    0.00000000          2/16
   7:     0.37500000    0.37500000    0.00000000          2/16

Wave functions: Uniform real-space grid
  Kinetic energy operator: 8*3+1=25 point O(h^6) finite-difference Laplacian
  ScaLapack parameters: grid=1x1, blocksize=None
  Wavefunction extrapolation:
    Improved wavefunction reuse through dual PAW basis 

Occupation numbers: Fermi-Dirac:
  width: 0.1000  # eV
 

Eigensolver
   Davidson(niter=2) 

Densities:
  Coarse grid: 40*40*148 grid
  Fine grid: 80*80*296 grid
  Total Charge: 0.000000 

Density mixing:
  Method: separate
  Backend: pulay
  Linear mixing parameter: 0.05
  old densities: 5
  Damping of long wavelength oscillations: 50 

Hamiltonian:
  XC and Coulomb potentials evaluated on a 80*80*296 grid
  Using the BEEF-vdW Exchange-Correlation functional
  Interpolation: tri-quintic (5. degree polynomial)
  Poisson solver: FastPoissonSolver using
    Stencil: 8*3+1=25 point O(h^6) finite-difference Laplacian
    FFT axes: [0, 1]
    FST axes: [2]
 

XC parameters: BEEF-vdW with 2 nearest neighbor stencil

Memory estimate:
  Process memory now: 197.19 MiB
  Calculator: 601.61 MiB
    Density: 61.12 MiB
      Arrays: 9.35 MiB
      Localized functions: 48.23 MiB
      Mixer: 3.54 MiB
    Hamiltonian: 9.11 MiB
      Arrays: 6.12 MiB
      XC: 0.00 MiB
      Poisson: 0.00 MiB
      vbar: 2.99 MiB
    Wavefunctions: 531.38 MiB
      Arrays psit_nG: 250.63 MiB
      Eigensolver: 273.31 MiB
      Projections: 0.71 MiB
      Projectors: 6.72 MiB

Total number of cores used: 40
Parallelization over k-points: 8
Domain decomposition: 1 x 1 x 5

Number of atoms: 37
Number of atomic orbitals: 985
Number of bands in calculation: 354
Number of valence electrons: 582
Bands to converge: occupied

... initialized

Initializing position-dependent things.

Density initialized from atomic densities
Creating initial wave functions:
  354 bands from LCAO basis set

                                            
                                            
                                            
                                            
                                            
          Pt     Pt O   Pt                  
                                            
           PPt    PPt    PPt                
              Pt     Pt     Pt              
             Pt     Pt     Pt               
              PPt    PPt    PPt             
                                            
                Pt     Pt     Pt            
                  Pt     Pt     Pt          
          Pt     Pt     Pt                  
            Pt     Pt     Pt                
              Pt     Pt     Pt              
                                            
                                            
                                            
                                            

Positions:
   0 Pt     0.000000    0.000000    9.999999    ( 0.0000,  0.0000,  0.0000)
   1 Pt     1.419843    0.819746   12.318592    ( 0.0000,  0.0000,  0.0000)
   2 Pt    -0.000000    1.640639   14.624752    ( 0.0000,  0.0000,  0.0000)
   3 Pt     0.000000    0.000000   16.964617    ( 0.0000,  0.0000,  0.0000)
   4 Pt    -1.419843    2.459239    9.999999    ( 0.0000,  0.0000,  0.0000)
   5 Pt     0.000000    3.278986   12.318592    ( 0.0000,  0.0000,  0.0000)
   6 Pt    -1.421365    4.097854   14.620818    ( 0.0000,  0.0000,  0.0000)
   7 Pt    -1.420304    2.459321   16.958214    ( 0.0000,  0.0000,  0.0000)
   8 Pt    -2.839685    4.918479    9.999999    ( 0.0000,  0.0000,  0.0000)
   9 Pt    -1.419843    5.738225   12.318592    ( 0.0000,  0.0000,  0.0000)
  10 Pt    -2.838693    6.557399   14.624752    ( 0.0000,  0.0000,  0.0000)
  11 Pt    -2.839845    4.918039   16.958214    ( 0.0000,  0.0000,  0.0000)
  12 Pt     2.839685    0.000000    9.999999    ( 0.0000,  0.0000,  0.0000)
  13 Pt     4.259528    0.819746   12.318592    ( 0.0000,  0.0000,  0.0000)
  14 Pt     2.839698    1.639501   14.619309    ( 0.0000,  0.0000,  0.0000)
  15 Pt     2.839987    0.000358   16.958214    ( 0.0000,  0.0000,  0.0000)
  16 Pt     1.419843    2.459239    9.999999    ( 0.0000,  0.0000,  0.0000)
  17 Pt     2.839685    3.278986   12.318592    ( 0.0000,  0.0000,  0.0000)
  18 Pt     1.421365    4.097854   14.620818    ( 0.0000,  0.0000,  0.0000)
  19 Pt     1.420304    2.459321   16.958214    ( 0.0000,  0.0000,  0.0000)
  20 Pt     0.000000    4.918479    9.999999    ( 0.0000,  0.0000,  0.0000)
  21 Pt     1.419843    5.738225   12.318592    ( 0.0000,  0.0000,  0.0000)
  22 Pt    -0.000000    6.559730   14.620818    ( 0.0000,  0.0000,  0.0000)
  23 Pt    -0.000000    4.918479   16.949331    ( 0.0000,  0.0000,  0.0000)
  24 Pt     5.679370    0.000000    9.999999    ( 0.0000,  0.0000,  0.0000)
  25 Pt     7.099213    0.819746   12.318592    ( 0.0000,  0.0000,  0.0000)
  26 Pt     5.679357    1.639501   14.619309    ( 0.0000,  0.0000,  0.0000)
  27 Pt     5.679069    0.000358   16.958214    ( 0.0000,  0.0000,  0.0000)
  28 Pt     4.259528    2.459239    9.999999    ( 0.0000,  0.0000,  0.0000)
  29 Pt     5.679370    3.278986   12.318592    ( 0.0000,  0.0000,  0.0000)
  30 Pt     4.259528    4.098717   14.619309    ( 0.0000,  0.0000,  0.0000)
  31 Pt     4.259528    2.459239   16.950151    ( 0.0000,  0.0000,  0.0000)
  32 Pt     2.839685    4.918479    9.999999    ( 0.0000,  0.0000,  0.0000)
  33 Pt     4.259528    5.738225   12.318592    ( 0.0000,  0.0000,  0.0000)
  34 Pt     2.838693    6.557399   14.624752    ( 0.0000,  0.0000,  0.0000)
  35 Pt     2.839845    4.918039   16.958214    ( 0.0000,  0.0000,  0.0000)
  36 O      1.420304    4.098915   17.778010    ( 0.0000,  0.0000,  0.0000)

Unit cell:
           periodic     x           y           z      points  spacing
  1. axis:    yes    8.519055    0.000000    0.000000    40     0.1844
  2. axis:    yes   -4.259528    7.377718    0.000000    40     0.1844
  3. axis:    no     0.000000    0.000000   26.955778   148     0.1821

  Lengths:   8.519055   8.519055  26.955778
  Angles:   90.000000  90.000000 120.000000

Effective grid spacing dv^(1/3) = 0.1927

     iter     time        total  log10-change:
                         energy  eigst   dens
iter:   1 22:50:37 -11910.014699
iter:   2 22:51:11 -11944.648026  -0.62  -1.37
iter:   3 22:51:46 -11902.681592  -1.32  -1.23
iter:   4 22:52:20 -11903.489584  -1.50  -1.45
iter:   5 22:52:54 -11897.365061  -1.81  -1.49
iter:   6 22:53:28 -11895.886465  -1.34  -1.61
iter:   7 22:54:02 -11896.038081  -1.82  -1.83
iter:   8 22:54:36 -11895.497592  -2.52  -1.93
iter:   9 22:55:10 -11895.283807  -2.23  -2.03
iter:  10 22:55:44 -11895.261588c -2.54  -2.18
iter:  11 22:56:18 -11895.219565c -3.16  -2.28
iter:  12 22:56:53 -11895.229366c -2.75  -2.36
iter:  13 22:57:27 -11895.251041c -2.90  -2.57
iter:  14 22:58:01 -11895.237050c -3.30  -2.63
iter:  15 22:58:35 -11895.192352c -3.51  -2.70
iter:  16 22:59:09 -11895.189987c -3.71  -2.99
iter:  17 22:59:43 -11895.189486c -4.04  -3.17
iter:  18 23:00:17 -11895.188511c -4.67  -3.25
iter:  19 23:00:51 -11895.188217c -4.87  -3.34
iter:  20 23:01:25 -11895.187972c -4.93  -3.43
iter:  21 23:01:59 -11895.188082c -5.13  -3.41
iter:  22 23:02:33 -11895.187388c -5.61  -3.57
iter:  23 23:03:07 -11895.187413c -5.89  -3.68
iter:  24 23:03:41 -11895.187594c -5.76  -3.72
iter:  25 23:04:15 -11895.187470c -6.32  -3.82
iter:  26 23:04:50 -11895.187696c -6.47  -3.86
iter:  27 23:05:24 -11895.187472c -6.69  -3.88
iter:  28 23:05:58 -11895.187639c -6.18  -3.91
iter:  29 23:06:32 -11895.187562c -6.31  -4.10c
iter:  30 23:07:06 -11895.187544c -6.39  -4.29c
iter:  31 23:07:40 -11895.187596c -6.86  -4.47c
iter:  32 23:08:14 -11895.187562c -7.49c -4.52c

Converged after 32 iterations.

Dipole moment: (-4.241828, -7.291943, 0.082191) |e|*Ang

Energy contributions relative to reference atoms: (reference = -18015553.911929)

Kinetic:       +853.997171
Potential:     -866.314917
External:        +0.000000
XC:            -11862.736676
Entropy (-ST):   -2.198538
Local:          -19.033871
--------------------------
Free energy:   -11896.286831
Extrapolated:  -11895.187562

Showing only first 2 kpts
 Kpt  Band  Eigenvalues  Occupancy
  0   289     -5.78756    1.26323
  0   290     -5.77409    1.19955
  0   291     -5.70738    0.86947
  0   292     -5.69359    0.80238

  1   289     -5.96782    1.82456
  1   290     -5.89298    1.66219
  1   291     -5.87203    1.59924
  1   292     -5.87053    1.59441


Fermi level: -5.73364

No gap

Forces in eV/Ang:
  0 Pt    0.00313   -0.00179   -0.12657
  1 Pt    0.01104    0.02578    0.11140
  2 Pt   -0.02173   -0.10732   -0.04460
  3 Pt    0.08011   -0.04603   -0.12409
  4 Pt    0.01260    0.02038   -0.12629
  5 Pt   -0.02019   -0.00931    0.09459
  6 Pt   -0.09399    0.03578   -0.06068
  7 Pt   -0.32094   -0.18419   -0.05850
  8 Pt    0.00215   -0.00524   -0.10309
  9 Pt    0.01294   -0.00747    0.14693
 10 Pt   -0.00331    0.00190   -0.03759
 11 Pt    0.00604    0.08552   -0.12045
 12 Pt    0.00561    0.00078   -0.10311
 13 Pt    0.04431    0.00807    0.02241
 14 Pt    0.02509   -0.10095   -0.04340
 15 Pt   -0.07118   -0.04784   -0.12040
 16 Pt    0.00750    0.01443   -0.12381
 17 Pt   -0.00255    0.00149    0.05191
 18 Pt    0.00302   -0.00184   -0.76040
 19 Pt    0.00603   -4.55621   -1.24386
 20 Pt    0.00978   -0.00564   -0.09026
 21 Pt   -0.00201    0.02211    0.09461
 22 Pt   -0.07793    0.06363   -0.06101
 23 Pt   -3.89439    2.24673   -1.23875
 24 Pt   -0.01135   -0.02108   -0.12629
 25 Pt   -0.06129    0.03542    0.02403
 26 Pt   -0.00271    0.00155   -0.09602
 27 Pt   -0.00097    0.37020   -0.05857
 28 Pt   -0.02445    0.01412   -0.08600
 29 Pt    0.01520   -0.04244    0.02233
 30 Pt    0.09991    0.02880   -0.04321
 31 Pt    0.32799   -0.18941   -0.06156
 32 Pt   -0.00874   -0.01370   -0.12380
 33 Pt   -0.01679   -0.02243    0.11141
 34 Pt    0.08204    0.07253   -0.04473
 35 Pt    3.95875    2.27692   -1.25004
 36 O    -0.06416    0.02803    5.78803

      Step     Time          Energy         fmax
BFGS:    0 23:08:31   -11895.187562        5.7885
System changes: positions 

Initializing position-dependent things.

Density initialized from wave functions
                                            
                                            
                                            
                                            
                                            
                    O                       
          Pt     Pt     Pt                  
            Pt     Pt     Pt                
           Pt     Pt     Pt                 
             PPt    PPt    PPt              
                                            
              PPt    PPt    PPt             
                                            
                Pt     Pt     Pt            
                  Pt     Pt     Pt          
          Pt     Pt     Pt                  
            Pt     Pt     Pt                
              Pt     Pt     Pt              
                                            
                                            
                                            
                                            

Positions:
   0 Pt     0.000000    0.000000    9.999999    ( 0.0000,  0.0000,  0.0000)
   1 Pt     1.419843    0.819746   12.318592    ( 0.0000,  0.0000,  0.0000)
   2 Pt    -0.000310    1.639106   14.624115    ( 0.0000,  0.0000,  0.0000)
   3 Pt     0.001144   -0.000658   16.962844    ( 0.0000,  0.0000,  0.0000)
   4 Pt    -1.419843    2.459239    9.999999    ( 0.0000,  0.0000,  0.0000)
   5 Pt     0.000000    3.278986   12.318592    ( 0.0000,  0.0000,  0.0000)
   6 Pt    -1.422707    4.098365   14.619952    ( 0.0000,  0.0000,  0.0000)
   7 Pt    -1.424889    2.456690   16.957378    ( 0.0000,  0.0000,  0.0000)
   8 Pt    -2.839685    4.918479    9.999999    ( 0.0000,  0.0000,  0.0000)
   9 Pt    -1.419843    5.738225   12.318592    ( 0.0000,  0.0000,  0.0000)
  10 Pt    -2.838740    6.557426   14.624215    ( 0.0000,  0.0000,  0.0000)
  11 Pt    -2.839759    4.919260   16.956493    ( 0.0000,  0.0000,  0.0000)
  12 Pt     2.839685    0.000000    9.999999    ( 0.0000,  0.0000,  0.0000)
  13 Pt     4.259528    0.819746   12.318592    ( 0.0000,  0.0000,  0.0000)
  14 Pt     2.840057    1.638059   14.618689    ( 0.0000,  0.0000,  0.0000)
  15 Pt     2.838970   -0.000325   16.956494    ( 0.0000,  0.0000,  0.0000)
  16 Pt     1.419843    2.459239    9.999999    ( 0.0000,  0.0000,  0.0000)
  17 Pt     2.839685    3.278986   12.318592    ( 0.0000,  0.0000,  0.0000)
  18 Pt     1.421408    4.097827   14.609956    ( 0.0000,  0.0000,  0.0000)
  19 Pt     1.420390    2.394232   16.940444    ( 0.0000,  0.0000,  0.0000)
  20 Pt     0.000000    4.918479    9.999999    ( 0.0000,  0.0000,  0.0000)
  21 Pt     1.419843    5.738225   12.318592    ( 0.0000,  0.0000,  0.0000)
  22 Pt    -0.001113    6.560639   14.619947    ( 0.0000,  0.0000,  0.0000)
  23 Pt    -0.055634    4.950575   16.931634    ( 0.0000,  0.0000,  0.0000)
  24 Pt     5.679370    0.000000    9.999999    ( 0.0000,  0.0000,  0.0000)
  25 Pt     7.099213    0.819746   12.318592    ( 0.0000,  0.0000,  0.0000)
  26 Pt     5.679318    1.639523   14.617937    ( 0.0000,  0.0000,  0.0000)
  27 Pt     5.679055    0.005647   16.957377    ( 0.0000,  0.0000,  0.0000)
  28 Pt     4.259528    2.459239    9.999999    ( 0.0000,  0.0000,  0.0000)
  29 Pt     5.679370    3.278986   12.318592    ( 0.0000,  0.0000,  0.0000)
  30 Pt     4.260955    4.099129   14.618691    ( 0.0000,  0.0000,  0.0000)
  31 Pt     4.264213    2.456534   16.949271    ( 0.0000,  0.0000,  0.0000)
  32 Pt     2.839685    4.918479    9.999999    ( 0.0000,  0.0000,  0.0000)
  33 Pt     4.259528    5.738225   12.318592    ( 0.0000,  0.0000,  0.0000)
  34 Pt     2.839865    6.558435   14.624113    ( 0.0000,  0.0000,  0.0000)
  35 Pt     2.896398    4.950566   16.940356    ( 0.0000,  0.0000,  0.0000)
  36 O      1.419387    4.099315   17.860697    ( 0.0000,  0.0000,  0.0000)

Unit cell:
           periodic     x           y           z      points  spacing
  1. axis:    yes    8.519055    0.000000    0.000000    40     0.1844
  2. axis:    yes   -4.259528    7.377718    0.000000    40     0.1844
  3. axis:    no     0.000000    0.000000   26.955778   148     0.1821

  Lengths:   8.519055   8.519055  26.955778
  Angles:   90.000000  90.000000 120.000000

Effective grid spacing dv^(1/3) = 0.1927

     iter     time        total  log10-change:
                         energy  eigst   dens
iter:   1 23:09:57 -11900.640605  -1.03
iter:   2 23:10:32 -11916.506248  -1.48  -1.99
iter:   3 23:11:07 -11900.321445  -1.62  -1.56
iter:   4 23:11:42 -11898.940647  -1.94  -1.85
iter:   5 23:12:17 -11896.514922  -2.66  -2.00
iter:   6 23:12:51 -11896.242176  -3.04  -2.50
iter:   7 23:13:26 -11896.200667  -3.33  -2.74
iter:   8 23:14:01 -11896.167792c -3.25  -2.79
iter:   9 23:14:35 -11896.156286c -3.88  -2.94
iter:  10 23:15:10 -11896.155339c -3.82  -3.11
iter:  11 23:15:45 -11896.146625c -3.95  -3.03
iter:  12 23:16:19 -11896.145913c -4.45  -3.36
iter:  13 23:16:54 -11896.145134c -5.10  -3.39
iter:  14 23:17:29 -11896.145341c -4.91  -3.53
iter:  15 23:18:04 -11896.144701c -5.22  -3.56
iter:  16 23:18:38 -11896.146450c -5.36  -3.62
iter:  17 23:19:13 -11896.144956c -5.52  -3.46
iter:  18 23:19:47 -11896.145276c -5.74  -3.71
iter:  19 23:20:22 -11896.145123c -5.55  -3.73
iter:  20 23:20:57 -11896.144977c -5.66  -3.79
iter:  21 23:21:31 -11896.145047c -5.88  -4.17c
iter:  22 23:22:06 -11896.144831c -6.50  -4.08c
iter:  23 23:22:41 -11896.144865c -6.66  -4.14c
iter:  24 23:23:16 -11896.144826c -7.11  -4.38c
iter:  25 23:23:50 -11896.144825c -6.89  -4.58c
iter:  26 23:24:25 -11896.144817c -7.34  -4.76c
iter:  27 23:25:00 -11896.144829c -7.67c -4.75c

Converged after 27 iterations.

Dipole moment: (-3.976732, -7.430218, 0.026920) |e|*Ang

Energy contributions relative to reference atoms: (reference = -18015553.911929)

Kinetic:       +836.542750
Potential:     -852.159579
External:        +0.000000
XC:            -11860.454889
Entropy (-ST):   -2.238576
Local:          -18.953823
--------------------------
Free energy:   -11897.264117
Extrapolated:  -11896.144829

Showing only first 2 kpts
 Kpt  Band  Eigenvalues  Occupancy
  0   289     -5.83794    1.26468
  0   290     -5.82827    1.21917
  0   291     -5.75840    0.87411
  0   292     -5.74355    0.80185

  1   289     -6.01353    1.81745
  1   290     -5.94420    1.66541
  1   291     -5.91974    1.59162
  1   292     -5.91266    1.56811


Fermi level: -5.78371

No gap

Forces in eV/Ang:
  0 Pt    0.00666   -0.00383   -0.12463
  1 Pt    0.01146    0.02562    0.09966
  2 Pt   -0.04934   -0.08655   -0.11986
  3 Pt    0.05163   -0.02925   -0.08668
  4 Pt    0.01208    0.01954   -0.12145
  5 Pt   -0.02938   -0.01496    0.07047
  6 Pt   -0.09188    0.00172   -0.13244
  7 Pt   -0.22575   -0.12514   -0.04574
  8 Pt    0.00350   -0.00084   -0.10217
  9 Pt    0.01281   -0.00739    0.13275
 10 Pt   -0.00305    0.00180   -0.10073
 11 Pt    0.00697    0.04711   -0.08483
 12 Pt    0.00248   -0.00259   -0.10218
 13 Pt    0.04290    0.00881    0.05163
 14 Pt    0.05278   -0.08183   -0.11540
 15 Pt   -0.03755   -0.02915   -0.08483
 16 Pt    0.00766    0.01247   -0.12461
 17 Pt    0.00668   -0.00384    0.02777
 18 Pt   -0.00282    0.00158   -0.36261
 19 Pt   -0.00526   -1.66302   -0.19257
 20 Pt    0.00763   -0.00439   -0.09084
 21 Pt   -0.00172    0.03288    0.07048
 22 Pt   -0.04734    0.07875   -0.13256
 23 Pt   -1.43008    0.82510   -0.18514
 24 Pt   -0.01088   -0.02021   -0.12144
 25 Pt   -0.06162    0.03559    0.05533
 26 Pt   -0.00163    0.00092   -0.09477
 27 Pt   -0.00456    0.25809   -0.04582
 28 Pt   -0.02367    0.01367   -0.07993
 29 Pt    0.01383   -0.04157    0.05164
 30 Pt    0.09743   -0.00489   -0.11565
 31 Pt    0.22218   -0.12835   -0.04480
 32 Pt   -0.00697   -0.01286   -0.12461
 33 Pt   -0.01643   -0.02272    0.09966
 34 Pt    0.05021    0.08624   -0.12022
 35 Pt    1.43977    0.83675   -0.19420
 36 O    -0.00651    0.00272    2.64304

BFGS:    1 23:25:16   -11896.144829        2.6430
System changes: positions 

Initializing position-dependent things.

Density initialized from wave functions
                                            
                                            
                                            
                                            
                                            
                    O                       
          Pt     Pt     Pt                  
            Pt     Pt     Pt                
           Pt     Pt     Pt                 
             PPt    PPt    PPt              
                                            
              PPt    PPt    PPt             
                                            
                Pt     Pt     Pt            
                  Pt     Pt     Pt          
          Pt     Pt     Pt                  
            Pt     Pt     Pt                
              Pt     Pt     Pt              
                                            
                                            
                                            
                                            

Positions:
   0 Pt     0.000000    0.000000    9.999999    ( 0.0000,  0.0000,  0.0000)
   1 Pt     1.419843    0.819746   12.318592    ( 0.0000,  0.0000,  0.0000)
   2 Pt    -0.001469    1.637058   14.621303    ( 0.0000,  0.0000,  0.0000)
   3 Pt     0.002369   -0.001352   16.960790    ( 0.0000,  0.0000,  0.0000)
   4 Pt    -1.419843    2.459239    9.999999    ( 0.0000,  0.0000,  0.0000)
   5 Pt     0.000000    3.278986   12.318592    ( 0.0000,  0.0000,  0.0000)
   6 Pt    -1.424876    4.098413   14.616842    ( 0.0000,  0.0000,  0.0000)
   7 Pt    -1.430238    2.453723   16.956296    ( 0.0000,  0.0000,  0.0000)
   8 Pt    -2.839685    4.918479    9.999999    ( 0.0000,  0.0000,  0.0000)
   9 Pt    -1.419843    5.738225   12.318592    ( 0.0000,  0.0000,  0.0000)
  10 Pt    -2.838812    6.557469   14.621852    ( 0.0000,  0.0000,  0.0000)
  11 Pt    -2.839594    4.920381   16.954483    ( 0.0000,  0.0000,  0.0000)
  12 Pt     2.839685    0.000000    9.999999    ( 0.0000,  0.0000,  0.0000)
  13 Pt     4.259528    0.819746   12.318592    ( 0.0000,  0.0000,  0.0000)
  14 Pt     2.841296    1.636123   14.615981    ( 0.0000,  0.0000,  0.0000)
  15 Pt     2.838076   -0.001017   16.954484    ( 0.0000,  0.0000,  0.0000)
  16 Pt     1.419843    2.459239    9.999999    ( 0.0000,  0.0000,  0.0000)
  17 Pt     2.839685    3.278986   12.318592    ( 0.0000,  0.0000,  0.0000)
  18 Pt     1.421342    4.097864   14.601308    ( 0.0000,  0.0000,  0.0000)
  19 Pt     1.420268    2.354335   16.935664    ( 0.0000,  0.0000,  0.0000)
  20 Pt     0.000000    4.918479    9.999999    ( 0.0000,  0.0000,  0.0000)
  21 Pt     1.419843    5.738225   12.318592    ( 0.0000,  0.0000,  0.0000)
  22 Pt    -0.002238    6.562494   14.616834    ( 0.0000,  0.0000,  0.0000)
  23 Pt    -0.089938    4.970367   16.927029    ( 0.0000,  0.0000,  0.0000)
  24 Pt     5.679370    0.000000    9.999999    ( 0.0000,  0.0000,  0.0000)
  25 Pt     7.099213    0.819746   12.318592    ( 0.0000,  0.0000,  0.0000)
  26 Pt     5.679280    1.639545   14.615700    ( 0.0000,  0.0000,  0.0000)
  27 Pt     5.678948    0.011764   16.956293    ( 0.0000,  0.0000,  0.0000)
  28 Pt     4.259528    2.459239    9.999999    ( 0.0000,  0.0000,  0.0000)
  29 Pt     5.679370    3.278986   12.318592    ( 0.0000,  0.0000,  0.0000)
  30 Pt     4.263255    4.099021   14.615978    ( 0.0000,  0.0000,  0.0000)
  31 Pt     4.269481    2.453491   16.948210    ( 0.0000,  0.0000,  0.0000)
  32 Pt     2.839685    4.918479    9.999999    ( 0.0000,  0.0000,  0.0000)
  33 Pt     4.259528    5.738225   12.318592    ( 0.0000,  0.0000,  0.0000)
  34 Pt     2.841057    6.560468   14.621292    ( 0.0000,  0.0000,  0.0000)
  35 Pt     2.930943    4.970637   16.935536    ( 0.0000,  0.0000,  0.0000)
  36 O      1.419221    4.099385   17.923781    ( 0.0000,  0.0000,  0.0000)

Unit cell:
           periodic     x           y           z      points  spacing
  1. axis:    yes    8.519055    0.000000    0.000000    40     0.1844
  2. axis:    yes   -4.259528    7.377718    0.000000    40     0.1844
  3. axis:    no     0.000000    0.000000   26.955778   148     0.1821

  Lengths:   8.519055   8.519055  26.955778
  Angles:   90.000000  90.000000 120.000000

Effective grid spacing dv^(1/3) = 0.1927

     iter     time        total  log10-change:
                         energy  eigst   dens
iter:   1 23:26:42 -11898.752355  -1.45
iter:   2 23:27:17 -11913.873543  -1.61  -2.06
iter:   3 23:27:52 -11898.177595  -1.79  -1.60
iter:   4 23:28:27 -11897.217332  -2.50  -2.02
iter:   5 23:29:01 -11896.483855  -3.18  -2.26
iter:   6 23:29:36 -11896.416206  -3.61  -2.76
iter:   7 23:30:11 -11896.404159c -3.79  -2.94
iter:   8 23:30:46 -11896.391102c -3.60  -2.96
iter:   9 23:31:21 -11896.385687c -4.23  -3.14
iter:  10 23:31:56 -11896.384332c -4.25  -3.32
iter:  11 23:32:31 -11896.381589c -4.57  -3.32
iter:  12 23:33:06 -11896.382459c -5.04  -3.54
iter:  13 23:33:41 -11896.380935c -5.57  -3.48
iter:  14 23:34:16 -11896.380943c -5.35  -3.61
iter:  15 23:34:50 -11896.380660c -5.24  -3.72
iter:  16 23:35:25 -11896.380754c -5.90  -3.84
iter:  17 23:36:00 -11896.380816c -6.04  -3.86
iter:  18 23:36:35 -11896.380760c -6.04  -3.92
iter:  19 23:37:10 -11896.380820c -6.16  -3.99
iter:  20 23:37:45 -11896.380651c -6.29  -4.17c
iter:  21 23:38:20 -11896.380604c -6.77  -4.31c
iter:  22 23:38:55 -11896.380586c -7.43c -4.48c

Converged after 22 iterations.

Dipole moment: (-3.705574, -7.571966, -0.009309) |e|*Ang

Energy contributions relative to reference atoms: (reference = -18015553.911929)

Kinetic:       +828.948651
Potential:     -845.913792
External:        +0.000000
XC:            -11859.368236
Entropy (-ST):   -2.262567
Local:          -18.915926
--------------------------
Free energy:   -11897.511870
Extrapolated:  -11896.380586

Showing only first 2 kpts
 Kpt  Band  Eigenvalues  Occupancy
  0   289     -5.86715    1.26118
  0   290     -5.85931    1.22430
  0   291     -5.78846    0.87462
  0   292     -5.77279    0.79841

  1   289     -6.03986    1.81135
  1   290     -5.97241    1.66049
  1   291     -5.94853    1.58780
  1   292     -5.93501    1.54179


Fermi level: -5.81367

No gap

Forces in eV/Ang:
  0 Pt    0.00856   -0.00492   -0.11562
  1 Pt    0.01196    0.02604    0.07527
  2 Pt   -0.04214   -0.05016   -0.12714
  3 Pt    0.03119   -0.01734   -0.07671
  4 Pt    0.01077    0.01824   -0.10901
  5 Pt   -0.03497   -0.01893    0.04134
  6 Pt   -0.05671   -0.01181   -0.13244
  7 Pt   -0.14577   -0.07609   -0.05637
  8 Pt    0.00412    0.00181   -0.09367
  9 Pt    0.01260   -0.00727    0.10601
 10 Pt   -0.00388    0.00227   -0.11753
 11 Pt    0.00748    0.02089   -0.07619
 12 Pt    0.00050   -0.00445   -0.09368
 13 Pt    0.04484    0.01104    0.04672
 14 Pt    0.04674   -0.04450   -0.11476
 15 Pt   -0.01459   -0.01638   -0.07619
 16 Pt    0.00771    0.01155   -0.11677
 17 Pt    0.01267   -0.00731   -0.00061
 18 Pt   -0.00828    0.00475   -0.11473
 19 Pt    0.00622   -0.36949    0.25650
 20 Pt    0.00630   -0.00362   -0.08313
 21 Pt   -0.00108    0.03970    0.04132
 22 Pt   -0.01808    0.05503   -0.13244
 23 Pt   -0.32878    0.18966    0.25351
 24 Pt   -0.01041   -0.01844   -0.10902
 25 Pt   -0.06480    0.03744    0.05190
 26 Pt   -0.00092    0.00052   -0.08405
 27 Pt   -0.00705    0.16430   -0.05650
 28 Pt   -0.02215    0.01279   -0.06709
 29 Pt    0.01289   -0.04436    0.04674
 30 Pt    0.06214   -0.01834   -0.11511
 31 Pt    0.13227   -0.07643   -0.04953
 32 Pt   -0.00615   -0.01244   -0.11677
 33 Pt   -0.01655   -0.02336    0.07524
 34 Pt    0.02235    0.06184   -0.12751
 35 Pt    0.32341    0.17931    0.25633
 36 O     0.01484   -0.01028    1.15338

BFGS:    2 23:39:11   -11896.380586        1.1535
System changes: positions 

Initializing position-dependent things.

Density initialized from wave functions
                                            
                                            
                                            
                                            
                                            
                    O                       
          Pt     Pt     Pt                  
            Pt     Pt     Pt                
           Pt     Pt     Pt                 
             PPt    PPt    PPt              
                                            
              PPt    PPt    PPt             
                                            
                Pt     Pt     Pt            
                  Pt     Pt     Pt          
          Pt     Pt     Pt                  
            Pt     Pt     Pt                
              Pt     Pt     Pt              
                                            
                                            
                                            
                                            

Positions:
   0 Pt     0.000000    0.000000    9.999999    ( 0.0000,  0.0000,  0.0000)
   1 Pt     1.419843    0.819746   12.318592    ( 0.0000,  0.0000,  0.0000)
   2 Pt    -0.002600    1.635552   14.618036    ( 0.0000,  0.0000,  0.0000)
   3 Pt     0.003300   -0.001872   16.958719    ( 0.0000,  0.0000,  0.0000)
   4 Pt    -1.419843    2.459239    9.999999    ( 0.0000,  0.0000,  0.0000)
   5 Pt     0.000000    3.278986   12.318592    ( 0.0000,  0.0000,  0.0000)
   6 Pt    -1.426542    4.098184   14.613397    ( 0.0000,  0.0000,  0.0000)
   7 Pt    -1.434494    2.451461   16.954871    ( 0.0000,  0.0000,  0.0000)
   8 Pt    -2.839685    4.918479    9.999999    ( 0.0000,  0.0000,  0.0000)
   9 Pt    -1.419843    5.738225   12.318592    ( 0.0000,  0.0000,  0.0000)
  10 Pt    -2.838910    6.557526   14.618882    ( 0.0000,  0.0000,  0.0000)
  11 Pt    -2.839402    4.921074   16.952434    ( 0.0000,  0.0000,  0.0000)
  12 Pt     2.839685    0.000000    9.999999    ( 0.0000,  0.0000,  0.0000)
  13 Pt     4.259528    0.819746   12.318592    ( 0.0000,  0.0000,  0.0000)
  14 Pt     2.842542    1.634760   14.612996    ( 0.0000,  0.0000,  0.0000)
  15 Pt     2.837565   -0.001517   16.952434    ( 0.0000,  0.0000,  0.0000)
  16 Pt     1.419843    2.459239    9.999999    ( 0.0000,  0.0000,  0.0000)
  17 Pt     2.839685    3.278986   12.318592    ( 0.0000,  0.0000,  0.0000)
  18 Pt     1.421156    4.097971   14.596908    ( 0.0000,  0.0000,  0.0000)
  19 Pt     1.420375    2.337127   16.939746    ( 0.0000,  0.0000,  0.0000)
  20 Pt     0.000000    4.918479    9.999999    ( 0.0000,  0.0000,  0.0000)
  21 Pt     1.419843    5.738225   12.318592    ( 0.0000,  0.0000,  0.0000)
  22 Pt    -0.002871    6.564052   14.613389    ( 0.0000,  0.0000,  0.0000)
  23 Pt    -0.104960    4.979034   16.931085    ( 0.0000,  0.0000,  0.0000)
  24 Pt     5.679370    0.000000    9.999999    ( 0.0000,  0.0000,  0.0000)
  25 Pt     7.099213    0.819746   12.318592    ( 0.0000,  0.0000,  0.0000)
  26 Pt     5.679251    1.639561   14.613445    ( 0.0000,  0.0000,  0.0000)
  27 Pt     5.678778    0.016581   16.954865    ( 0.0000,  0.0000,  0.0000)
  28 Pt     4.259528    2.459239    9.999999    ( 0.0000,  0.0000,  0.0000)
  29 Pt     5.679370    3.278986   12.318592    ( 0.0000,  0.0000,  0.0000)
  30 Pt     4.265064    4.098620   14.612985    ( 0.0000,  0.0000,  0.0000)
  31 Pt     4.273438    2.451204   16.946933    ( 0.0000,  0.0000,  0.0000)
  32 Pt     2.839685    4.918479    9.999999    ( 0.0000,  0.0000,  0.0000)
  33 Pt     4.259528    5.738225   12.318592    ( 0.0000,  0.0000,  0.0000)
  34 Pt     2.841795    6.562208   14.618016    ( 0.0000,  0.0000,  0.0000)
  35 Pt     2.945919    4.979152   16.939605    ( 0.0000,  0.0000,  0.0000)
  36 O      1.419482    4.099190   17.962590    ( 0.0000,  0.0000,  0.0000)

Unit cell:
           periodic     x           y           z      points  spacing
  1. axis:    yes    8.519055    0.000000    0.000000    40     0.1844
  2. axis:    yes   -4.259528    7.377718    0.000000    40     0.1844
  3. axis:    no     0.000000    0.000000   26.955778   148     0.1821

  Lengths:   8.519055   8.519055  26.955778
  Angles:   90.000000  90.000000 120.000000

Effective grid spacing dv^(1/3) = 0.1927

     iter     time        total  log10-change:
                         energy  eigst   dens
iter:   1 23:40:37 -11897.407963  -2.05
iter:   2 23:41:12 -11908.113624  -1.85  -2.19
iter:   3 23:41:47 -11896.814233  -2.12  -1.67
iter:   4 23:42:22 -11896.468093  -3.41  -2.34
iter:   5 23:42:57 -11896.445387  -3.93  -2.89
iter:   6 23:43:32 -11896.433903c -4.74  -3.05
iter:   7 23:44:06 -11896.430556c -4.53  -3.24
iter:   8 23:44:41 -11896.427289c -4.12  -3.27
iter:   9 23:45:16 -11896.426577c -4.97  -3.55
iter:  10 23:45:51 -11896.427048c -5.06  -3.63
iter:  11 23:46:26 -11896.425737c -5.33  -3.54
iter:  12 23:47:01 -11896.425462c -5.23  -3.79
iter:  13 23:47:36 -11896.425667c -5.70  -3.83
iter:  14 23:48:11 -11896.425292c -6.13  -3.77
iter:  15 23:48:46 -11896.425164c -5.58  -3.95
iter:  16 23:49:20 -11896.425169c -6.42  -4.20c
iter:  17 23:49:55 -11896.425157c -6.63  -4.33c
iter:  18 23:50:30 -11896.425145c -7.28  -4.49c
iter:  19 23:51:05 -11896.425109c -7.14  -4.56c
iter:  20 23:51:40 -11896.425129c -7.78c -4.59c

Converged after 20 iterations.

Dipole moment: (-3.497246, -7.681851, -0.027927) |e|*Ang

Energy contributions relative to reference atoms: (reference = -18015553.911929)

Kinetic:       +825.335169
Potential:     -842.878019
External:        +0.000000
XC:            -11858.857665
Entropy (-ST):   -2.272797
Local:          -18.888216
--------------------------
Free energy:   -11897.561527
Extrapolated:  -11896.425129

Showing only first 2 kpts
 Kpt  Band  Eigenvalues  Occupancy
  0   289     -5.88388    1.25845
  0   290     -5.87656    1.22397
  0   291     -5.80591    0.87527
  0   292     -5.78960    0.79597

  1   289     -6.05580    1.80898
  1   290     -5.98773    1.65483
  1   291     -5.96472    1.58410
  1   292     -5.94940    1.53136


Fermi level: -5.83099

No gap

Forces in eV/Ang:
  0 Pt    0.00933   -0.00537   -0.12231
  1 Pt    0.01242    0.02730    0.05780
  2 Pt   -0.01785   -0.02417   -0.10378
  3 Pt    0.02046   -0.01123   -0.06474
  4 Pt    0.01028    0.01763   -0.11339
  5 Pt   -0.03502   -0.01962    0.02413
  6 Pt   -0.02149   -0.00527   -0.10378
  7 Pt   -0.09695   -0.04664   -0.05099
  8 Pt    0.00437    0.00283   -0.10039
  9 Pt    0.01290   -0.00744    0.08692
 10 Pt   -0.00482    0.00280   -0.11571
 11 Pt    0.00695    0.00863   -0.06421
 12 Pt   -0.00026   -0.00518   -0.10040
 13 Pt    0.04614    0.01265    0.03287
 14 Pt    0.02258   -0.01719   -0.08560
 15 Pt   -0.00417   -0.00984   -0.06419
 16 Pt    0.00780    0.01180   -0.12366
 17 Pt    0.01304   -0.00753   -0.01629
 18 Pt   -0.01004    0.00580    0.00011
 19 Pt    0.00476    0.08268    0.40104
 20 Pt    0.00641   -0.00369   -0.09007
 21 Pt   -0.00052    0.04007    0.02409
 22 Pt   -0.00617    0.02124   -0.10372
 23 Pt    0.07821   -0.04518    0.40594
 24 Pt   -0.01012   -0.01772   -0.11340
 25 Pt   -0.06684    0.03863    0.03829
 26 Pt   -0.00064    0.00037   -0.07832
 27 Pt   -0.00810    0.10724   -0.05113
 28 Pt   -0.02129    0.01230   -0.07134
 29 Pt    0.01215   -0.04631    0.03289
 30 Pt    0.02637   -0.01103   -0.08589
 31 Pt    0.07992   -0.04616   -0.03683
 32 Pt   -0.00631   -0.01264   -0.12366
 33 Pt   -0.01740   -0.02437    0.05774
 34 Pt    0.01204    0.02776   -0.10404
 35 Pt   -0.06991   -0.04584    0.40145
 36 O     0.01893   -0.01126    0.47236

BFGS:    3 23:51:57   -11896.425129        0.4729
System changes: positions 

Initializing position-dependent things.

Density initialized from wave functions
                                            
                                            
                                            
                                            
                                            
                    O                       
          Pt     Pt     Pt                  
            Pt     Pt     Pt                
           Pt     Pt     Pt                 
             PPt    PPt    PPt              
                                            
              PPt    PPt    PPt             
                                            
                Pt     Pt     Pt            
                  Pt     Pt     Pt          
          Pt     Pt     Pt                  
            Pt     Pt     Pt                
              Pt     Pt     Pt              
                                            
                                            
                                            
                                            

Positions:
   0 Pt     0.000000    0.000000    9.999999    ( 0.0000,  0.0000,  0.0000)
   1 Pt     1.419843    0.819746   12.318592    ( 0.0000,  0.0000,  0.0000)
   2 Pt    -0.003351    1.634497   14.614811    ( 0.0000,  0.0000,  0.0000)
   3 Pt     0.004068   -0.002298   16.956659    ( 0.0000,  0.0000,  0.0000)
   4 Pt    -1.419843    2.459239    9.999999    ( 0.0000,  0.0000,  0.0000)
   5 Pt     0.000000    3.278986   12.318592    ( 0.0000,  0.0000,  0.0000)
   6 Pt    -1.427588    4.098023   14.610104    ( 0.0000,  0.0000,  0.0000)
   7 Pt    -1.438054    2.449661   16.953344    ( 0.0000,  0.0000,  0.0000)
   8 Pt    -2.839685    4.918479    9.999999    ( 0.0000,  0.0000,  0.0000)
   9 Pt    -1.419843    5.738225   12.318592    ( 0.0000,  0.0000,  0.0000)
  10 Pt    -2.839042    6.557603   14.615514    ( 0.0000,  0.0000,  0.0000)
  11 Pt    -2.839193    4.921527   16.950393    ( 0.0000,  0.0000,  0.0000)
  12 Pt     2.839685    0.000000    9.999999    ( 0.0000,  0.0000,  0.0000)
  13 Pt     4.259528    0.819746   12.318592    ( 0.0000,  0.0000,  0.0000)
  14 Pt     2.843428    1.633898   14.610234    ( 0.0000,  0.0000,  0.0000)
  15 Pt     2.837272   -0.001909   16.950395    ( 0.0000,  0.0000,  0.0000)
  16 Pt     1.419843    2.459239    9.999999    ( 0.0000,  0.0000,  0.0000)
  17 Pt     2.839685    3.278986   12.318592    ( 0.0000,  0.0000,  0.0000)
  18 Pt     1.420892    4.098123   14.595048    ( 0.0000,  0.0000,  0.0000)
  19 Pt     1.420498    2.330851   16.948673    ( 0.0000,  0.0000,  0.0000)
  20 Pt     0.000000    4.918479    9.999999    ( 0.0000,  0.0000,  0.0000)
  21 Pt     1.419843    5.738225   12.318592    ( 0.0000,  0.0000,  0.0000)
  22 Pt    -0.003253    6.565038   14.610096    ( 0.0000,  0.0000,  0.0000)
  23 Pt    -0.110263    4.982092   16.940119    ( 0.0000,  0.0000,  0.0000)
  24 Pt     5.679370    0.000000    9.999999    ( 0.0000,  0.0000,  0.0000)
  25 Pt     7.099213    0.819746   12.318592    ( 0.0000,  0.0000,  0.0000)
  26 Pt     5.679228    1.639574   14.611046    ( 0.0000,  0.0000,  0.0000)
  27 Pt     5.678556    0.020563   16.953334    ( 0.0000,  0.0000,  0.0000)
  28 Pt     4.259528    2.459239    9.999999    ( 0.0000,  0.0000,  0.0000)
  29 Pt     5.679370    3.278986   12.318592    ( 0.0000,  0.0000,  0.0000)
  30 Pt     4.266259    4.098282   14.610214    ( 0.0000,  0.0000,  0.0000)
  31 Pt     4.276557    2.449402   16.945742    ( 0.0000,  0.0000,  0.0000)
  32 Pt     2.839685    4.918479    9.999999    ( 0.0000,  0.0000,  0.0000)
  33 Pt     4.259528    5.738225   12.318592    ( 0.0000,  0.0000,  0.0000)
  34 Pt     2.842334    6.563392   14.614782    ( 0.0000,  0.0000,  0.0000)
  35 Pt     2.951412    4.982178   16.948533    ( 0.0000,  0.0000,  0.0000)
  36 O      1.419924    4.098913   17.987929    ( 0.0000,  0.0000,  0.0000)

Unit cell:
           periodic     x           y           z      points  spacing
  1. axis:    yes    8.519055    0.000000    0.000000    40     0.1844
  2. axis:    yes   -4.259528    7.377718    0.000000    40     0.1844
  3. axis:    no     0.000000    0.000000   26.955778   148     0.1821

  Lengths:   8.519055   8.519055  26.955778
  Angles:   90.000000  90.000000 120.000000

Effective grid spacing dv^(1/3) = 0.1927

     iter     time        total  log10-change:
                         energy  eigst   dens
iter:   1 23:53:22 -11896.911053  -2.49
iter:   2 23:53:57 -11903.444777  -2.11  -2.31
iter:   3 23:54:32 -11896.554049  -2.43  -1.76
iter:   4 23:55:07 -11896.451707  -3.83  -2.60
iter:   5 23:55:42 -11896.450884c -4.36  -3.28
iter:   6 23:56:17 -11896.447351c -5.27  -3.27
iter:   7 23:56:52 -11896.446112c -5.04  -3.48
iter:   8 23:57:26 -11896.445252c -4.65  -3.54
iter:   9 23:58:01 -11896.445147c -5.44  -3.90
iter:  10 23:58:36 -11896.445128c -5.91  -3.92
iter:  11 23:59:11 -11896.445059c -5.92  -3.90
iter:  12 23:59:46 -11896.444628c -5.87  -3.84
iter:  13 00:00:21 -11896.444721c -6.42  -4.09c
iter:  14 00:00:56 -11896.444569c -6.76  -4.08c
iter:  15 00:01:31 -11896.444592c -6.13  -4.32c
iter:  16 00:02:06 -11896.444590c -6.94  -4.66c
iter:  17 00:02:41 -11896.444587c -7.67c -4.71c

Converged after 17 iterations.

Dipole moment: (-3.312503, -7.781830, -0.037307) |e|*Ang

Energy contributions relative to reference atoms: (reference = -18015553.911929)

Kinetic:       +823.461242
Potential:     -841.305245
External:        +0.000000
XC:            -11858.575820
Entropy (-ST):   -2.276570
Local:          -18.886480
--------------------------
Free energy:   -11897.582872
Extrapolated:  -11896.444587

Showing only first 2 kpts
 Kpt  Band  Eigenvalues  Occupancy
  0   289     -5.89150    1.25704
  0   290     -5.88413    1.22231
  0   291     -5.81394    0.87575
  0   292     -5.79735    0.79510

  1   289     -6.06376    1.80903
  1   290     -5.99414    1.65048
  1   291     -5.97160    1.58066
  1   292     -5.95655    1.52857


Fermi level: -5.83891

No gap

Forces in eV/Ang:
  0 Pt    0.00968   -0.00557   -0.12351
  1 Pt    0.01322    0.02906    0.04024
  2 Pt    0.00892    0.00261   -0.06044
  3 Pt    0.01068   -0.00580   -0.06417
  4 Pt    0.00988    0.01721   -0.11359
  5 Pt   -0.03325   -0.01923    0.01185
  6 Pt    0.01539    0.00397   -0.05622
  7 Pt   -0.05099   -0.02026   -0.05325
  8 Pt    0.00441    0.00335   -0.10132
  9 Pt    0.01345   -0.00775    0.06837
 10 Pt   -0.00515    0.00299   -0.10337
 11 Pt    0.00697   -0.00129   -0.06196
 12 Pt   -0.00069   -0.00548   -0.10134
 13 Pt    0.04668    0.01388    0.01394
 14 Pt   -0.00496    0.00998   -0.03938
 15 Pt    0.00455   -0.00505   -0.06191
 16 Pt    0.00779    0.01173   -0.12358
 17 Pt    0.01157   -0.00669   -0.02624
 18 Pt   -0.00903    0.00525    0.08073
 19 Pt   -0.00033    0.26300    0.40501
 20 Pt    0.00633   -0.00364   -0.09021
 21 Pt    0.00001    0.03834    0.01180
 22 Pt    0.00424   -0.01531   -0.05614
 23 Pt    0.23290   -0.13441    0.42675
 24 Pt   -0.00997   -0.01717   -0.11360
 25 Pt   -0.06812    0.03939    0.01863
 26 Pt   -0.00039    0.00023   -0.06943
 27 Pt   -0.00794    0.05421   -0.05338
 28 Pt   -0.02070    0.01195   -0.07134
 29 Pt    0.01137   -0.04740    0.01394
 30 Pt   -0.01100   -0.00070   -0.03951
 31 Pt    0.03300   -0.01903   -0.03232
 32 Pt   -0.00625   -0.01259   -0.12359
 33 Pt   -0.01851   -0.02594    0.04017
 34 Pt    0.00227   -0.00890   -0.06056
 35 Pt   -0.22877   -0.13156    0.40544
 36 O     0.00943   -0.00705    0.28902

BFGS:    4 00:02:57   -11896.444587        0.5044
System changes: positions 

Initializing position-dependent things.

Density initialized from wave functions
                                            
                                            
                                            
                                            
                                            
                    O                       
          Pt    Pt      Pt                  
            Pt     Pt     Pt                
           Pt     Pt     Pt                 
             PPt    PPt    PPt              
                                            
              PPt    PPt    PPt             
                                            
                Pt     Pt     Pt            
                  Pt     Pt     Pt          
          Pt     Pt     Pt                  
            Pt     Pt     Pt                
              Pt     Pt     Pt              
                                            
                                            
                                            
                                            

Positions:
   0 Pt     0.000000    0.000000    9.999999    ( 0.0000,  0.0000,  0.0000)
   1 Pt     1.419843    0.819746   12.318592    ( 0.0000,  0.0000,  0.0000)
   2 Pt    -0.004278    1.632815   14.607664    ( 0.0000,  0.0000,  0.0000)
   3 Pt     0.005710   -0.003206   16.951099    ( 0.0000,  0.0000,  0.0000)
   4 Pt    -1.419843    2.459239    9.999999    ( 0.0000,  0.0000,  0.0000)
   5 Pt     0.000000    3.278986   12.318592    ( 0.0000,  0.0000,  0.0000)
   6 Pt    -1.428826    4.097924   14.602969    ( 0.0000,  0.0000,  0.0000)
   7 Pt    -1.445681    2.445966   16.949060    ( 0.0000,  0.0000,  0.0000)
   8 Pt    -2.839685    4.918479    9.999999    ( 0.0000,  0.0000,  0.0000)
   9 Pt    -1.419843    5.738225   12.318592    ( 0.0000,  0.0000,  0.0000)
  10 Pt    -2.839423    6.557825   14.606689    ( 0.0000,  0.0000,  0.0000)
  11 Pt    -2.838621    4.922273   16.944948    ( 0.0000,  0.0000,  0.0000)
  12 Pt     2.839685    0.000000    9.999999    ( 0.0000,  0.0000,  0.0000)
  13 Pt     4.259528    0.819746   12.318592    ( 0.0000,  0.0000,  0.0000)
  14 Pt     2.844702    1.632769   14.604514    ( 0.0000,  0.0000,  0.0000)
  15 Pt     2.836901   -0.002743   16.944952    ( 0.0000,  0.0000,  0.0000)
  16 Pt     1.419843    2.459239    9.999999    ( 0.0000,  0.0000,  0.0000)
  17 Pt     2.839685    3.278986   12.318592    ( 0.0000,  0.0000,  0.0000)
  18 Pt     1.420184    4.098532   14.594126    ( 0.0000,  0.0000,  0.0000)
  19 Pt     1.420666    2.325783   16.975169    ( 0.0000,  0.0000,  0.0000)
  20 Pt     0.000000    4.918479    9.999999    ( 0.0000,  0.0000,  0.0000)
  21 Pt     1.419843    5.738225   12.318592    ( 0.0000,  0.0000,  0.0000)
  22 Pt    -0.003785    6.566160   14.602965    ( 0.0000,  0.0000,  0.0000)
  23 Pt    -0.114323    4.984431   16.967554    ( 0.0000,  0.0000,  0.0000)
  24 Pt     5.679370    0.000000    9.999999    ( 0.0000,  0.0000,  0.0000)
  25 Pt     7.099213    0.819746   12.318592    ( 0.0000,  0.0000,  0.0000)
  26 Pt     5.679174    1.639605   14.604842    ( 0.0000,  0.0000,  0.0000)
  27 Pt     5.677941    0.029012   16.949040    ( 0.0000,  0.0000,  0.0000)
  28 Pt     4.259528    2.459239    9.999999    ( 0.0000,  0.0000,  0.0000)
  29 Pt     5.679370    3.278986   12.318592    ( 0.0000,  0.0000,  0.0000)
  30 Pt     4.267887    4.097740   14.604476    ( 0.0000,  0.0000,  0.0000)
  31 Pt     4.282898    2.445741   16.942687    ( 0.0000,  0.0000,  0.0000)
  32 Pt     2.839685    4.918479    9.999999    ( 0.0000,  0.0000,  0.0000)
  33 Pt     4.259528    5.738225   12.318592    ( 0.0000,  0.0000,  0.0000)
  34 Pt     2.843329    6.565051   14.607618    ( 0.0000,  0.0000,  0.0000)
  35 Pt     2.955860    4.984551   16.975041    ( 0.0000,  0.0000,  0.0000)
  36 O      1.420854    4.098271   18.043736    ( 0.0000,  0.0000,  0.0000)

Unit cell:
           periodic     x           y           z      points  spacing
  1. axis:    yes    8.519055    0.000000    0.000000    40     0.1844
  2. axis:    yes   -4.259528    7.377718    0.000000    40     0.1844
  3. axis:    no     0.000000    0.000000   26.955778   148     0.1821

  Lengths:   8.519055   8.519055  26.955778
  Angles:   90.000000  90.000000 120.000000

Effective grid spacing dv^(1/3) = 0.1927

     iter     time        total  log10-change:
                         energy  eigst   dens
iter:   1 00:04:23 -11898.448749  -1.80
iter:   2 00:04:58 -11921.195217  -1.45  -1.99
iter:   3 00:05:33 -11896.626764  -1.93  -1.53
iter:   4 00:06:08 -11896.760850  -2.56  -2.57
iter:   5 00:06:43 -11896.490276c -3.75  -2.39
iter:   6 00:07:18 -11896.483495c -4.60  -3.04
iter:   7 00:07:53 -11896.479086c -4.39  -3.12
iter:   8 00:08:27 -11896.476964c -4.11  -3.24
iter:   9 00:09:02 -11896.476803c -4.64  -3.47
iter:  10 00:09:37 -11896.476245c -5.61  -3.57
iter:  11 00:10:12 -11896.475579c -5.08  -3.65
iter:  12 00:10:47 -11896.475329c -5.42  -3.86
iter:  13 00:11:22 -11896.475368c -5.95  -3.85
iter:  14 00:11:57 -11896.475154c -6.69  -3.88
iter:  15 00:12:32 -11896.475304c -5.77  -4.08c
iter:  16 00:13:06 -11896.475311c -6.29  -4.16c
iter:  17 00:13:41 -11896.475258c -6.84  -4.38c
iter:  18 00:14:16 -11896.475276c -7.40  -4.46c
iter:  19 00:14:51 -11896.475285c -7.03  -4.55c
iter:  20 00:15:26 -11896.475296c -7.42c -4.74c

Converged after 20 iterations.

Dipole moment: (-2.880262, -8.018386, -0.052380) |e|*Ang

Energy contributions relative to reference atoms: (reference = -18015553.911929)

Kinetic:       +819.633302
Potential:     -838.065364
External:        +0.000000
XC:            -11858.023268
Entropy (-ST):   -2.281283
Local:          -18.879325
--------------------------
Free energy:   -11897.615938
Extrapolated:  -11896.475296

Showing only first 2 kpts
 Kpt  Band  Eigenvalues  Occupancy
  0   289     -5.90330    1.25481
  0   290     -5.89491    1.21517
  0   291     -5.82661    0.87774
  0   292     -5.80948    0.79444

  1   289     -6.07770    1.81189
  1   290     -6.00393    1.64324
  1   291     -5.98057    1.56957
  1   292     -5.96851    1.52747


Fermi level: -5.85119

No gap

Forces in eV/Ang:
  0 Pt    0.00956   -0.00551   -0.12368
  1 Pt    0.01565    0.03555   -0.00340
  2 Pt    0.06809    0.05465    0.05177
  3 Pt   -0.00892    0.00497   -0.08441
  4 Pt    0.00890    0.01635   -0.11113
  5 Pt   -0.02722   -0.01705   -0.01231
  6 Pt    0.09130    0.02960    0.06204
  7 Pt    0.03945    0.03075   -0.06825
  8 Pt    0.00449    0.00338   -0.10054
  9 Pt    0.01668   -0.00960    0.02297
 10 Pt   -0.00481    0.00277   -0.05594
 11 Pt    0.00708   -0.01890   -0.07390
 12 Pt   -0.00067   -0.00556   -0.10055
 13 Pt    0.04839    0.01723   -0.03785
 14 Pt   -0.06726    0.06232    0.07426
 15 Pt    0.02014    0.00325   -0.07379
 16 Pt    0.00773    0.01172   -0.12151
 17 Pt    0.00646   -0.00376   -0.04379
 18 Pt   -0.00402    0.00241    0.20076
 19 Pt   -0.00935    0.45597    0.33740
 20 Pt    0.00654   -0.00376   -0.08852
 21 Pt    0.00113    0.03203   -0.01240
 22 Pt    0.01995   -0.09385    0.06215
 23 Pt    0.39632   -0.22856    0.37635
 24 Pt   -0.00972   -0.01589   -0.11116
 25 Pt   -0.07195    0.04164   -0.03630
 26 Pt    0.00043   -0.00022   -0.04250
 27 Pt   -0.00682   -0.04969   -0.06835
 28 Pt   -0.01905    0.01100   -0.06850
 29 Pt    0.00936   -0.05057   -0.03790
 30 Pt   -0.08765    0.02721    0.07444
 31 Pt   -0.05613    0.03252   -0.03519
 32 Pt   -0.00628   -0.01254   -0.12153
 33 Pt   -0.02291   -0.03127   -0.00352
 34 Pt   -0.01311   -0.08635    0.05198
 35 Pt   -0.40036   -0.22011    0.33774
 36 O     0.01478   -0.00760   -0.05666

BFGS:    5 00:15:43   -11896.475296        0.5924
System changes: positions 

Initializing position-dependent things.

Density initialized from wave functions
                                            
                                            
                                            
                                            
                                            
                    O                       
          Pt     Pt     Pt                  
            Pt     Pt     Pt                
           Pt     Pt     Pt                 
             PPt    PPt    PPt              
                                            
              PPt    PPt    PPt             
                                            
                Pt     Pt     Pt            
                  Pt     Pt     Pt          
          Pt     Pt     Pt                  
            Pt     Pt     Pt                
              Pt     Pt     Pt              
                                            
                                            
                                            
                                            

Positions:
   0 Pt     0.000000    0.000000    9.999999    ( 0.0000,  0.0000,  0.0000)
   1 Pt     1.419843    0.819746   12.318592    ( 0.0000,  0.0000,  0.0000)
   2 Pt    -0.003694    1.632678   14.603949    ( 0.0000,  0.0000,  0.0000)
   3 Pt     0.006614   -0.003705   16.945951    ( 0.0000,  0.0000,  0.0000)
   4 Pt    -1.419843    2.459239    9.999999    ( 0.0000,  0.0000,  0.0000)
   5 Pt     0.000000    3.278986   12.318592    ( 0.0000,  0.0000,  0.0000)
   6 Pt    -1.428035    4.098377   14.599436    ( 0.0000,  0.0000,  0.0000)
   7 Pt    -1.449930    2.444114   16.945043    ( 0.0000,  0.0000,  0.0000)
   8 Pt    -2.839685    4.918479    9.999999    ( 0.0000,  0.0000,  0.0000)
   9 Pt    -1.419843    5.738225   12.318592    ( 0.0000,  0.0000,  0.0000)
  10 Pt    -2.839753    6.558016   14.600020    ( 0.0000,  0.0000,  0.0000)
  11 Pt    -2.838126    4.922422   16.940072    ( 0.0000,  0.0000,  0.0000)
  12 Pt     2.839685    0.000000    9.999999    ( 0.0000,  0.0000,  0.0000)
  13 Pt     4.259528    0.819746   12.318592    ( 0.0000,  0.0000,  0.0000)
  14 Pt     2.844355    1.633123   14.602110    ( 0.0000,  0.0000,  0.0000)
  15 Pt     2.837017   -0.003226   16.940079    ( 0.0000,  0.0000,  0.0000)
  16 Pt     1.419843    2.459239    9.999999    ( 0.0000,  0.0000,  0.0000)
  17 Pt     2.839685    3.278986   12.318592    ( 0.0000,  0.0000,  0.0000)
  18 Pt     1.419656    4.098839   14.597045    ( 0.0000,  0.0000,  0.0000)
  19 Pt     1.420636    2.330927   16.998476    ( 0.0000,  0.0000,  0.0000)
  20 Pt     0.000000    4.918479    9.999999    ( 0.0000,  0.0000,  0.0000)
  21 Pt     1.419843    5.738225   12.318592    ( 0.0000,  0.0000,  0.0000)
  22 Pt    -0.003783    6.565249   14.599437    ( 0.0000,  0.0000,  0.0000)
  23 Pt    -0.109638    4.981728   16.992060    ( 0.0000,  0.0000,  0.0000)
  24 Pt     5.679370    0.000000    9.999999    ( 0.0000,  0.0000,  0.0000)
  25 Pt     7.099213    0.819746   12.318592    ( 0.0000,  0.0000,  0.0000)
  26 Pt     5.679149    1.639620   14.600098    ( 0.0000,  0.0000,  0.0000)
  27 Pt     5.677421    0.033613   16.945015    ( 0.0000,  0.0000,  0.0000)
  28 Pt     4.259528    2.459239    9.999999    ( 0.0000,  0.0000,  0.0000)
  29 Pt     5.679370    3.278986   12.318592    ( 0.0000,  0.0000,  0.0000)
  30 Pt     4.267414    4.097862   14.602064    ( 0.0000,  0.0000,  0.0000)
  31 Pt     4.286020    2.443940   16.940038    ( 0.0000,  0.0000,  0.0000)
  32 Pt     2.839685    4.918479    9.999999    ( 0.0000,  0.0000,  0.0000)
  33 Pt     4.259528    5.738225   12.318592    ( 0.0000,  0.0000,  0.0000)
  34 Pt     2.843746    6.564624   14.603894    ( 0.0000,  0.0000,  0.0000)
  35 Pt     2.951361    4.981990   16.998362    ( 0.0000,  0.0000,  0.0000)
  36 O      1.421834    4.097672   18.077752    ( 0.0000,  0.0000,  0.0000)

Unit cell:
           periodic     x           y           z      points  spacing
  1. axis:    yes    8.519055    0.000000    0.000000    40     0.1844
  2. axis:    yes   -4.259528    7.377718    0.000000    40     0.1844
  3. axis:    no     0.000000    0.000000   26.955778   148     0.1821

  Lengths:   8.519055   8.519055  26.955778
  Angles:   90.000000  90.000000 120.000000

Effective grid spacing dv^(1/3) = 0.1927

     iter     time        total  log10-change:
                         energy  eigst   dens
iter:   1 00:17:08 -11896.761618  -2.12
iter:   2 00:17:43 -11900.681769  -2.30  -2.42
iter:   3 00:18:17 -11896.545804  -2.66  -1.85
iter:   4 00:18:52 -11896.503400  -4.00  -2.75
iter:   5 00:19:27 -11896.502771c -4.60  -3.26
iter:   6 00:20:02 -11896.501091c -5.21  -3.28
iter:   7 00:20:37 -11896.500492c -4.74  -3.41
iter:   8 00:21:11 -11896.500368c -4.84  -3.54
iter:   9 00:21:46 -11896.500320c -5.83  -3.83
iter:  10 00:22:21 -11896.500400c -5.67  -3.85
iter:  11 00:22:56 -11896.499990c -5.78  -3.93
iter:  12 00:23:30 -11896.500175c -6.11  -4.08c
iter:  13 00:24:05 -11896.499965c -6.78  -3.95
iter:  14 00:24:40 -11896.499926c -6.90  -4.23c
iter:  15 00:25:14 -11896.499947c -6.77  -4.34c
iter:  16 00:25:49 -11896.499968c -6.71  -4.48c
iter:  17 00:26:24 -11896.500012c -7.30  -4.50c
iter:  18 00:26:59 -11896.500009c -7.63c -4.63c

Converged after 18 iterations.

Dipole moment: (-2.581005, -8.188061, -0.059449) |e|*Ang

Energy contributions relative to reference atoms: (reference = -18015553.911929)

Kinetic:       +817.620595
Potential:     -836.358090
External:        +0.000000
XC:            -11857.744187
Entropy (-ST):   -2.281101
Local:          -18.877778
--------------------------
Free energy:   -11897.640560
Extrapolated:  -11896.500009

Showing only first 2 kpts
 Kpt  Band  Eigenvalues  Occupancy
  0   289     -5.90584    1.25372
  0   290     -5.89585    1.20641
  0   291     -5.82979    0.87970
  0   292     -5.81231    0.79469

  1   289     -6.08301    1.81616
  1   290     -6.00679    1.64348
  1   291     -5.98144    1.56310
  1   292     -5.97145    1.52805


Fermi level: -5.85397

No gap

Forces in eV/Ang:
  0 Pt    0.00890   -0.00513   -0.11675
  1 Pt    0.01805    0.04217   -0.02317
  2 Pt    0.09803    0.07826    0.13432
  3 Pt   -0.01877    0.01031   -0.09929
  4 Pt    0.00820    0.01595   -0.10321
  5 Pt   -0.01928   -0.01337   -0.01249
  6 Pt    0.12611    0.04541    0.14409
  7 Pt    0.09110    0.05845   -0.07082
  8 Pt    0.00437    0.00276   -0.09281
  9 Pt    0.02050   -0.01180    0.00276
 10 Pt   -0.00326    0.00187   -0.00499
 11 Pt    0.00662   -0.02492   -0.08022
 12 Pt   -0.00018   -0.00515   -0.09282
 13 Pt    0.04539    0.01736   -0.06261
 14 Pt   -0.09858    0.08392    0.14991
 15 Pt    0.02528    0.00639   -0.08008
 16 Pt    0.00759    0.01144   -0.11226
 17 Pt   -0.00049    0.00024   -0.03817
 18 Pt    0.00280   -0.00150    0.25117
 19 Pt   -0.00483    0.40460    0.22876
 20 Pt    0.00637   -0.00366   -0.07966
 21 Pt    0.00189    0.02333   -0.01260
 22 Pt    0.02363   -0.13187    0.14416
 23 Pt    0.36040   -0.20776    0.20035
 24 Pt   -0.00972   -0.01509   -0.10324
 25 Pt   -0.07086    0.04104   -0.06502
 26 Pt    0.00114   -0.00063   -0.01500
 27 Pt   -0.00494   -0.10828   -0.07087
 28 Pt   -0.01825    0.01054   -0.06011
 29 Pt    0.00776   -0.04805   -0.06269
 30 Pt   -0.12212    0.04361    0.15029
 31 Pt   -0.10293    0.05959   -0.03667
 32 Pt   -0.00610   -0.01227   -0.11228
 33 Pt   -0.02743   -0.03666   -0.02331
 34 Pt   -0.01855   -0.12419    0.13472
 35 Pt   -0.35335   -0.19819    0.22910
 36 O     0.00477   -0.00302   -0.11412

BFGS:    6 00:27:16   -11896.500009        0.4654
System changes: positions 

Initializing position-dependent things.

Density initialized from wave functions
                                            
                                            
                                            
                                            
                                            
                    O                       
          Pt     Pt     Pt                  
            Pt     Pt     Pt                
           Pt     Pt     Pt                 
             PPt    PPt    PPt              
                                            
              PPt    PPt    PPt             
                                            
                Pt     Pt     Pt            
                  Pt     Pt     Pt          
          Pt     Pt     Pt                  
            Pt     Pt     Pt                
              Pt     Pt     Pt              
                                            
                                            
                                            
                                            

Positions:
   0 Pt     0.000000    0.000000    9.999999    ( 0.0000,  0.0000,  0.0000)
   1 Pt     1.419843    0.819746   12.318592    ( 0.0000,  0.0000,  0.0000)
   2 Pt    -0.000768    1.634300   14.602742    ( 0.0000,  0.0000,  0.0000)
   3 Pt     0.007243   -0.004053   16.937481    ( 0.0000,  0.0000,  0.0000)
   4 Pt    -1.419843    2.459239    9.999999    ( 0.0000,  0.0000,  0.0000)
   5 Pt     0.000000    3.278986   12.318592    ( 0.0000,  0.0000,  0.0000)
   6 Pt    -1.424222    4.099958   14.598646    ( 0.0000,  0.0000,  0.0000)
   7 Pt    -1.452805    2.443299   16.938642    ( 0.0000,  0.0000,  0.0000)
   8 Pt    -2.839685    4.918479    9.999999    ( 0.0000,  0.0000,  0.0000)
   9 Pt    -1.419843    5.738225   12.318592    ( 0.0000,  0.0000,  0.0000)
  10 Pt    -2.840210    6.558281   14.592142    ( 0.0000,  0.0000,  0.0000)
  11 Pt    -2.837386    4.922024   16.932401    ( 0.0000,  0.0000,  0.0000)
  12 Pt     2.839685    0.000000    9.999999    ( 0.0000,  0.0000,  0.0000)
  13 Pt     4.259528    0.819746   12.318592    ( 0.0000,  0.0000,  0.0000)
  14 Pt     2.841702    1.635448   14.602771    ( 0.0000,  0.0000,  0.0000)
  15 Pt     2.837736   -0.003650   16.932415    ( 0.0000,  0.0000,  0.0000)
  16 Pt     1.419843    2.459239    9.999999    ( 0.0000,  0.0000,  0.0000)
  17 Pt     2.839685    3.278986   12.318592    ( 0.0000,  0.0000,  0.0000)
  18 Pt     1.419115    4.099156   14.606471    ( 0.0000,  0.0000,  0.0000)
  19 Pt     1.420601    2.347063   17.031772    ( 0.0000,  0.0000,  0.0000)
  20 Pt     0.000000    4.918479    9.999999    ( 0.0000,  0.0000,  0.0000)
  21 Pt     1.419843    5.738225   12.318592    ( 0.0000,  0.0000,  0.0000)
  22 Pt    -0.003249    6.561159   14.598652    ( 0.0000,  0.0000,  0.0000)
  23 Pt    -0.095065    4.973324   17.025411    ( 0.0000,  0.0000,  0.0000)
  24 Pt     5.679370    0.000000    9.999999    ( 0.0000,  0.0000,  0.0000)
  25 Pt     7.099213    0.819746   12.318592    ( 0.0000,  0.0000,  0.0000)
  26 Pt     5.679148    1.639622   14.594216    ( 0.0000,  0.0000,  0.0000)
  27 Pt     5.676694    0.036501   16.938602    ( 0.0000,  0.0000,  0.0000)
  28 Pt     4.259528    2.459239    9.999999    ( 0.0000,  0.0000,  0.0000)
  29 Pt     5.679370    3.278986   12.318592    ( 0.0000,  0.0000,  0.0000)
  30 Pt     4.264080    4.099001   14.602723    ( 0.0000,  0.0000,  0.0000)
  31 Pt     4.287300    2.443206   16.936012    ( 0.0000,  0.0000,  0.0000)
  32 Pt     2.839685    4.918479    9.999999    ( 0.0000,  0.0000,  0.0000)
  33 Pt     4.259528    5.738225   12.318592    ( 0.0000,  0.0000,  0.0000)
  34 Pt     2.843814    6.561285   14.602688    ( 0.0000,  0.0000,  0.0000)
  35 Pt     2.937319    4.973932   17.031685    ( 0.0000,  0.0000,  0.0000)
  36 O      1.423127    4.096875   18.113777    ( 0.0000,  0.0000,  0.0000)

Unit cell:
           periodic     x           y           z      points  spacing
  1. axis:    yes    8.519055    0.000000    0.000000    40     0.1844
  2. axis:    yes   -4.259528    7.377718    0.000000    40     0.1844
  3. axis:    no     0.000000    0.000000   26.955778   148     0.1821

  Lengths:   8.519055   8.519055  26.955778
  Angles:   90.000000  90.000000 120.000000

Effective grid spacing dv^(1/3) = 0.1927

     iter     time        total  log10-change:
                         energy  eigst   dens
iter:   1 00:28:41 -11897.666375  -1.81
iter:   2 00:29:16 -11913.722072  -1.63  -2.10
iter:   3 00:29:51 -11896.998940  -2.23  -1.60
iter:   4 00:30:25 -11896.553694  -2.85  -2.36
iter:   5 00:31:00 -11896.542356  -3.63  -2.98
iter:   6 00:31:35 -11896.534299c -4.02  -3.11
iter:   7 00:32:09 -11896.533933c -4.81  -3.30
iter:   8 00:32:44 -11896.533562c -4.55  -3.42
iter:   9 00:33:19 -11896.533534c -4.98  -3.68
iter:  10 00:33:53 -11896.533325c -5.59  -3.71
iter:  11 00:34:28 -11896.533176c -5.92  -3.83
iter:  12 00:35:03 -11896.533340c -5.69  -3.91
iter:  13 00:35:37 -11896.533250c -5.90  -3.90
iter:  14 00:36:12 -11896.533098c -6.67  -3.93
iter:  15 00:36:47 -11896.533107c -6.74  -4.24c
iter:  16 00:37:21 -11896.533071c -6.62  -4.20c
iter:  17 00:37:56 -11896.533102c -6.89  -4.48c
iter:  18 00:38:31 -11896.533094c -7.59c -4.62c

Converged after 18 iterations.

Dipole moment: (-2.249775, -8.388737, -0.058024) |e|*Ang

Energy contributions relative to reference atoms: (reference = -18015553.911929)

Kinetic:       +815.546941
Potential:     -834.563998
External:        +0.000000
XC:            -11857.495306
Entropy (-ST):   -2.277412
Local:          -18.882025
--------------------------
Free energy:   -11897.671800
Extrapolated:  -11896.533094

Showing only first 2 kpts
 Kpt  Band  Eigenvalues  Occupancy
  0   289     -5.90475    1.25341
  0   290     -5.89244    1.19499
  0   291     -5.82971    0.88436
  0   292     -5.81105    0.79354

  1   289     -6.08705    1.82445
  1   290     -6.00628    1.64501
  1   291     -5.97839    1.55615
  1   292     -5.97169    1.53258


Fermi level: -5.85294

No gap

Forces in eV/Ang:
  0 Pt    0.00710   -0.00410   -0.12021
  1 Pt    0.02141    0.05417   -0.03988
  2 Pt    0.10951    0.08744    0.19344
  3 Pt   -0.02331    0.01266   -0.09617
  4 Pt    0.00733    0.01540   -0.10737
  5 Pt   -0.00711   -0.00724    0.00128
  6 Pt    0.13201    0.05366    0.19368
  7 Pt    0.11847    0.06901   -0.04844
  8 Pt    0.00433    0.00062   -0.09499
  9 Pt    0.02848   -0.01640   -0.01368
 10 Pt   -0.00001    0.00001    0.03567
 11 Pt    0.00482   -0.02205   -0.06622
 12 Pt    0.00165   -0.00404   -0.09500
 13 Pt    0.03527    0.01351   -0.07984
 14 Pt   -0.10988    0.08642    0.19242
 15 Pt    0.02198    0.00631   -0.06611
 16 Pt    0.00733    0.01081   -0.11248
 17 Pt   -0.01109    0.00637   -0.01640
 18 Pt    0.01581   -0.00901    0.23643
 19 Pt   -0.00393    0.13620    0.04980
 20 Pt    0.00629   -0.00362   -0.08007
 21 Pt    0.00268    0.00976    0.00118
 22 Pt    0.01944   -0.14110    0.19369
 23 Pt    0.15025   -0.08655    0.05013
 24 Pt   -0.00968   -0.01405   -0.10740
 25 Pt   -0.06324    0.03665   -0.08939
 26 Pt    0.00062   -0.00033   -0.00254
 27 Pt   -0.00036   -0.13722   -0.04841
 28 Pt   -0.01709    0.00986   -0.06406
 29 Pt    0.00603   -0.03736   -0.07996
 30 Pt   -0.13001    0.05218    0.19293
 31 Pt   -0.12181    0.07051   -0.01971
 32 Pt   -0.00569   -0.01173   -0.11250
 33 Pt   -0.03614   -0.04556   -0.04003
 34 Pt   -0.02079   -0.13880    0.19394
 35 Pt   -0.12001   -0.06455    0.04976
 36 O    -0.00816    0.00497    0.07365

BFGS:    7 00:38:48   -11896.533094        0.2405
System changes: positions 

Initializing position-dependent things.

Density initialized from wave functions
                                            
                                            
                                            
                                            
                                            
                    O                       
          Pt     Pt     Pt                  
            Pt     Pt     Pt                
           Pt     Pt     Pt                 
             PPt    PPt    PPt              
                                            
              PPt    PPt    PPt             
                                            
                Pt     Pt     Pt            
                  Pt     Pt     Pt          
          Pt     Pt     Pt                  
            Pt     Pt     Pt                
              Pt     Pt     Pt              
                                            
                                            
                                            
                                            

Positions:
   0 Pt     0.000000    0.000000    9.999999    ( 0.0000,  0.0000,  0.0000)
   1 Pt     1.419843    0.819746   12.318592    ( 0.0000,  0.0000,  0.0000)
   2 Pt     0.003826    1.637270   14.604994    ( 0.0000,  0.0000,  0.0000)
   3 Pt     0.007474   -0.004186   16.927795    ( 0.0000,  0.0000,  0.0000)
   4 Pt    -1.419843    2.459239    9.999999    ( 0.0000,  0.0000,  0.0000)
   5 Pt     0.000000    3.278986   12.318592    ( 0.0000,  0.0000,  0.0000)
   6 Pt    -1.418493    4.102381   14.601199    ( 0.0000,  0.0000,  0.0000)
   7 Pt    -1.453618    2.443611   16.931901    ( 0.0000,  0.0000,  0.0000)
   8 Pt    -2.839685    4.918479    9.999999    ( 0.0000,  0.0000,  0.0000)
   9 Pt    -1.419843    5.738225   12.318592    ( 0.0000,  0.0000,  0.0000)
  10 Pt    -2.840624    6.558521   14.585324    ( 0.0000,  0.0000,  0.0000)
  11 Pt    -2.836608    4.921346   16.924059    ( 0.0000,  0.0000,  0.0000)
  12 Pt     2.839685    0.000000    9.999999    ( 0.0000,  0.0000,  0.0000)
  13 Pt     4.259528    0.819746   12.318592    ( 0.0000,  0.0000,  0.0000)
  14 Pt     2.837376    1.639018   14.606660    ( 0.0000,  0.0000,  0.0000)
  15 Pt     2.838726   -0.003977   16.924082    ( 0.0000,  0.0000,  0.0000)
  16 Pt     1.419843    2.459239    9.999999    ( 0.0000,  0.0000,  0.0000)
  17 Pt     2.839685    3.278986   12.318592    ( 0.0000,  0.0000,  0.0000)
  18 Pt     1.418960    4.099253   14.619019    ( 0.0000,  0.0000,  0.0000)
  19 Pt     1.420507    2.362083   17.063364    ( 0.0000,  0.0000,  0.0000)
  20 Pt     0.000000    4.918479    9.999999    ( 0.0000,  0.0000,  0.0000)
  21 Pt     1.419843    5.738225   12.318592    ( 0.0000,  0.0000,  0.0000)
  22 Pt    -0.002487    6.554989   14.601212    ( 0.0000,  0.0000,  0.0000)
  23 Pt    -0.080743    4.965066   17.057542    ( 0.0000,  0.0000,  0.0000)
  24 Pt     5.679370    0.000000    9.999999    ( 0.0000,  0.0000,  0.0000)
  25 Pt     7.099213    0.819746   12.318592    ( 0.0000,  0.0000,  0.0000)
  26 Pt     5.679150    1.639623   14.588501    ( 0.0000,  0.0000,  0.0000)
  27 Pt     5.676024    0.037040   16.931853    ( 0.0000,  0.0000,  0.0000)
  28 Pt     4.259528    2.459239    9.999999    ( 0.0000,  0.0000,  0.0000)
  29 Pt     5.679370    3.278986   12.318592    ( 0.0000,  0.0000,  0.0000)
  30 Pt     4.258827    4.100970   14.606619    ( 0.0000,  0.0000,  0.0000)
  31 Pt     4.286587    2.443627   16.931970    ( 0.0000,  0.0000,  0.0000)
  32 Pt     2.839685    4.918479    9.999999    ( 0.0000,  0.0000,  0.0000)
  33 Pt     4.259528    5.738225   12.318592    ( 0.0000,  0.0000,  0.0000)
  34 Pt     2.843552    6.555824   14.604947    ( 0.0000,  0.0000,  0.0000)
  35 Pt     2.924217    4.966488   17.063300    ( 0.0000,  0.0000,  0.0000)
  36 O      1.424152    4.096248   18.152258    ( 0.0000,  0.0000,  0.0000)

Unit cell:
           periodic     x           y           z      points  spacing
  1. axis:    yes    8.519055    0.000000    0.000000    40     0.1844
  2. axis:    yes   -4.259528    7.377718    0.000000    40     0.1844
  3. axis:    no     0.000000    0.000000   26.955778   148     0.1821

  Lengths:   8.519055   8.519055  26.955778
  Angles:   90.000000  90.000000 120.000000

Effective grid spacing dv^(1/3) = 0.1927

     iter     time        total  log10-change:
                         energy  eigst   dens
iter:   1 00:40:13 -11896.717960  -1.84
iter:   2 00:40:48 -11899.632092  -2.35  -2.51
iter:   3 00:41:22 -11896.563739  -2.88  -1.91
iter:   4 00:41:57 -11896.551300  -3.69  -3.00
iter:   5 00:42:31 -11896.550202c -4.30  -3.28
iter:   6 00:43:06 -11896.549711c -5.02  -3.29
iter:   7 00:43:40 -11896.550003c -4.75  -3.37
iter:   8 00:44:15 -11896.551233c -5.10  -3.69
iter:   9 00:44:50 -11896.550601c -5.37  -3.50
iter:  10 00:45:24 -11896.549911c -5.88  -3.61
iter:  11 00:45:59 -11896.549763c -5.79  -3.85
iter:  12 00:46:33 -11896.549745c -6.02  -4.04c
iter:  13 00:47:08 -11896.549658c -6.58  -4.17c
iter:  14 00:47:42 -11896.549710c -6.93  -4.34c
iter:  15 00:48:17 -11896.549673c -6.97  -4.38c
iter:  16 00:48:52 -11896.549740c -7.00  -4.31c
iter:  17 00:49:26 -11896.549719c -7.34  -4.48c
iter:  18 00:50:01 -11896.549691c -7.59c -4.73c

Converged after 18 iterations.

Dipole moment: (-1.966129, -8.571596, -0.058006) |e|*Ang

Energy contributions relative to reference atoms: (reference = -18015553.911929)

Kinetic:       +813.452219
Potential:     -832.739182
External:        +0.000000
XC:            -11857.237640
Entropy (-ST):   -2.273883
Local:          -18.888146
--------------------------
Free energy:   -11897.686633
Extrapolated:  -11896.549691

Showing only first 2 kpts
 Kpt  Band  Eigenvalues  Occupancy
  0   289     -5.90492    1.25058
  0   290     -5.89073    1.18300
  0   291     -5.83152    0.88949
  0   292     -5.81101    0.78966

  1   289     -6.09262    1.83198
  1   290     -6.00817    1.64827
  1   291     -5.97878    1.55485
  1   292     -5.97558    1.54365


Fermi level: -5.85371

No gap

Forces in eV/Ang:
  0 Pt    0.00446   -0.00257   -0.12200
  1 Pt    0.02368    0.06763   -0.04146
  2 Pt    0.08817    0.08005    0.20655
  3 Pt   -0.02655    0.01446   -0.07197
  4 Pt    0.00615    0.01459   -0.11105
  5 Pt    0.00282   -0.00182    0.02782
  6 Pt    0.10506    0.04136    0.19702
  7 Pt    0.12770    0.06918   -0.01617
  8 Pt    0.00415   -0.00227   -0.09543
  9 Pt    0.03835   -0.02209   -0.01452
 10 Pt    0.00292   -0.00165    0.06608
 11 Pt    0.00354   -0.01617   -0.02995
 12 Pt    0.00406   -0.00244   -0.09544
 13 Pt    0.02333    0.00780   -0.08071
 14 Pt   -0.08856    0.07131    0.18616
 15 Pt    0.01622    0.00442   -0.02988
 16 Pt    0.00700    0.00959   -0.11061
 17 Pt   -0.01951    0.01124    0.01530
 18 Pt    0.02593   -0.01486    0.20097
 19 Pt   -0.02107   -0.04358   -0.08516
 20 Pt    0.00578   -0.00332   -0.07860
 21 Pt    0.00295   -0.00151    0.02776
 22 Pt    0.01666   -0.11163    0.19698
 23 Pt   -0.03650    0.02121   -0.05143
 24 Pt   -0.00956   -0.01263   -0.11107
 25 Pt   -0.05275    0.03058   -0.09524
 26 Pt    0.00003    0.00001    0.02274
 27 Pt    0.00410   -0.14522   -0.01608
 28 Pt   -0.01600    0.00924   -0.06731
 29 Pt    0.00500   -0.02416   -0.08083
 30 Pt   -0.10626    0.04122    0.18664
 31 Pt   -0.12186    0.07051    0.00308
 32 Pt   -0.00480   -0.01084   -0.11062
 33 Pt   -0.04667   -0.05426   -0.04159
 34 Pt   -0.02517   -0.11665    0.20701
 35 Pt    0.02753    0.04030   -0.08537
 36 O    -0.00984    0.00596    0.13419

BFGS:    8 00:50:18   -11896.549691        0.2389
System changes: positions 

Initializing position-dependent things.

Density initialized from wave functions
                                            
                                            
                                            
                                            
                                            
                    O                       
          Pt     Pt     Pt                  
            Pt     Pt     Pt                
           Pt     Pt     Pt                 
             PPt    PPt    PPt              
                                            
              PPt    PPt    PPt             
                                            
                Pt     Pt     Pt            
                  Pt     Pt     Pt          
          Pt     Pt     Pt                  
            Pt     Pt     Pt                
              Pt     Pt     Pt              
                                            
                                            
                                            
                                            

Positions:
   0 Pt     0.000000    0.000000    9.999999    ( 0.0000,  0.0000,  0.0000)
   1 Pt     1.419843    0.819746   12.318592    ( 0.0000,  0.0000,  0.0000)
   2 Pt     0.006959    1.639807   14.609851    ( 0.0000,  0.0000,  0.0000)
   3 Pt     0.006949   -0.003901   16.923759    ( 0.0000,  0.0000,  0.0000)
   4 Pt    -1.419843    2.459239    9.999999    ( 0.0000,  0.0000,  0.0000)
   5 Pt     0.000000    3.278986   12.318592    ( 0.0000,  0.0000,  0.0000)
   6 Pt    -1.414645    4.103899   14.605993    ( 0.0000,  0.0000,  0.0000)
   7 Pt    -1.451043    2.445226   16.929710    ( 0.0000,  0.0000,  0.0000)
   8 Pt    -2.839685    4.918479    9.999999    ( 0.0000,  0.0000,  0.0000)
   9 Pt    -1.419843    5.738225   12.318592    ( 0.0000,  0.0000,  0.0000)
  10 Pt    -2.840684    6.558556   14.584824    ( 0.0000,  0.0000,  0.0000)
  11 Pt    -2.836329    4.920766   16.921203    ( 0.0000,  0.0000,  0.0000)
  12 Pt     2.839685    0.000000    9.999999    ( 0.0000,  0.0000,  0.0000)
  13 Pt     4.259528    0.819746   12.318592    ( 0.0000,  0.0000,  0.0000)
  14 Pt     2.834299    1.641559   14.611603    ( 0.0000,  0.0000,  0.0000)
  15 Pt     2.839381   -0.003940   16.921229    ( 0.0000,  0.0000,  0.0000)
  16 Pt     1.419843    2.459239    9.999999    ( 0.0000,  0.0000,  0.0000)
  17 Pt     2.839685    3.278986   12.318592    ( 0.0000,  0.0000,  0.0000)
  18 Pt     1.419412    4.098996   14.626939    ( 0.0000,  0.0000,  0.0000)
  19 Pt     1.420058    2.367601   17.070764    ( 0.0000,  0.0000,  0.0000)
  20 Pt     0.000000    4.918479    9.999999    ( 0.0000,  0.0000,  0.0000)
  21 Pt     1.419843    5.738225   12.318592    ( 0.0000,  0.0000,  0.0000)
  22 Pt    -0.001880    6.550899   14.606006    ( 0.0000,  0.0000,  0.0000)
  23 Pt    -0.075584    4.962094   17.065800    ( 0.0000,  0.0000,  0.0000)
  24 Pt     5.679370    0.000000    9.999999    ( 0.0000,  0.0000,  0.0000)
  25 Pt     7.099213    0.819746   12.318592    ( 0.0000,  0.0000,  0.0000)
  26 Pt     5.679154    1.639621   14.587456    ( 0.0000,  0.0000,  0.0000)
  27 Pt     5.675917    0.033998   16.929660    ( 0.0000,  0.0000,  0.0000)
  28 Pt     4.259528    2.459239    9.999999    ( 0.0000,  0.0000,  0.0000)
  29 Pt     5.679370    3.278986   12.318592    ( 0.0000,  0.0000,  0.0000)
[...]
  15 Pt     2.840325   -0.003740   16.918779    ( 0.0000,  0.0000,  0.0000)
  16 Pt     1.419843    2.459239    9.999999    ( 0.0000,  0.0000,  0.0000)
  17 Pt     2.839685    3.278986   12.318592    ( 0.0000,  0.0000,  0.0000)
  18 Pt     1.421211    4.097966   14.643788    ( 0.0000,  0.0000,  0.0000)
  19 Pt     1.418170    2.368006   17.070007    ( 0.0000,  0.0000,  0.0000)
  20 Pt     0.000000    4.918479    9.999999    ( 0.0000,  0.0000,  0.0000)
  21 Pt     1.419843    5.738225   12.318592    ( 0.0000,  0.0000,  0.0000)
  22 Pt    -0.000710    6.542960   14.620328    ( 0.0000,  0.0000,  0.0000)
  23 Pt    -0.075690    4.962165   17.067166    ( 0.0000,  0.0000,  0.0000)
  24 Pt     5.679370    0.000000    9.999999    ( 0.0000,  0.0000,  0.0000)
  25 Pt     7.099213    0.819746   12.318592    ( 0.0000,  0.0000,  0.0000)
  26 Pt     5.679045    1.639686   14.588727    ( 0.0000,  0.0000,  0.0000)
  27 Pt     5.676172    0.024416   16.928230    ( 0.0000,  0.0000,  0.0000)
  28 Pt     4.259528    2.459239    9.999999    ( 0.0000,  0.0000,  0.0000)
  29 Pt     5.679370    3.278986   12.318592    ( 0.0000,  0.0000,  0.0000)
  30 Pt     4.247407    4.105451   14.624884    ( 0.0000,  0.0000,  0.0000)
  31 Pt     4.275419    2.450090   16.931448    ( 0.0000,  0.0000,  0.0000)
  32 Pt     2.839685    4.918479    9.999999    ( 0.0000,  0.0000,  0.0000)
  33 Pt     4.259528    5.738225   12.318592    ( 0.0000,  0.0000,  0.0000)
  34 Pt     2.840867    6.543212   14.625043    ( 0.0000,  0.0000,  0.0000)
  35 Pt     2.917919    4.965562   17.069944    ( 0.0000,  0.0000,  0.0000)
  36 O      1.423746    4.096517   18.177839    ( 0.0000,  0.0000,  0.0000)

Unit cell:
           periodic     x           y           z      points  spacing
  1. axis:    yes    8.519055    0.000000    0.000000    40     0.1844
  2. axis:    yes   -4.259528    7.377718    0.000000    40     0.1844
  3. axis:    no     0.000000    0.000000   26.955778   148     0.1821

  Lengths:   8.519055   8.519055  26.955778
  Angles:   90.000000  90.000000 120.000000

Effective grid spacing dv^(1/3) = 0.1927

     iter     time        total  log10-change:
                         energy  eigst   dens
iter:   1 01:13:41 -11897.113989  -2.81
iter:   2 01:14:16 -11906.240342  -1.97  -2.26
iter:   3 01:14:50 -11896.819204  -2.59  -1.68
iter:   4 01:15:25 -11896.578997  -3.09  -2.48
iter:   5 01:16:00 -11896.573487c -3.78  -3.19
iter:   6 01:16:35 -11896.572009c -4.69  -3.41
iter:   7 01:17:09 -11896.571771c -5.21  -3.67
iter:   8 01:17:44 -11896.571532c -5.21  -3.72
iter:   9 01:18:19 -11896.571394c -5.74  -3.95
iter:  10 01:18:53 -11896.571435c -6.53  -4.17c
iter:  11 01:19:28 -11896.571304c -6.70  -4.18c
iter:  12 01:20:03 -11896.571225c -6.81  -4.33c
iter:  13 01:20:38 -11896.571211c -7.11  -4.39c
iter:  14 01:21:12 -11896.571206c -7.09  -4.49c
iter:  15 01:21:47 -11896.571205c -6.85  -4.25c
iter:  16 01:22:22 -11896.571196c -7.88c -4.77c

Converged after 16 iterations.

Dipole moment: (-2.199438, -8.493095, -0.059528) |e|*Ang

Energy contributions relative to reference atoms: (reference = -18015553.911929)

Kinetic:       +811.378673
Potential:     -830.947428
External:        +0.000000
XC:            -11856.976605
Entropy (-ST):   -2.273773
Local:          -18.888949
--------------------------
Free energy:   -11897.708082
Extrapolated:  -11896.571196

Showing only first 2 kpts
 Kpt  Band  Eigenvalues  Occupancy
  0   289     -5.90993    1.24593
  0   290     -5.89646    1.18171
  0   291     -5.83844    0.89402
  0   292     -5.81534    0.78170

  1   289     -6.10095    1.83554
  1   290     -6.01719    1.65691
  1   291     -5.99086    1.57553
  1   292     -5.98347    1.55029


Fermi level: -5.85971

No gap

Forces in eV/Ang:
  0 Pt    0.00011   -0.00005   -0.12242
  1 Pt    0.02089    0.08715    0.03614
  2 Pt   -0.02230    0.00097    0.01968
  3 Pt   -0.00216    0.00121    0.02053
  4 Pt    0.00551    0.01439   -0.12120
  5 Pt    0.01019    0.00307    0.12781
  6 Pt   -0.03160   -0.01425    0.00791
  7 Pt   -0.00829   -0.00470    0.04081
  8 Pt    0.00465   -0.00719   -0.09707
  9 Pt    0.05559   -0.03206    0.06587
 10 Pt    0.00498   -0.00281   -0.00550
 11 Pt   -0.00618    0.00425    0.04734
 12 Pt    0.00856   -0.00042   -0.09707
 13 Pt   -0.00393   -0.01002    0.02260
 14 Pt    0.01649   -0.01910   -0.01200
 15 Pt   -0.00683    0.00318    0.04726
 16 Pt    0.00660    0.00761   -0.11067
 17 Pt   -0.02580    0.01493    0.10372
 18 Pt    0.00188   -0.00111    0.02207
 19 Pt   -0.01261   -0.04016    0.00147
 20 Pt    0.00434   -0.00250   -0.07961
 21 Pt    0.00245   -0.01029    0.12783
 22 Pt   -0.00340    0.03448    0.00781
 23 Pt   -0.05681    0.03272    0.00962
 24 Pt   -0.00971   -0.01197   -0.12120
 25 Pt   -0.02287    0.01324    0.01492
 26 Pt   -0.00368    0.00212    0.02924
 27 Pt   -0.00009    0.00965    0.04092
 28 Pt   -0.01621    0.00936   -0.07716
 29 Pt    0.00672    0.00842    0.02258
 30 Pt    0.02477   -0.00480   -0.01211
 31 Pt    0.00541   -0.00321    0.04482
 32 Pt   -0.00328   -0.00951   -0.11067
 33 Pt   -0.06500   -0.06164    0.03613
 34 Pt   -0.01215    0.01880    0.01956
 35 Pt    0.02856    0.03094    0.00161
 36 O    -0.00689    0.00386    0.04368

BFGS:   11 01:22:38   -11896.571196        0.0663
System changes: positions 

Initializing position-dependent things.

Density initialized from wave functions
                                            
                                            
                                            
                                            
                                            
                    O                       
          Pt     Pt     Pt                  
            Pt     Pt     Pt                
           Pt     Pt     Pt                 
             PPt    PPt    PPt              
                                            
              PPt    PPt    PPt             
                                            
                Pt     Pt     Pt            
                  Pt     Pt     Pt          
          Pt     Pt     Pt                  
            Pt     Pt     Pt                
              Pt     Pt     Pt              
                                            
                                            
                                            
                                            

Positions:
   0 Pt     0.000000    0.000000    9.999999    ( 0.0000,  0.0000,  0.0000)
   1 Pt     1.419843    0.819746   12.318592    ( 0.0000,  0.0000,  0.0000)
   2 Pt     0.012700    1.645728   14.625310    ( 0.0000,  0.0000,  0.0000)
   3 Pt     0.005147   -0.002922   16.918639    ( 0.0000,  0.0000,  0.0000)
   4 Pt    -1.419843    2.459239    9.999999    ( 0.0000,  0.0000,  0.0000)
   5 Pt     0.000000    3.278986   12.318592    ( 0.0000,  0.0000,  0.0000)
   6 Pt    -1.408101    4.106450   14.620345    ( 0.0000,  0.0000,  0.0000)
   7 Pt    -1.442685    2.449716   16.929444    ( 0.0000,  0.0000,  0.0000)
   8 Pt    -2.839685    4.918479    9.999999    ( 0.0000,  0.0000,  0.0000)
   9 Pt    -1.419843    5.738225   12.318592    ( 0.0000,  0.0000,  0.0000)
  10 Pt    -2.840261    6.558318   14.588830    ( 0.0000,  0.0000,  0.0000)
  11 Pt    -2.836245    4.919974   16.920144    ( 0.0000,  0.0000,  0.0000)
  12 Pt     2.839685    0.000000    9.999999    ( 0.0000,  0.0000,  0.0000)
  13 Pt     4.259528    0.819746   12.318592    ( 0.0000,  0.0000,  0.0000)
  14 Pt     2.828367    1.646095   14.624465    ( 0.0000,  0.0000,  0.0000)
  15 Pt     2.840139   -0.003660   16.920172    ( 0.0000,  0.0000,  0.0000)
  16 Pt     1.419843    2.459239    9.999999    ( 0.0000,  0.0000,  0.0000)
  17 Pt     2.839685    3.278986   12.318592    ( 0.0000,  0.0000,  0.0000)
  18 Pt     1.421258    4.097937   14.643304    ( 0.0000,  0.0000,  0.0000)
  19 Pt     1.417958    2.365931   17.067674    ( 0.0000,  0.0000,  0.0000)
  20 Pt     0.000000    4.918479    9.999999    ( 0.0000,  0.0000,  0.0000)
  21 Pt     1.419843    5.738225   12.318592    ( 0.0000,  0.0000,  0.0000)
  22 Pt    -0.000819    6.543958   14.620352    ( 0.0000,  0.0000,  0.0000)
  23 Pt    -0.077944    4.963464   17.064932    ( 0.0000,  0.0000,  0.0000)
  24 Pt     5.679370    0.000000    9.999999    ( 0.0000,  0.0000,  0.0000)
  25 Pt     7.099213    0.819746   12.318592    ( 0.0000,  0.0000,  0.0000)
  26 Pt     5.678982    1.639723   14.589642    ( 0.0000,  0.0000,  0.0000)
  27 Pt     5.676219    0.024516   16.929405    ( 0.0000,  0.0000,  0.0000)
  28 Pt     4.259528    2.459239    9.999999    ( 0.0000,  0.0000,  0.0000)
  29 Pt     5.679370    3.278986   12.318592    ( 0.0000,  0.0000,  0.0000)
  30 Pt     4.248174    4.105249   14.624466    ( 0.0000,  0.0000,  0.0000)
  31 Pt     4.275540    2.450018   16.932510    ( 0.0000,  0.0000,  0.0000)
  32 Pt     2.839685    4.918479    9.999999    ( 0.0000,  0.0000,  0.0000)
  33 Pt     4.259528    5.738225   12.318592    ( 0.0000,  0.0000,  0.0000)
  34 Pt     2.840669    6.543886   14.625302    ( 0.0000,  0.0000,  0.0000)
  35 Pt     2.919616    4.966784   17.067611    ( 0.0000,  0.0000,  0.0000)
  36 O      1.423536    4.096638   18.176313    ( 0.0000,  0.0000,  0.0000)

Unit cell:
           periodic     x           y           z      points  spacing
  1. axis:    yes    8.519055    0.000000    0.000000    40     0.1844
  2. axis:    yes   -4.259528    7.377718    0.000000    40     0.1844
  3. axis:    no     0.000000    0.000000   26.955778   148     0.1821

  Lengths:   8.519055   8.519055  26.955778
  Angles:   90.000000  90.000000 120.000000

Effective grid spacing dv^(1/3) = 0.1927

     iter     time        total  log10-change:
                         energy  eigst   dens
iter:   1 01:24:04 -11896.573106  -3.81
iter:   2 01:24:39 -11896.594138  -4.40  -3.46
iter:   3 01:25:14 -11896.573549c -4.70  -2.95
iter:   4 01:25:49 -11896.571575c -5.70  -3.41
iter:   5 01:26:24 -11896.571363c -6.23  -3.86
iter:   6 01:26:59 -11896.571372c -6.57  -4.25c
iter:   7 01:27:33 -11896.571335c -6.35  -4.32c
iter:   8 01:28:08 -11896.571322c -6.64  -4.56c
iter:   9 01:28:43 -11896.571307c -7.30  -4.67c
iter:  10 01:29:18 -11896.571317c -7.51c -4.68c

Converged after 10 iterations.

Dipole moment: (-2.222275, -8.477068, -0.060774) |e|*Ang

Energy contributions relative to reference atoms: (reference = -18015553.911929)

Kinetic:       +811.145351
Potential:     -830.742277
External:        +0.000000
XC:            -11856.947955
Entropy (-ST):   -2.274598
Local:          -18.889137
--------------------------
Free energy:   -11897.708616
Extrapolated:  -11896.571317

Showing only first 2 kpts
 Kpt  Band  Eigenvalues  Occupancy
  0   289     -5.91105    1.24660
  0   290     -5.89759    1.18244
  0   291     -5.83925    0.89321
  0   292     -5.81632    0.78171

  1   289     -6.10140    1.83473
  1   290     -6.01802    1.65651
  1   291     -5.99162    1.57479
  1   292     -5.98401    1.54876


Fermi level: -5.86069

No gap

Forces in eV/Ang:
  0 Pt    0.00005   -0.00002   -0.12304
  1 Pt    0.01873    0.08614    0.03980
  2 Pt   -0.01584    0.00377    0.01470
  3 Pt   -0.00314    0.00177    0.01648
  4 Pt    0.00533    0.01452   -0.12283
  5 Pt    0.00931    0.00279    0.13152
  6 Pt   -0.02025   -0.00995    0.00771
  7 Pt   -0.00666   -0.00060    0.03704
  8 Pt    0.00473   -0.00747   -0.09839
  9 Pt    0.05585   -0.03222    0.06944
 10 Pt    0.00261   -0.00147   -0.00947
 11 Pt   -0.00661   -0.00097    0.04011
 12 Pt    0.00884   -0.00035   -0.09839
 13 Pt   -0.00129   -0.00950    0.02441
 14 Pt    0.01138   -0.01098   -0.00711
 15 Pt   -0.00250    0.00617    0.04005
 16 Pt    0.00676    0.00786   -0.11208
 17 Pt   -0.02588    0.01497    0.10513
 18 Pt    0.00069   -0.00042    0.02966
 19 Pt   -0.00878    0.00281    0.02367
 20 Pt    0.00441   -0.00254   -0.08097
 21 Pt    0.00224   -0.00940    0.13153
 22 Pt   -0.00147    0.02250    0.00765
 23 Pt   -0.01470    0.00845    0.03410
 24 Pt   -0.00992   -0.01188   -0.12283
 25 Pt   -0.02355    0.01364    0.02010
 26 Pt   -0.00348    0.00201    0.02329
 27 Pt   -0.00284    0.00615    0.03713
 28 Pt   -0.01612    0.00931   -0.07902
 29 Pt    0.00760    0.00587    0.02439
 30 Pt    0.01519   -0.00441   -0.00719
 31 Pt   -0.00094    0.00048    0.03698
 32 Pt   -0.00342   -0.00977   -0.11208
 33 Pt   -0.06520   -0.05926    0.03979
 34 Pt   -0.01131    0.01180    0.01462
 35 Pt   -0.00683    0.00612    0.02383
 36 O    -0.00586    0.00326    0.02359

BFGS:   12 01:29:35   -11896.571317        0.0407
Timing:                                      incl.     excl.
-------------------------------------------------------------------
Density initialized from wave functions:     0.658     0.657   0.0% |
 Symmetrize density:                         0.000     0.000   0.0% |
Forces:                                    220.146   220.146   2.3% ||
Hamiltonian:                                38.096     0.002   0.0% |
 Atomic:                                     0.003     0.003   0.0% |
  XC Correction:                             0.000     0.000   0.0% |
 Calculate atomic Hamiltonians:              0.004     0.004   0.0% |
 Communicate:                                2.575     2.575   0.0% |
 Hartree integrate/restrict:                 0.113     0.113   0.0% |
 Initialize Hamiltonian:                     0.001     0.001   0.0% |
 Poisson:                                    1.976     0.086   0.0% |
  Communicate from 1D:                       0.160     0.160   0.0% |
  Communicate from 2D:                       0.323     0.323   0.0% |
  Communicate to 1D:                         0.089     0.089   0.0% |
  Communicate to 2D:                         0.350     0.350   0.0% |
  FFT 1D:                                    0.499     0.499   0.0% |
  FFT 2D:                                    0.468     0.468   0.0% |
 XC 3D grid:                                33.392     8.417   0.1% |
  VdW-DF integral:                          24.975     1.560   0.0% |
   Convolution:                              2.584     2.584   0.0% |
   FFT:                                      1.698     1.698   0.0% |
   gather:                                   5.292     5.292   0.1% |
   hmm1:                                     0.464     0.464   0.0% |
   hmm2:                                     1.036     1.036   0.0% |
   iFFT:                                     1.635     1.635   0.0% |
   potential:                                7.162     0.194   0.0% |
    collect:                                 0.571     0.571   0.0% |
    p1:                                      4.344     4.344   0.0% |
    p2:                                      1.550     1.550   0.0% |
    sum:                                     0.503     0.503   0.0% |
   splines:                                  3.544     3.544   0.0% |
 vbar:                                       0.031     0.031   0.0% |
LCAO initialization:                        35.135     0.814   0.0% |
 LCAO eigensolver:                          23.372     0.004   0.0% |
  Calculate projections:                     0.000     0.000   0.0% |
  DenseAtomicCorrection:                     0.000     0.000   0.0% |
  Distribute overlap matrix:                22.518    22.518   0.2% |
  Orbital Layouts:                           0.682     0.682   0.0% |
  Potential matrix:                          0.035     0.035   0.0% |
  Sum over cells:                            0.132     0.132   0.0% |
 LCAO to grid:                               9.394     9.394   0.1% |
 Set positions (LCAO WFS):                   1.556     1.106   0.0% |
  Basic WFS set positions:                   0.001     0.001   0.0% |
  Basis functions set positions:             0.000     0.000   0.0% |
  P tci:                                     0.000     0.000   0.0% |
  ST tci:                                    0.369     0.369   0.0% |
  mktci:                                     0.079     0.079   0.0% |
Redistribute:                                0.006     0.006   0.0% |
SCF-cycle:                                8776.407    16.849   0.2% |
 Davidson:                                8046.512  2605.111  27.1% |----------|
  Apply hamiltonian:                       154.646   154.646   1.6% ||
  Subspace diag:                           745.139     0.027   0.0% |
   calc_h_matrix:                          361.319   203.692   2.1% ||
    Apply hamiltonian:                     157.627   157.627   1.6% ||
   diagonalize:                             15.750    15.750   0.2% |
   rotate_psi:                             368.044   368.044   3.8% |-|
  calc. matrices:                         3750.663  1338.378  13.9% |-----|
   Apply hamiltonian:                     2412.285  2412.285  25.1% |---------|
  diagonalize:                             120.196   120.196   1.2% |
  rotate_psi:                              670.757   670.757   7.0% |--|
 Density:                                   14.823     0.005   0.0% |
  Atomic density matrices:                   1.032     1.032   0.0% |
  Mix:                                       3.261     3.261   0.0% |
  Multipole moments:                         0.088     0.088   0.0% |
  Pseudo density:                           10.439    10.432   0.1% |
   Symmetrize density:                       0.006     0.006   0.0% |
 Hamiltonian:                              631.950     0.029   0.0% |
  Atomic:                                    0.052     0.051   0.0% |
   XC Correction:                            0.001     0.001   0.0% |
  Calculate atomic Hamiltonians:             0.069     0.069   0.0% |
  Communicate:                              46.921    46.921   0.5% |
  Hartree integrate/restrict:                2.109     2.109   0.0% |
  Poisson:                                  36.259     1.505   0.0% |
   Communicate from 1D:                      2.871     2.871   0.0% |
   Communicate from 2D:                      5.993     5.993   0.1% |
   Communicate to 1D:                        1.626     1.626   0.0% |
   Communicate to 2D:                        6.432     6.432   0.1% |
   FFT 1D:                                   9.187     9.187   0.1% |
   FFT 2D:                                   8.645     8.645   0.1% |
  XC 3D grid:                              546.073   152.524   1.6% ||
   VdW-DF integral:                        393.549    28.600   0.3% |
    Convolution:                            47.017    47.017   0.5% |
    FFT:                                    30.865    30.865   0.3% |
    gather:                                 97.749    97.749   1.0% |
    hmm1:                                    8.381     8.381   0.1% |
    hmm2:                                   18.970    18.970   0.2% |
    iFFT:                                   30.229    30.229   0.3% |
    potential:                             131.738     3.353   0.0% |
     collect:                               10.549    10.549   0.1% |
     p1:                                    80.991    80.991   0.8% |
     p2:                                    27.959    27.959   0.3% |
     sum:                                    8.886     8.886   0.1% |
    splines:                                 0.001     0.001   0.0% |
  vbar:                                      0.438     0.438   0.0% |
 Orthonormalize:                            66.273     0.002   0.0% |
  calc_s_matrix:                             4.497     4.497   0.0% |
  inverse-cholesky:                         52.804    52.804   0.5% |
  projections:                               0.001     0.001   0.0% |
  rotate_psi_s:                              8.969     8.969   0.1% |
Set symmetry:                                0.001     0.001   0.0% |
Other:                                     548.766   548.766   5.7% |-|
-------------------------------------------------------------------
Total:                                              9619.215 100.0%

Memory usage: 1.52 GiB
Date: Thu Sep 28 01:29:35 2023
