
  ___ ___ ___ _ _ _  
 |   |   |_  | | | | 
 | | | | | . | | | | 
 |__ |  _|___|_____|  22.8.0
 |___|_|             

User:   s204775@c106.nifl.fysik.dtu.dk
Date:   Wed Sep 27 22:57:45 2023
Arch:   x86_64
Pid:    18496
CWD:    /home/cat/s204775/projects/Bachelor_project/O_missing_features
Python: 3.10.4
gpaw:   /home/modules/software/GPAW/22.8.0-intel-2022a/lib/python3.10/site-packages/gpaw
_gpaw:  /home/modules/software/GPAW/22.8.0-intel-2022a/lib/python3.10/site-packages/
        _gpaw.cpython-310-x86_64-linux-gnu.so
ase:    /home/modules/software/ASE/3.22.1-intel-2022a/lib/python3.10/site-packages/ase (version 3.22.1)
numpy:  /home/modules/software/SciPy-bundle/2022.05-intel-2022a/lib/python3.10/site-packages/numpy (version 1.22.3)
scipy:  /home/modules/software/SciPy-bundle/2022.05-intel-2022a/lib/python3.10/site-packages/scipy (version 1.8.1)
libxc:  5.2.3
units:  Angstrom and eV
cores: 40
OpenMP: False
OMP_NUM_THREADS: 1

Input parameters:
  basis: dzp
  h: 0.18
  kpts: {size: (4, 4, 1)}
  xc: BEEF-vdW

System changes: positions, numbers, cell, pbc, initial_charges, initial_magmoms 

Initialize ...

species:
  Rh:
    name: Rhodium
    id: 4e1d209aee696a641de1ffa1459b299f
    Z: 45.0
    valence: 15
    core: 30
    charge: 0.0
    file: /home/modules/software/GPAW-setups/0.9.20000/Rh.PBE.gz
    compensation charges: {type: gauss,
                           rc: 0.38,
                           lmax: 2}
    cutoffs: {filter: 2.48,
              core: 2.35}
    valence states:
      #              energy  rcut
      - 5s(1.00)    -4.297   1.270
      - 4p(6.00)   -50.429   1.381
      - 5p(0.00)    -0.852   1.381
      - 4d(8.00)    -5.942   1.244
      -  s          22.915   1.270
      -  d          21.270   1.244
  
    # LCAO basis set for Rh:
    #   Name: dzp
    #   File: /home/modules/software/GPAW-setups/0.9.20000/Rh.dzp.basis.gz
    #   Number of radial functions: 9
    #   Number of spherical harmonics: 27
    #     l=0, rc=9.5469 Bohr: 5s-sz confined orbital
    #     l=1, rc=3.6250 Bohr: 4p-sz confined orbital
    #     l=1, rc=14.0938 Bohr: 5p-sz confined orbital
    #     l=2, rc=5.9844 Bohr: 4d-sz confined orbital
    #     l=0, rc=5.7031 Bohr: 5s-dz split-valence wave
    #     l=1, rc=2.4531 Bohr: 4p-dz split-valence wave
    #     l=1, rc=8.7031 Bohr: 5p-dz split-valence wave
    #     l=2, rc=3.5625 Bohr: 4d-dz split-valence wave
    #     l=1, rc=9.5469 Bohr: p-type Gaussian polarization
    #   Number of RI-basis functions 0

  O:
    name: Oxygen
    id: 32ecd46bf208036f09c70b0ec9a88b78
    Z: 8.0
    valence: 6
    core: 2
    charge: 0.0
    file: /home/modules/software/GPAW-setups/0.9.20000/O.PBE.gz
    compensation charges: {type: gauss,
                           rc: 0.21,
                           lmax: 2}
    cutoffs: {filter: 1.17,
              core: 0.83}
    valence states:
      #              energy  rcut
      - 2s(2.00)   -23.961   0.688
      - 2p(4.00)    -9.029   0.598
      -  s           3.251   0.688
      -  p          18.182   0.598
      -  d           0.000   0.619
  
    # LCAO basis set for O:
    #   Name: dzp
    #   File: /home/modules/software/GPAW-setups/0.9.20000/O.dzp.basis.gz
    #   Number of radial functions: 5
    #   Number of spherical harmonics: 13
    #     l=0, rc=4.3438 Bohr: 2s-sz confined orbital
    #     l=1, rc=5.3906 Bohr: 2p-sz confined orbital
    #     l=0, rc=2.2969 Bohr: 2s-dz split-valence wave
    #     l=1, rc=2.8906 Bohr: 2p-dz split-valence wave
    #     l=2, rc=5.3906 Bohr: d-type Gaussian polarization
    #   Number of RI-basis functions 0

Reference energy: -4686888.144308  # eV

Spin-paired calculation

Convergence criteria:
 Maximum [total energy] change in last 3 cyles: 0.0005 eV / electron
 Maximum integral of absolute [dens]ity change: 0.0001 electrons / valence electron
 Maximum integral of absolute [eigenst]ate change: 4e-08 eV^2 / valence electron
 Maximum number of scf [iter]ations: 333
 (Square brackets indicate name in SCF output, whereas a 'c' in
 the SCF output indicates the quantity has converged.)

Symmetries present (total): 1

  ( 1  0  0)
  ( 0  1  0)
  ( 0  0  1)

16 k-points: 4 x 4 x 1 Monkhorst-Pack grid
8 k-points in the irreducible part of the Brillouin zone
       k-points in crystal coordinates                weights
   0:     0.12500000   -0.37500000    0.00000000          2/16
   1:     0.12500000   -0.12500000    0.00000000          2/16
   2:     0.12500000    0.12500000    0.00000000          2/16
   3:     0.12500000    0.37500000    0.00000000          2/16
   4:     0.37500000   -0.37500000    0.00000000          2/16
   5:     0.37500000   -0.12500000    0.00000000          2/16
   6:     0.37500000    0.12500000    0.00000000          2/16
   7:     0.37500000    0.37500000    0.00000000          2/16

Wave functions: Uniform real-space grid
  Kinetic energy operator: 8*3+1=25 point O(h^6) finite-difference Laplacian
  ScaLapack parameters: grid=1x1, blocksize=None
  Wavefunction extrapolation:
    Improved wavefunction reuse through dual PAW basis 

Occupation numbers: Fermi-Dirac:
  width: 0.1000  # eV
 

Eigensolver
   Davidson(niter=2) 

Densities:
  Coarse grid: 40*40*148 grid
  Fine grid: 80*80*296 grid
  Total Charge: 0.000000 

Density mixing:
  Method: separate
  Backend: pulay
  Linear mixing parameter: 0.05
  old densities: 5
  Damping of long wavelength oscillations: 50 

Hamiltonian:
  XC and Coulomb potentials evaluated on a 80*80*296 grid
  Using the BEEF-vdW Exchange-Correlation functional
  Interpolation: tri-quintic (5. degree polynomial)
  Poisson solver: FastPoissonSolver using
    Stencil: 8*3+1=25 point O(h^6) finite-difference Laplacian
    FFT axes: [0, 1]
    FST axes: [2]
 

XC parameters: BEEF-vdW with 2 nearest neighbor stencil

Memory estimate:
  Process memory now: 214.44 MiB
  Calculator: 577.01 MiB
    Density: 66.00 MiB
      Arrays: 9.35 MiB
      Localized functions: 53.11 MiB
      Mixer: 3.54 MiB
    Hamiltonian: 10.34 MiB
      Arrays: 6.12 MiB
      XC: 0.00 MiB
      Poisson: 0.00 MiB
      vbar: 4.23 MiB
    Wavefunctions: 500.66 MiB
      Arrays psit_nG: 235.06 MiB
      Eigensolver: 255.43 MiB
      Projections: 0.67 MiB
      Projectors: 9.50 MiB

Total number of cores used: 40
Parallelization over k-points: 8
Domain decomposition: 1 x 1 x 5

Number of atoms: 37
Number of atomic orbitals: 985
Number of bands in calculation: 332
Number of valence electrons: 546
Bands to converge: occupied

... initialized

Initializing position-dependent things.

Density initialized from atomic densities
Creating initial wave functions:
  332 bands from LCAO basis set

                                           
                                           
                                           
                                           
                                           
          Rh    Rh O   Rh                  
                                           
           RRh   RRh    RRh                
              Rh    Rh     Rh              
             Rh    Rh     Rh               
              RRh   RRh    RRh             
                                           
                Rh    Rh     Rh            
                 Rh     Rh     Rh          
          Rh    Rh     Rh                  
            Rh    Rh     Rh                
              Rh    Rh     Rh              
                                           
                                           
                                           
                                           

Positions:
   0 Rh     0.000000    0.000000    9.999999    ( 0.0000,  0.0000,  0.0000)
   1 Rh     1.374814    0.793749   12.245061    ( 0.0000,  0.0000,  0.0000)
   2 Rh     0.000000    1.586401   14.446843    ( 0.0000,  0.0000,  0.0000)
   3 Rh    -0.000000    0.000000   16.662155    ( 0.0000,  0.0000,  0.0000)
   4 Rh    -1.374814    2.381247    9.999999    ( 0.0000,  0.0000,  0.0000)
   5 Rh    -0.000000    3.174997   12.245061    ( 0.0000,  0.0000,  0.0000)
   6 Rh    -1.374325    3.969028   14.447533    ( 0.0000,  0.0000,  0.0000)
   7 Rh    -1.373523    2.379417   16.659614    ( 0.0000,  0.0000,  0.0000)
   8 Rh    -2.749628    4.762495    9.999999    ( 0.0000,  0.0000,  0.0000)
   9 Rh    -1.374814    5.556244   12.245061    ( 0.0000,  0.0000,  0.0000)
  10 Rh    -2.750578    6.350542   14.446843    ( 0.0000,  0.0000,  0.0000)
  11 Rh    -2.750567    4.764528   16.659614    ( 0.0000,  0.0000,  0.0000)
  12 Rh     2.749628    0.000000    9.999999    ( 0.0000,  0.0000,  0.0000)
  13 Rh     4.124441    0.793749   12.245061    ( 0.0000,  0.0000,  0.0000)
  14 Rh     2.749543    1.587450   14.446652    ( 0.0000,  0.0000,  0.0000)
  15 Rh     2.747397   -0.000203   16.659614    ( 0.0000,  0.0000,  0.0000)
  16 Rh     1.374814    2.381247    9.999999    ( 0.0000,  0.0000,  0.0000)
  17 Rh     2.749628    3.174997   12.245061    ( 0.0000,  0.0000,  0.0000)
  18 Rh     1.374325    3.969028   14.447533    ( 0.0000,  0.0000,  0.0000)
  19 Rh     1.373523    2.379417   16.659614    ( 0.0000,  0.0000,  0.0000)
  20 Rh    -0.000000    4.762495    9.999999    ( 0.0000,  0.0000,  0.0000)
  21 Rh     1.374814    5.556244   12.245061    ( 0.0000,  0.0000,  0.0000)
  22 Rh    -0.000000    6.349429   14.447533    ( 0.0000,  0.0000,  0.0000)
  23 Rh    -0.000000    4.762495   16.661084    ( 0.0000,  0.0000,  0.0000)
  24 Rh     5.499255    0.000000    9.999999    ( 0.0000,  0.0000,  0.0000)
  25 Rh     6.874069    0.793749   12.245061    ( 0.0000,  0.0000,  0.0000)
  26 Rh     5.499340    1.587450   14.446652    ( 0.0000,  0.0000,  0.0000)
  27 Rh     5.501486   -0.000203   16.659614    ( 0.0000,  0.0000,  0.0000)
  28 Rh     4.124441    2.381247    9.999999    ( 0.0000,  0.0000,  0.0000)
  29 Rh     5.499255    3.174997   12.245061    ( 0.0000,  0.0000,  0.0000)
  30 Rh     4.124441    3.968843   14.446652    ( 0.0000,  0.0000,  0.0000)
  31 Rh     4.124441    2.381247   16.660091    ( 0.0000,  0.0000,  0.0000)
  32 Rh     2.749628    4.762495    9.999999    ( 0.0000,  0.0000,  0.0000)
  33 Rh     4.124441    5.556244   12.245061    ( 0.0000,  0.0000,  0.0000)
  34 Rh     2.750578    6.350542   14.446843    ( 0.0000,  0.0000,  0.0000)
  35 Rh     2.750567    4.764528   16.659614    ( 0.0000,  0.0000,  0.0000)
  36 O      1.373523    3.967458   17.453635    ( 0.0000,  0.0000,  0.0000)

Unit cell:
           periodic     x           y           z      points  spacing
  1. axis:    yes    8.248883    0.000000    0.000000    40     0.1786
  2. axis:    yes   -4.124441    7.143742    0.000000    40     0.1786
  3. axis:    no     0.000000    0.000000   26.735183   148     0.1806

  Lengths:   8.248883   8.248883  26.735183
  Angles:   90.000000  90.000000 120.000000

Effective grid spacing dv^(1/3) = 0.1881

     iter     time        total  log10-change:
                         energy  eigst   dens
iter:   1 22:59:55 -5178.614234
iter:   2 23:00:43 -5340.319242  -0.21  -1.32
iter:   3 23:01:30 -5174.913190  -1.03  -1.00
iter:   4 23:02:18 -5167.309873  -1.39  -1.37
iter:   5 23:03:06 -5163.530997  -2.01  -1.44
iter:   6 23:03:53 -5166.639796  -1.08  -1.53
iter:   7 23:04:41 -5160.686477  -1.34  -1.54
iter:   8 23:05:28 -5159.097729  -2.06  -1.84
iter:   9 23:06:16 -5158.753143  -2.94  -2.02
iter:  10 23:07:03 -5158.602742  -2.73  -2.09
iter:  11 23:07:51 -5158.325902  -2.34  -2.15
iter:  12 23:08:38 -5158.369437  -2.56  -2.35
iter:  13 23:09:26 -5158.355659c -3.02  -2.44
iter:  14 23:10:13 -5158.289835c -3.16  -2.51
iter:  15 23:11:01 -5158.285194c -3.45  -2.76
iter:  16 23:11:48 -5158.279236c -3.92  -3.00
iter:  17 23:12:36 -5158.277645c -4.41  -3.13
iter:  18 23:13:23 -5158.277328c -4.56  -3.24
iter:  19 23:14:11 -5158.280556c -5.03  -3.32
iter:  20 23:14:58 -5158.278077c -4.98  -3.38
iter:  21 23:15:46 -5158.302412c -4.70  -3.40
iter:  22 23:16:33 -5158.278399c -4.97  -2.84
iter:  23 23:17:21 -5158.278530c -5.22  -3.66
iter:  24 23:18:08 -5158.278898c -5.44  -3.86
iter:  25 23:18:56 -5158.279280c -5.83  -3.99
iter:  26 23:19:44 -5158.278720c -6.34  -4.07c
iter:  27 23:20:31 -5158.279047c -6.38  -4.08c
iter:  28 23:21:19 -5158.279000c -6.46  -4.04c
iter:  29 23:22:06 -5158.278789c -6.91  -4.11c
iter:  30 23:22:54 -5158.278882c -7.02  -4.24c
iter:  31 23:23:41 -5158.278986c -6.84  -4.32c
iter:  32 23:24:29 -5158.278822c -7.06  -4.38c
iter:  33 23:25:16 -5158.278941c -7.21  -4.45c
iter:  34 23:26:04 -5158.278934c -7.57c -4.51c

Converged after 34 iterations.

Dipole moment: (-3.991771, -6.722859, 0.045012) |e|*Ang

Energy contributions relative to reference atoms: (reference = -4686888.144308)

Kinetic:       +795.489790
Potential:     -813.739646
External:        +0.000000
XC:            -5128.646079
Entropy (-ST):   -2.253074
Local:          -10.256462
--------------------------
Free energy:   -5159.405471
Extrapolated:  -5158.278934

Showing only first 2 kpts
 Kpt  Band  Eigenvalues  Occupancy
  0   271     -5.23574    1.00055
  0   272     -5.22779    0.96081
  0   273     -5.19851    0.81650
  0   274     -5.16606    0.66552

  1   271     -5.30490    1.33312
  1   272     -5.29973    1.30994
  1   273     -5.26577    1.14954
  1   274     -5.24348    1.03920


Fermi level: -5.23563

No gap

Forces in eV/Ang:
  0 Rh   -0.01188    0.00686    0.17648
  1 Rh   -0.02511   -0.02580   -0.19008
  2 Rh   -0.05487    0.00304   -0.12447
  3 Rh   -0.00757    0.00332    0.12975
  4 Rh    0.01725    0.00328    0.21825
  5 Rh   -0.03038   -0.01686   -0.20059
  6 Rh   -0.02072   -0.05833   -0.12591
  7 Rh   -0.53693   -0.32028   -0.06107
  8 Rh   -0.00194   -0.00908    0.16119
  9 Rh   -0.01182    0.00695   -0.19723
 10 Rh   -0.00462    0.00273   -0.08245
 11 Rh   -0.00596    0.00663    0.11628
 12 Rh    0.00681    0.00617    0.16129
 13 Rh   -0.01960   -0.00530   -0.28030
 14 Rh    0.05635    0.00289   -0.12246
 15 Rh   -0.00797    0.00132    0.11656
 16 Rh   -0.00506   -0.00552    0.17724
 17 Rh    0.02839   -0.01642   -0.19441
 18 Rh    0.01066   -0.00533   -1.13767
 19 Rh    0.01398   -4.81543   -1.53969
 20 Rh   -0.00113    0.00072    0.18821
 21 Rh   -0.00058    0.03495   -0.20067
 22 Rh    0.04043    0.04650   -0.12508
 23 Rh   -4.18751    2.42208   -1.52237
 24 Rh    0.00586   -0.01657    0.21835
 25 Rh    0.03972   -0.02309   -0.27916
 26 Rh   -0.00023   -0.00009   -0.06370
 27 Rh    0.00946    0.62338   -0.06094
 28 Rh   -0.01399    0.00819    0.23180
 29 Rh   -0.00532    0.01970   -0.27991
 30 Rh    0.02580   -0.05000   -0.12249
 31 Rh    0.53508   -0.30830   -0.05698
 32 Rh    0.00224    0.00719    0.17713
 33 Rh    0.00976    0.03476   -0.19005
 34 Rh   -0.02999    0.04541   -0.12363
 35 Rh    4.12662    2.37079   -1.50933
 36 O     0.03169    0.02281    6.67020

      Step     Time          Energy         fmax
BFGS:    0 23:26:31    -5158.278934        6.6703
System changes: positions 

Initializing position-dependent things.

Density initialized from wave functions
                                           
                                           
                                           
                                           
                                           
                   O                       
          Rh    Rh     Rh                  
           RRh   RRh    RRh                
              Rh    Rh     Rh              
             Rh    Rh     Rh               
              RRh   RRh    RRh             
                                           
                Rh    Rh     Rh            
                 Rh     Rh     Rh          
          Rh    Rh     Rh                  
            Rh    Rh     Rh                
              Rh    Rh     Rh              
                                           
                                           
                                           
                                           

Positions:
   0 Rh     0.000000    0.000000    9.999999    ( 0.0000,  0.0000,  0.0000)
   1 Rh     1.374814    0.793749   12.245061    ( 0.0000,  0.0000,  0.0000)
   2 Rh    -0.000784    1.586445   14.445065    ( 0.0000,  0.0000,  0.0000)
   3 Rh    -0.000108    0.000047   16.664009    ( 0.0000,  0.0000,  0.0000)
   4 Rh    -1.374814    2.381247    9.999999    ( 0.0000,  0.0000,  0.0000)
   5 Rh    -0.000000    3.174997   12.245061    ( 0.0000,  0.0000,  0.0000)
   6 Rh    -1.374621    3.968194   14.445734    ( 0.0000,  0.0000,  0.0000)
   7 Rh    -1.381193    2.374841   16.658742    ( 0.0000,  0.0000,  0.0000)
   8 Rh    -2.749628    4.762495    9.999999    ( 0.0000,  0.0000,  0.0000)
   9 Rh    -1.374814    5.556244   12.245061    ( 0.0000,  0.0000,  0.0000)
  10 Rh    -2.750644    6.350581   14.445665    ( 0.0000,  0.0000,  0.0000)
  11 Rh    -2.750653    4.764623   16.661276    ( 0.0000,  0.0000,  0.0000)
  12 Rh     2.749628    0.000000    9.999999    ( 0.0000,  0.0000,  0.0000)
  13 Rh     4.124441    0.793749   12.245061    ( 0.0000,  0.0000,  0.0000)
  14 Rh     2.750348    1.587491   14.444903    ( 0.0000,  0.0000,  0.0000)
  15 Rh     2.747283   -0.000184   16.661280    ( 0.0000,  0.0000,  0.0000)
  16 Rh     1.374814    2.381247    9.999999    ( 0.0000,  0.0000,  0.0000)
  17 Rh     2.749628    3.174997   12.245061    ( 0.0000,  0.0000,  0.0000)
  18 Rh     1.374477    3.968952   14.431280    ( 0.0000,  0.0000,  0.0000)
  19 Rh     1.373723    2.310625   16.637619    ( 0.0000,  0.0000,  0.0000)
  20 Rh    -0.000000    4.762495    9.999999    ( 0.0000,  0.0000,  0.0000)
  21 Rh     1.374814    5.556244   12.245061    ( 0.0000,  0.0000,  0.0000)
  22 Rh     0.000578    6.350093   14.445746    ( 0.0000,  0.0000,  0.0000)
  23 Rh    -0.059822    4.797096   16.639336    ( 0.0000,  0.0000,  0.0000)
  24 Rh     5.499255    0.000000    9.999999    ( 0.0000,  0.0000,  0.0000)
  25 Rh     6.874069    0.793749   12.245061    ( 0.0000,  0.0000,  0.0000)
  26 Rh     5.499336    1.587448   14.445742    ( 0.0000,  0.0000,  0.0000)
  27 Rh     5.501621    0.008703   16.658744    ( 0.0000,  0.0000,  0.0000)
  28 Rh     4.124441    2.381247    9.999999    ( 0.0000,  0.0000,  0.0000)
  29 Rh     5.499255    3.174997   12.245061    ( 0.0000,  0.0000,  0.0000)
  30 Rh     4.124810    3.968129   14.444902    ( 0.0000,  0.0000,  0.0000)
  31 Rh     4.132085    2.376843   16.659277    ( 0.0000,  0.0000,  0.0000)
  32 Rh     2.749628    4.762495    9.999999    ( 0.0000,  0.0000,  0.0000)
  33 Rh     4.124441    5.556244   12.245061    ( 0.0000,  0.0000,  0.0000)
  34 Rh     2.750149    6.351190   14.445077    ( 0.0000,  0.0000,  0.0000)
  35 Rh     2.809519    4.798396   16.638053    ( 0.0000,  0.0000,  0.0000)
  36 O      1.373976    3.967784   17.548924    ( 0.0000,  0.0000,  0.0000)

Unit cell:
           periodic     x           y           z      points  spacing
  1. axis:    yes    8.248883    0.000000    0.000000    40     0.1786
  2. axis:    yes   -4.124441    7.143742    0.000000    40     0.1786
  3. axis:    no     0.000000    0.000000   26.735183   148     0.1806

  Lengths:   8.248883   8.248883  26.735183
  Angles:   90.000000  90.000000 120.000000

Effective grid spacing dv^(1/3) = 0.1881

     iter     time        total  log10-change:
                         energy  eigst   dens
iter:   1 23:28:22 -5165.501783  -0.84
iter:   2 23:29:10 -5219.357650  -1.14  -1.85
iter:   3 23:29:58 -5162.154651  -1.41  -1.27
iter:   4 23:30:46 -5160.142998  -2.34  -1.90
iter:   5 23:31:34 -5160.604458  -2.44  -2.22
iter:   6 23:32:22 -5159.577596  -3.01  -2.03
iter:   7 23:33:10 -5159.516807  -3.35  -2.68
iter:   8 23:33:59 -5159.498164c -3.58  -2.84
iter:   9 23:34:48 -5159.506796c -3.45  -2.94
iter:  10 23:35:36 -5159.488845c -3.48  -2.75
iter:  11 23:36:25 -5159.474959c -3.77  -3.02
iter:  12 23:37:13 -5159.479027c -4.47  -3.09
iter:  13 23:38:02 -5159.475079c -5.16  -3.13
iter:  14 23:38:51 -5159.474857c -4.84  -3.27
iter:  15 23:39:39 -5159.474444c -4.49  -3.43
iter:  16 23:40:28 -5159.473890c -5.02  -3.35
iter:  17 23:41:16 -5159.472088c -5.55  -3.61
iter:  18 23:42:05 -5159.474826c -5.67  -3.64
iter:  19 23:42:53 -5159.472556c -5.24  -3.59
iter:  20 23:43:42 -5159.472884c -5.45  -3.91
iter:  21 23:44:31 -5159.472660c -6.20  -3.98
iter:  22 23:45:19 -5159.473099c -6.53  -4.06c
iter:  23 23:46:08 -5159.472420c -6.24  -3.90
iter:  24 23:46:56 -5159.473331c -6.44  -4.21c
iter:  25 23:47:45 -5159.472730c -6.77  -4.20c
iter:  26 23:48:34 -5159.472772c -7.24  -4.53c
iter:  27 23:49:22 -5159.472736c -7.24  -4.62c
iter:  28 23:50:11 -5159.472875c -7.44c -4.54c

Converged after 28 iterations.

Dipole moment: (-3.392477, -7.052592, -0.008434) |e|*Ang

Energy contributions relative to reference atoms: (reference = -4686888.144308)

Kinetic:       +775.726539
Potential:     -797.861674
External:        +0.000000
XC:            -5126.134582
Entropy (-ST):   -2.247190
Local:          -10.079563
--------------------------
Free energy:   -5160.596470
Extrapolated:  -5159.472875

Showing only first 2 kpts
 Kpt  Band  Eigenvalues  Occupancy
  0   271     -5.29458    1.03123
  0   272     -5.27975    0.95711
  0   273     -5.24244    0.77449
  0   274     -5.21605    0.65357

  1   271     -5.35471    1.32020
  1   272     -5.34615    1.28131
  1   273     -5.32155    1.16459
  1   274     -5.29993    1.05791


Fermi level: -5.28833

No gap

Forces in eV/Ang:
  0 Rh   -0.01447    0.00836    0.17394
  1 Rh   -0.02615   -0.03321   -0.20043
  2 Rh   -0.06764    0.01764   -0.14904
  3 Rh   -0.06839    0.03710    0.11596
  4 Rh    0.02623    0.00802    0.19141
  5 Rh   -0.06692   -0.03723   -0.23400
  6 Rh   -0.01506   -0.07654   -0.15112
  7 Rh   -0.31971   -0.19336   -0.06183
  8 Rh   -0.00157   -0.01209    0.15640
  9 Rh   -0.01941    0.01134   -0.20774
 10 Rh   -0.00275    0.00129   -0.12057
 11 Rh   -0.00307   -0.06388    0.09941
 12 Rh    0.00962    0.00736    0.15649
 13 Rh   -0.02386   -0.00690   -0.27883
 14 Rh    0.07080    0.01803   -0.15223
 15 Rh    0.05497    0.03290    0.09992
 16 Rh   -0.00501   -0.00698    0.17127
 17 Rh    0.06472   -0.03741   -0.22666
 18 Rh    0.00787   -0.00432   -0.64387
 19 Rh    0.02475   -1.62150   -0.35435
 20 Rh   -0.00251    0.00148    0.18325
 21 Rh   -0.00123    0.07683   -0.23407
 22 Rh    0.05900    0.05106   -0.15100
 23 Rh   -1.42079    0.81972   -0.33758
 24 Rh    0.00625   -0.02678    0.19135
 25 Rh    0.04593   -0.02662   -0.27705
 26 Rh    0.00103   -0.00073   -0.12976
 27 Rh    0.00801    0.37333   -0.06177
 28 Rh   -0.02492    0.01448    0.20571
 29 Rh   -0.00604    0.02410   -0.27862
 30 Rh    0.01909   -0.06933   -0.15074
 31 Rh    0.30486   -0.17556   -0.05939
 32 Rh    0.00355    0.00786    0.17126
 33 Rh    0.01563    0.03935   -0.20021
 34 Rh   -0.04880    0.04839   -0.14740
 35 Rh    1.41246    0.78645   -0.35167
 36 O    -0.01077    0.01412    3.16780

BFGS:    1 23:50:38    -5159.472875        3.1678
System changes: positions 

Initializing position-dependent things.

Density initialized from wave functions
                                           
                                           
                                           
                                           
                                           
                   O                       
          Rh    Rh     Rh                  
           RRh   RRh    RRh                
              Rh    Rh     Rh              
             Rh    Rh     Rh               
               Rh    Rh     Rh             
              Rh    Rh     Rh              
                Rh    Rh     Rh            
                 Rh     Rh     Rh          
          Rh    Rh     Rh                  
            Rh    Rh     Rh                
              Rh    Rh     Rh              
                                           
                                           
                                           
                                           

Positions:
   0 Rh     0.000000    0.000000    9.999999    ( 0.0000,  0.0000,  0.0000)
   1 Rh     1.374814    0.793749   12.245061    ( 0.0000,  0.0000,  0.0000)
   2 Rh    -0.002376    1.586857   14.441555    ( 0.0000,  0.0000,  0.0000)
   3 Rh    -0.001705    0.000913   16.666749    ( 0.0000,  0.0000,  0.0000)
   4 Rh    -1.374814    2.381247    9.999999    ( 0.0000,  0.0000,  0.0000)
   5 Rh    -0.000000    3.174997   12.245061    ( 0.0000,  0.0000,  0.0000)
   6 Rh    -1.374978    3.966393   14.442175    ( 0.0000,  0.0000,  0.0000)
   7 Rh    -1.388798    2.370244   16.657283    ( 0.0000,  0.0000,  0.0000)
   8 Rh    -2.749628    4.762495    9.999999    ( 0.0000,  0.0000,  0.0000)
   9 Rh    -1.374814    5.556244   12.245061    ( 0.0000,  0.0000,  0.0000)
  10 Rh    -2.750709    6.350611   14.442831    ( 0.0000,  0.0000,  0.0000)
  11 Rh    -2.750726    4.763135   16.663626    ( 0.0000,  0.0000,  0.0000)
  12 Rh     2.749628    0.000000    9.999999    ( 0.0000,  0.0000,  0.0000)
  13 Rh     4.124441    0.793749   12.245061    ( 0.0000,  0.0000,  0.0000)
  14 Rh     2.752015    1.587912   14.441319    ( 0.0000,  0.0000,  0.0000)
  15 Rh     2.748563    0.000584   16.663642    ( 0.0000,  0.0000,  0.0000)
  16 Rh     1.374814    2.381247    9.999999    ( 0.0000,  0.0000,  0.0000)
  17 Rh     2.749628    3.174997   12.245061    ( 0.0000,  0.0000,  0.0000)
  18 Rh     1.374664    3.968849   14.415950    ( 0.0000,  0.0000,  0.0000)
  19 Rh     1.374304    2.271476   16.628928    ( 0.0000,  0.0000,  0.0000)
  20 Rh    -0.000000    4.762495    9.999999    ( 0.0000,  0.0000,  0.0000)
  21 Rh     1.374814    5.556244   12.245061    ( 0.0000,  0.0000,  0.0000)
  22 Rh     0.001965    6.351297   14.442190    ( 0.0000,  0.0000,  0.0000)
  23 Rh    -0.094116    4.816884   16.631041    ( 0.0000,  0.0000,  0.0000)
  24 Rh     5.499255    0.000000    9.999999    ( 0.0000,  0.0000,  0.0000)
  25 Rh     6.874069    0.793749   12.245061    ( 0.0000,  0.0000,  0.0000)
  26 Rh     5.499360    1.587431   14.442698    ( 0.0000,  0.0000,  0.0000)
  27 Rh     5.501810    0.017582   16.657286    ( 0.0000,  0.0000,  0.0000)
  28 Rh     4.124441    2.381247    9.999999    ( 0.0000,  0.0000,  0.0000)
  29 Rh     5.499255    3.174997   12.245061    ( 0.0000,  0.0000,  0.0000)
  30 Rh     4.125262    3.966498   14.441353    ( 0.0000,  0.0000,  0.0000)
  31 Rh     4.139343    2.372663   16.657876    ( 0.0000,  0.0000,  0.0000)
  32 Rh     2.749628    4.762495    9.999999    ( 0.0000,  0.0000,  0.0000)
  33 Rh     4.124441    5.556244   12.245061    ( 0.0000,  0.0000,  0.0000)
  34 Rh     2.749003    6.352331   14.441606    ( 0.0000,  0.0000,  0.0000)
  35 Rh     2.843602    4.817394   16.629433    ( 0.0000,  0.0000,  0.0000)
  36 O      1.373733    3.968120   17.624646    ( 0.0000,  0.0000,  0.0000)

Unit cell:
           periodic     x           y           z      points  spacing
  1. axis:    yes    8.248883    0.000000    0.000000    40     0.1786
  2. axis:    yes   -4.124441    7.143742    0.000000    40     0.1786
  3. axis:    no     0.000000    0.000000   26.735183   148     0.1806

  Lengths:   8.248883   8.248883  26.735183
  Angles:   90.000000  90.000000 120.000000

Effective grid spacing dv^(1/3) = 0.1881

     iter     time        total  log10-change:
                         energy  eigst   dens
iter:   1 23:52:28 -5162.302966  -1.29
iter:   2 23:53:15 -5191.824641  -1.49  -2.02
iter:   3 23:54:03 -5161.735679  -1.69  -1.37
iter:   4 23:54:51 -5160.934089  -2.55  -1.92
iter:   5 23:55:38 -5159.878661  -2.84  -2.11
iter:   6 23:56:26 -5159.803096  -3.48  -2.61
iter:   7 23:57:13 -5159.788748c -3.83  -2.95
iter:   8 23:58:01 -5159.786254c -3.83  -3.07
iter:   9 23:58:49 -5159.772346c -3.53  -3.00
iter:  10 23:59:36 -5159.772708c -3.97  -3.24
iter:  11 00:00:24 -5159.771237c -4.70  -3.21
iter:  12 00:01:12 -5159.769496c -5.45  -3.45
iter:  13 00:01:59 -5159.771317c -4.82  -3.50
iter:  14 00:02:47 -5159.769330c -4.78  -3.50
iter:  15 00:03:35 -5159.769370c -5.47  -3.69
iter:  16 00:04:22 -5159.768858c -5.62  -3.83
iter:  17 00:05:10 -5159.769312c -6.25  -4.03c
iter:  18 00:05:57 -5159.769177c -6.09  -3.83
iter:  19 00:06:45 -5159.768616c -5.96  -3.96
iter:  20 00:07:33 -5159.769617c -6.07  -4.26c
iter:  21 00:08:20 -5159.769081c -6.58  -4.23c
iter:  22 00:09:08 -5159.769036c -7.24  -4.50c
iter:  23 00:09:56 -5159.769099c -7.11  -4.54c
iter:  24 00:10:43 -5159.769048c -7.20  -4.69c
iter:  25 00:11:31 -5159.769056c -7.52c -4.64c

Converged after 25 iterations.

Dipole moment: (-2.704950, -7.430888, -0.048433) |e|*Ang

Energy contributions relative to reference atoms: (reference = -4686888.144308)

Kinetic:       +767.403162
Potential:     -791.039051
External:        +0.000000
XC:            -5124.970569
Entropy (-ST):   -2.240208
Local:          -10.042493
--------------------------
Free energy:   -5160.889160
Extrapolated:  -5159.769056

Showing only first 2 kpts
 Kpt  Band  Eigenvalues  Occupancy
  0   271     -5.33592    1.05083
  0   272     -5.31677    0.95516
  0   273     -5.27640    0.75817
  0   274     -5.25103    0.64285

  1   271     -5.39253    1.32203
  1   272     -5.37946    1.26231
  1   273     -5.36262    1.18229
  1   274     -5.34153    1.07873


Fermi level: -5.32575

No gap

Forces in eV/Ang:
  0 Rh   -0.01622    0.00936    0.18000
  1 Rh   -0.02682   -0.03603   -0.21492
  2 Rh   -0.04882    0.01695   -0.11896
  3 Rh   -0.07970    0.04355    0.07914
  4 Rh    0.03201    0.01073    0.18115
  5 Rh   -0.09178   -0.05090   -0.27376
  6 Rh   -0.00738   -0.05918   -0.12409
  7 Rh   -0.16261   -0.09574   -0.05176
  8 Rh   -0.00146   -0.01444    0.16067
  9 Rh   -0.02283    0.01331   -0.22158
 10 Rh   -0.00153    0.00069   -0.09398
 11 Rh   -0.00219   -0.08125    0.06203
 12 Rh    0.01171    0.00844    0.16075
 13 Rh   -0.02306   -0.00592   -0.30139
 14 Rh    0.05404    0.01749   -0.12840
 15 Rh    0.07044    0.04065    0.06235
 16 Rh   -0.00469   -0.00900    0.17301
 17 Rh    0.08975   -0.05180   -0.26618
 18 Rh    0.00438   -0.00261   -0.28347
 19 Rh    0.01287   -0.17069    0.22339
 20 Rh   -0.00399    0.00231    0.18616
 21 Rh   -0.00177    0.10523   -0.27379
 22 Rh    0.04770    0.03582   -0.12412
 23 Rh   -0.17553    0.10007    0.23830
 24 Rh    0.00679   -0.03316    0.18106
 25 Rh    0.04606   -0.02679   -0.29893
 26 Rh    0.00194   -0.00120   -0.14812
 27 Rh    0.00173    0.18881   -0.05178
 28 Rh   -0.03184    0.01847    0.19581
 29 Rh   -0.00657    0.02297   -0.30111
 30 Rh    0.01116   -0.05479   -0.12708
 31 Rh    0.14385   -0.08297   -0.05339
 32 Rh    0.00546    0.00858    0.17303
 33 Rh    0.01770    0.04132   -0.21468
 34 Rh   -0.03894    0.03263   -0.11769
 35 Rh    0.15790    0.07488    0.22120
 36 O    -0.02770    0.01175    1.36465

BFGS:    2 00:11:59    -5159.769056        1.3650
System changes: positions 

Initializing position-dependent things.

Density initialized from wave functions
                                           
                                           
                                           
                                           
                                           
                   O                       
          Rh    Rh     Rh                  
           RRh   RRh    RRh                
              Rh    Rh     Rh              
             Rh    Rh     Rh               
               Rh    Rh     Rh             
              Rh    Rh     Rh              
                Rh    Rh     Rh            
                 Rh     Rh     Rh          
          Rh    Rh     Rh                  
            Rh    Rh     Rh                
              Rh    Rh     Rh              
                                           
                                           
                                           
                                           

Positions:
   0 Rh     0.000000    0.000000    9.999999    ( 0.0000,  0.0000,  0.0000)
   1 Rh     1.374814    0.793749   12.245061    ( 0.0000,  0.0000,  0.0000)
   2 Rh    -0.003660    1.587272   14.438499    ( 0.0000,  0.0000,  0.0000)
   3 Rh    -0.003593    0.001943   16.668870    ( 0.0000,  0.0000,  0.0000)
   4 Rh    -1.374814    2.381247    9.999999    ( 0.0000,  0.0000,  0.0000)
   5 Rh    -0.000000    3.174997   12.245061    ( 0.0000,  0.0000,  0.0000)
   6 Rh    -1.375197    3.964864   14.439007    ( 0.0000,  0.0000,  0.0000)
   7 Rh    -1.393596    2.367396   16.655964    ( 0.0000,  0.0000,  0.0000)
   8 Rh    -2.749628    4.762495    9.999999    ( 0.0000,  0.0000,  0.0000)
   9 Rh    -1.374814    5.556244   12.245061    ( 0.0000,  0.0000,  0.0000)
  10 Rh    -2.750753    6.350632   14.440410    ( 0.0000,  0.0000,  0.0000)
  11 Rh    -2.750785    4.761240   16.665330    ( 0.0000,  0.0000,  0.0000)
  12 Rh     2.749628    0.000000    9.999999    ( 0.0000,  0.0000,  0.0000)
  13 Rh     4.124441    0.793749   12.245061    ( 0.0000,  0.0000,  0.0000)
  14 Rh     2.753417    1.588340   14.438061    ( 0.0000,  0.0000,  0.0000)
  15 Rh     2.750203    0.001537   16.665354    ( 0.0000,  0.0000,  0.0000)
  16 Rh     1.374814    2.381247    9.999999    ( 0.0000,  0.0000,  0.0000)
  17 Rh     2.749628    3.174997   12.245061    ( 0.0000,  0.0000,  0.0000)
  18 Rh     1.374789    3.968777   14.407149    ( 0.0000,  0.0000,  0.0000)
  19 Rh     1.374671    2.259504   16.631358    ( 0.0000,  0.0000,  0.0000)
  20 Rh    -0.000000    4.762495    9.999999    ( 0.0000,  0.0000,  0.0000)
  21 Rh     1.374814    5.556244   12.245061    ( 0.0000,  0.0000,  0.0000)
  22 Rh     0.003184    6.352246   14.439022    ( 0.0000,  0.0000,  0.0000)
  23 Rh    -0.105115    4.823208   16.633847    ( 0.0000,  0.0000,  0.0000)
  24 Rh     5.499255    0.000000    9.999999    ( 0.0000,  0.0000,  0.0000)
  25 Rh     6.874069    0.793749   12.245061    ( 0.0000,  0.0000,  0.0000)
  26 Rh     5.499403    1.587404   14.439162    ( 0.0000,  0.0000,  0.0000)
  27 Rh     5.501883    0.023161   16.655967    ( 0.0000,  0.0000,  0.0000)
  28 Rh     4.124441    2.381247    9.999999    ( 0.0000,  0.0000,  0.0000)
  29 Rh     5.499255    3.174997   12.245061    ( 0.0000,  0.0000,  0.0000)
  30 Rh     4.125576    3.965090   14.438128    ( 0.0000,  0.0000,  0.0000)
  31 Rh     4.143702    2.370151   16.656536    ( 0.0000,  0.0000,  0.0000)
  32 Rh     2.749628    4.762495    9.999999    ( 0.0000,  0.0000,  0.0000)
  33 Rh     4.124441    5.556244   12.245061    ( 0.0000,  0.0000,  0.0000)
  34 Rh     2.748006    6.353205   14.438582    ( 0.0000,  0.0000,  0.0000)
  35 Rh     2.854192    4.823055   16.631841    ( 0.0000,  0.0000,  0.0000)
  36 O      1.373144    3.968423   17.667718    ( 0.0000,  0.0000,  0.0000)

Unit cell:
           periodic     x           y           z      points  spacing
  1. axis:    yes    8.248883    0.000000    0.000000    40     0.1786
  2. axis:    yes   -4.124441    7.143742    0.000000    40     0.1786
  3. axis:    no     0.000000    0.000000   26.735183   148     0.1806

  Lengths:   8.248883   8.248883  26.735183
  Angles:   90.000000  90.000000 120.000000

Effective grid spacing dv^(1/3) = 0.1881

     iter     time        total  log10-change:
                         energy  eigst   dens
iter:   1 00:13:50 -5161.784416  -2.00
iter:   2 00:14:39 -5216.332917  -1.23  -1.93
iter:   3 00:15:28 -5160.687909  -1.73  -1.29
iter:   4 00:16:16 -5160.058682  -2.31  -2.18
iter:   5 00:17:05 -5159.852851  -3.38  -2.35
iter:   6 00:17:54 -5159.834282c -4.09  -2.88
iter:   7 00:18:42 -5159.830839c -4.41  -3.17
iter:   8 00:19:31 -5159.828769c -4.35  -3.32
iter:   9 00:20:20 -5159.828593c -4.38  -3.37
iter:  10 00:21:08 -5159.824213c -4.63  -3.53
iter:  11 00:21:57 -5159.827353c -5.23  -3.68
iter:  12 00:22:46 -5159.826062c -5.95  -3.54
iter:  13 00:23:34 -5159.826029c -5.77  -3.77
iter:  14 00:24:23 -5159.825546c -5.57  -3.89
iter:  15 00:25:11 -5159.825649c -5.91  -4.02c
iter:  16 00:26:00 -5159.824788c -6.17  -4.03c
iter:  17 00:26:49 -5159.826070c -6.45  -4.17c
iter:  18 00:27:37 -5159.825257c -6.62  -4.09c
iter:  19 00:28:26 -5159.825313c -6.97  -4.24c
iter:  20 00:29:15 -5159.825276c -7.49c -4.60c

Converged after 20 iterations.

Dipole moment: (-2.211115, -7.701881, -0.067320) |e|*Ang

Energy contributions relative to reference atoms: (reference = -4686888.144308)

Kinetic:       +763.928037
Potential:     -788.137680
External:        +0.000000
XC:            -5124.465762
Entropy (-ST):   -2.235633
Local:          -10.032054
--------------------------
Free energy:   -5160.943092
Extrapolated:  -5159.825276

Showing only first 2 kpts
 Kpt  Band  Eigenvalues  Occupancy
  0   271     -5.35449    1.06196
  0   272     -5.33243    0.95182
  0   273     -5.29210    0.75516
  0   274     -5.26542    0.63446

  1   271     -5.40814    1.31879
  1   272     -5.39515    1.25932
  1   273     -5.38071    1.19077
  1   274     -5.36046    1.09166


Fermi level: -5.34208

No gap

Forces in eV/Ang:
  0 Rh   -0.01609    0.00929    0.18244
  1 Rh   -0.02738   -0.03675   -0.22600
  2 Rh   -0.01875    0.00872   -0.07177
  3 Rh   -0.06583    0.03611    0.03780
  4 Rh    0.03438    0.01164    0.17983
  5 Rh   -0.09926   -0.05518   -0.29846
  6 Rh   -0.00009   -0.02791   -0.07820
  7 Rh   -0.09267   -0.04903   -0.05759
  8 Rh   -0.00158   -0.01428    0.16252
  9 Rh   -0.02377    0.01385   -0.23193
 10 Rh   -0.00131    0.00070   -0.05199
 11 Rh   -0.00354   -0.06887    0.02232
 12 Rh    0.01151    0.00846    0.16258
 13 Rh   -0.02267   -0.00600   -0.32340
 14 Rh    0.02460    0.00972   -0.08336
 15 Rh    0.05874    0.03597    0.02250
 16 Rh   -0.00444   -0.01056    0.17430
 17 Rh    0.09724   -0.05607   -0.29122
 18 Rh    0.00335   -0.00214   -0.11636
 19 Rh    0.00537    0.29419    0.37924
 20 Rh   -0.00529    0.00304    0.18842
 21 Rh   -0.00175    0.11384   -0.29842
 22 Rh    0.02421    0.01384   -0.07823
 23 Rh    0.22869   -0.13325    0.39856
 24 Rh    0.00718   -0.03564    0.17975
 25 Rh    0.04644   -0.02711   -0.32047
 26 Rh    0.00218   -0.00130   -0.13595
 27 Rh   -0.00391    0.10478   -0.05758
 28 Rh   -0.03464    0.02008    0.19451
 29 Rh   -0.00639    0.02271   -0.32302
 30 Rh    0.00338   -0.02579   -0.08264
 31 Rh    0.07607   -0.04401   -0.06161
 32 Rh    0.00695    0.00913    0.17432
 33 Rh    0.01802    0.04215   -0.22575
 34 Rh   -0.01696    0.01105   -0.07108
 35 Rh   -0.24956   -0.15148    0.37738
 36 O    -0.03040    0.02502    0.64363

BFGS:    3 00:29:42    -5159.825276        0.6448
System changes: positions 

Initializing position-dependent things.

Density initialized from wave functions
                                           
                                           
                                           
                                           
                                           
                   O                       
          Rh    Rh     Rh                  
           RRh   RRh    RRh                
              Rh    Rh     Rh              
             Rh    Rh     Rh               
               Rh    Rh     Rh             
              Rh    Rh     Rh              
                Rh    Rh     Rh            
                 Rh     Rh     Rh          
          Rh    Rh     Rh                  
            Rh    Rh     Rh                
              Rh    Rh     Rh              
                                           
                                           
                                           
                                           

Positions:
   0 Rh     0.000000    0.000000    9.999999    ( 0.0000,  0.0000,  0.0000)
   1 Rh     1.374814    0.793749   12.245061    ( 0.0000,  0.0000,  0.0000)
   2 Rh    -0.004587    1.587619   14.435723    ( 0.0000,  0.0000,  0.0000)
   3 Rh    -0.005721    0.003108   16.670566    ( 0.0000,  0.0000,  0.0000)
   4 Rh    -1.374814    2.381247    9.999999    ( 0.0000,  0.0000,  0.0000)
   5 Rh    -0.000000    3.174997   12.245061    ( 0.0000,  0.0000,  0.0000)
   6 Rh    -1.375296    3.963646   14.436053    ( 0.0000,  0.0000,  0.0000)
   7 Rh    -1.397729    2.365066   16.654193    ( 0.0000,  0.0000,  0.0000)
   8 Rh    -2.749628    4.762495    9.999999    ( 0.0000,  0.0000,  0.0000)
   9 Rh    -1.374814    5.556244   12.245061    ( 0.0000,  0.0000,  0.0000)
  10 Rh    -2.750800    6.350656   14.438318    ( 0.0000,  0.0000,  0.0000)
  11 Rh    -2.750886    4.759054   16.666530    ( 0.0000,  0.0000,  0.0000)
  12 Rh     2.749628    0.000000    9.999999    ( 0.0000,  0.0000,  0.0000)
  13 Rh     4.124441    0.793749   12.245061    ( 0.0000,  0.0000,  0.0000)
  14 Rh     2.754513    1.588713   14.434965    ( 0.0000,  0.0000,  0.0000)
  15 Rh     2.752075    0.002668   16.666562    ( 0.0000,  0.0000,  0.0000)
  16 Rh     1.374814    2.381247    9.999999    ( 0.0000,  0.0000,  0.0000)
  17 Rh     2.749628    3.174997   12.245061    ( 0.0000,  0.0000,  0.0000)
  18 Rh     1.374915    3.968700   14.400607    ( 0.0000,  0.0000,  0.0000)
  19 Rh     1.374943    2.258467   16.639442    ( 0.0000,  0.0000,  0.0000)
  20 Rh    -0.000000    4.762495    9.999999    ( 0.0000,  0.0000,  0.0000)
  21 Rh     1.374814    5.556244   12.245061    ( 0.0000,  0.0000,  0.0000)
  22 Rh     0.004192    6.352934   14.436068    ( 0.0000,  0.0000,  0.0000)
  23 Rh    -0.106808    4.824151   16.642497    ( 0.0000,  0.0000,  0.0000)
  24 Rh     5.499255    0.000000    9.999999    ( 0.0000,  0.0000,  0.0000)
  25 Rh     6.874069    0.793749   12.245061    ( 0.0000,  0.0000,  0.0000)
  26 Rh     5.499466    1.587367   14.434885    ( 0.0000,  0.0000,  0.0000)
  27 Rh     5.501835    0.027905   16.654196    ( 0.0000,  0.0000,  0.0000)
  28 Rh     4.124441    2.381247    9.999999    ( 0.0000,  0.0000,  0.0000)
  29 Rh     5.499255    3.174997   12.245061    ( 0.0000,  0.0000,  0.0000)
  30 Rh     4.125783    3.963970   14.435060    ( 0.0000,  0.0000,  0.0000)
  31 Rh     4.147313    2.368066   16.654676    ( 0.0000,  0.0000,  0.0000)
  32 Rh     2.749628    4.762495    9.999999    ( 0.0000,  0.0000,  0.0000)
  33 Rh     4.124441    5.556244   12.245061    ( 0.0000,  0.0000,  0.0000)
  34 Rh     2.747243    6.353805   14.435834    ( 0.0000,  0.0000,  0.0000)
  35 Rh     2.855272    4.823330   16.639890    ( 0.0000,  0.0000,  0.0000)
  36 O      1.372291    3.969086   17.701685    ( 0.0000,  0.0000,  0.0000)

Unit cell:
           periodic     x           y           z      points  spacing
  1. axis:    yes    8.248883    0.000000    0.000000    40     0.1786
  2. axis:    yes   -4.124441    7.143742    0.000000    40     0.1786
  3. axis:    no     0.000000    0.000000   26.735183   148     0.1806

  Lengths:   8.248883   8.248883  26.735183
  Angles:   90.000000  90.000000 120.000000

Effective grid spacing dv^(1/3) = 0.1881

     iter     time        total  log10-change:
                         energy  eigst   dens
iter:   1 00:31:33 -5161.398755  -2.27
iter:   2 00:32:22 -5209.815366  -1.30  -1.96
iter:   3 00:33:10 -5160.738604  -1.82  -1.30
iter:   4 00:33:59 -5159.871474  -2.46  -2.17
iter:   5 00:34:48 -5159.867990  -3.36  -2.92
iter:   6 00:35:37 -5159.862696c -4.10  -3.02
iter:   7 00:36:25 -5159.860801c -4.60  -3.21
iter:   8 00:37:14 -5159.858799c -4.60  -3.45
iter:   9 00:38:03 -5159.859066c -4.67  -3.61
iter:  10 00:38:51 -5159.859207c -5.35  -3.49
iter:  11 00:39:40 -5159.857840c -5.73  -3.75
iter:  12 00:40:29 -5159.858237c -6.26  -3.93
iter:  13 00:41:17 -5159.858008c -5.98  -3.90
iter:  14 00:42:06 -5159.857616c -5.84  -4.05c
iter:  15 00:42:55 -5159.857858c -6.65  -4.11c
iter:  16 00:43:44 -5159.857770c -6.97  -4.14c
iter:  17 00:44:32 -5159.857227c -6.66  -4.22c
iter:  18 00:45:21 -5159.857621c -6.84  -4.42c
iter:  19 00:46:10 -5159.857536c -7.62c -4.52c

Converged after 19 iterations.

Dipole moment: (-1.740622, -7.961380, -0.079393) |e|*Ang

Energy contributions relative to reference atoms: (reference = -4686888.144308)

Kinetic:       +761.586554
Potential:     -786.199234
External:        +0.000000
XC:            -5124.105476
Entropy (-ST):   -2.231483
Local:          -10.023638
--------------------------
Free energy:   -5160.973277
Extrapolated:  -5159.857536

Showing only first 2 kpts
 Kpt  Band  Eigenvalues  Occupancy
  0   271     -5.36755    1.07230
  0   272     -5.34264    0.94791
  0   273     -5.30319    0.75566
  0   274     -5.27445    0.62600

  1   271     -5.41811    1.31423
  1   272     -5.40625    1.25986
  1   273     -5.39257    1.19500
  1   274     -5.37346    1.10162


Fermi level: -5.35306

No gap

Forces in eV/Ang:
  0 Rh   -0.01689    0.00975    0.18094
  1 Rh   -0.02792   -0.03736   -0.23685
  2 Rh    0.01373    0.01005   -0.01237
  3 Rh   -0.04778    0.02651    0.00369
  4 Rh    0.03473    0.01145    0.17708
  5 Rh   -0.10412   -0.05804   -0.31817
  6 Rh    0.01795    0.00120   -0.01859
  7 Rh   -0.03666   -0.01188   -0.05874
  8 Rh   -0.00180   -0.01494    0.16090
  9 Rh   -0.02448    0.01424   -0.24200
 10 Rh   -0.00143    0.00089   -0.01057
 11 Rh   -0.00599   -0.05076   -0.00896
 12 Rh    0.01198    0.00898    0.16094
 13 Rh   -0.02249   -0.00643   -0.34621
 14 Rh   -0.00888    0.01149   -0.02357
 15 Rh    0.04137    0.02954   -0.00895
 16 Rh   -0.00419   -0.01099    0.17131
 17 Rh    0.10189   -0.05871   -0.31177
 18 Rh    0.00122   -0.00104    0.00916
 19 Rh   -0.00099    0.44588    0.38230
 20 Rh   -0.00565    0.00324    0.18632
 21 Rh   -0.00166    0.11945   -0.31809
 22 Rh    0.00791   -0.01634   -0.01867
 23 Rh    0.35884   -0.20820    0.39346
 24 Rh    0.00750   -0.03584    0.17698
 25 Rh    0.04694   -0.02747   -0.34253
 26 Rh    0.00245   -0.00144   -0.11185
 27 Rh   -0.00828    0.03762   -0.05865
 28 Rh   -0.03522    0.02040    0.19178
 29 Rh   -0.00600    0.02281   -0.34580
 30 Rh   -0.01465    0.00189   -0.02346
 31 Rh    0.02538   -0.01496   -0.06434
 32 Rh    0.00745    0.00912    0.17133
 33 Rh    0.01826    0.04290   -0.23662
 34 Rh   -0.00205   -0.01735   -0.01231
 35 Rh   -0.38395   -0.22171    0.38038
 36 O    -0.01720    0.00288    0.40417

BFGS:    4 00:46:37    -5159.857536        0.5873
System changes: positions 

Initializing position-dependent things.

Density initialized from wave functions
                                           
                                           
                                           
                                           
                                           
                   O                       
          Rh    Rh     Rh                  
            Rh    Rh     Rh                
           Rh    Rh     Rh                 
             RRh   RRh    RRh              
               Rh    Rh     Rh             
              Rh    Rh     Rh              
                Rh    Rh     Rh            
                 Rh     Rh     Rh          
          Rh    Rh     Rh                  
            Rh    Rh     Rh                
              Rh    Rh     Rh              
                                           
                                           
                                           
                                           

Positions:
   0 Rh     0.000000    0.000000    9.999999    ( 0.0000,  0.0000,  0.0000)
   1 Rh     1.374814    0.793749   12.245061    ( 0.0000,  0.0000,  0.0000)
   2 Rh    -0.005832    1.588680   14.430180    ( 0.0000,  0.0000,  0.0000)
   3 Rh    -0.011298    0.006173   16.673946    ( 0.0000,  0.0000,  0.0000)
   4 Rh    -1.374814    2.381247    9.999999    ( 0.0000,  0.0000,  0.0000)
   5 Rh    -0.000000    3.174997   12.245061    ( 0.0000,  0.0000,  0.0000)
   6 Rh    -1.374788    3.961393   14.429973    ( 0.0000,  0.0000,  0.0000)
   7 Rh    -1.407032    2.360108   16.648865    ( 0.0000,  0.0000,  0.0000)
   8 Rh    -2.749628    4.762495    9.999999    ( 0.0000,  0.0000,  0.0000)
   9 Rh    -1.374814    5.556244   12.245061    ( 0.0000,  0.0000,  0.0000)
  10 Rh    -2.750943    6.350734   14.434033    ( 0.0000,  0.0000,  0.0000)
  11 Rh    -2.751293    4.753285   16.668553    ( 0.0000,  0.0000,  0.0000)
  12 Rh     2.749628    0.000000    9.999999    ( 0.0000,  0.0000,  0.0000)
  13 Rh     4.124441    0.793749   12.245061    ( 0.0000,  0.0000,  0.0000)
  14 Rh     2.756231    1.589872   14.428460    ( 0.0000,  0.0000,  0.0000)
  15 Rh     2.756936    0.005778   16.668599    ( 0.0000,  0.0000,  0.0000)
  16 Rh     1.374814    2.381247    9.999999    ( 0.0000,  0.0000,  0.0000)
  17 Rh     2.749628    3.174997   12.245061    ( 0.0000,  0.0000,  0.0000)
  18 Rh     1.375189    3.968523   14.387940    ( 0.0000,  0.0000,  0.0000)
  19 Rh     1.375428    2.267464   16.665861    ( 0.0000,  0.0000,  0.0000)
  20 Rh    -0.000000    4.762495    9.999999    ( 0.0000,  0.0000,  0.0000)
  21 Rh     1.374814    5.556244   12.245061    ( 0.0000,  0.0000,  0.0000)
  22 Rh     0.006403    6.353603   14.429985    ( 0.0000,  0.0000,  0.0000)
  23 Rh    -0.101466    4.820970   16.670275    ( 0.0000,  0.0000,  0.0000)
  24 Rh     5.499255    0.000000    9.999999    ( 0.0000,  0.0000,  0.0000)
  25 Rh     6.874069    0.793749   12.245061    ( 0.0000,  0.0000,  0.0000)
  26 Rh     5.499667    1.587246   14.423128    ( 0.0000,  0.0000,  0.0000)
  27 Rh     5.501471    0.038437   16.648872    ( 0.0000,  0.0000,  0.0000)
  28 Rh     4.124441    2.381247    9.999999    ( 0.0000,  0.0000,  0.0000)
  29 Rh     5.499255    3.174997   12.245061    ( 0.0000,  0.0000,  0.0000)
  30 Rh     4.125598    3.961930   14.428611    ( 0.0000,  0.0000,  0.0000)
  31 Rh     4.155279    2.363456   16.648995    ( 0.0000,  0.0000,  0.0000)
  32 Rh     2.749628    4.762495    9.999999    ( 0.0000,  0.0000,  0.0000)
  33 Rh     4.124441    5.556244   12.245061    ( 0.0000,  0.0000,  0.0000)
  34 Rh     2.745697    6.354284   14.430345    ( 0.0000,  0.0000,  0.0000)
  35 Rh     2.847888    4.818402   16.666189    ( 0.0000,  0.0000,  0.0000)
  36 O      1.370240    3.970184   17.785367    ( 0.0000,  0.0000,  0.0000)

Unit cell:
           periodic     x           y           z      points  spacing
  1. axis:    yes    8.248883    0.000000    0.000000    40     0.1786
  2. axis:    yes   -4.124441    7.143742    0.000000    40     0.1786
  3. axis:    no     0.000000    0.000000   26.735183   148     0.1806

  Lengths:   8.248883   8.248883  26.735183
  Angles:   90.000000  90.000000 120.000000

Effective grid spacing dv^(1/3) = 0.1881

     iter     time        total  log10-change:
                         energy  eigst   dens
iter:   1 00:48:28 -5165.179459  -1.52
iter:   2 00:49:16 -5290.173231  -0.69  -1.70
iter:   3 00:50:05 -5167.227307  -1.40  -1.13
iter:   4 00:50:53 -5159.959236  -1.83  -1.71
iter:   5 00:51:41 -5159.939070  -2.61  -2.74
iter:   6 00:52:30 -5159.939291c -3.39  -2.78
iter:   7 00:53:18 -5159.937353c -3.78  -2.83
iter:   8 00:54:06 -5159.916490c -3.94  -2.95
iter:   9 00:54:55 -5159.915845c -4.18  -3.22
iter:  10 00:55:43 -5159.916264c -4.57  -3.42
iter:  11 00:56:31 -5159.915146c -5.10  -3.35
iter:  12 00:57:20 -5159.914784c -5.37  -3.57
iter:  13 00:58:08 -5159.914030c -5.10  -3.64
iter:  14 00:58:56 -5159.915396c -5.81  -3.71
iter:  15 00:59:45 -5159.913967c -5.91  -3.60
iter:  16 01:00:33 -5159.914390c -6.37  -3.98
iter:  17 01:01:21 -5159.913800c -6.13  -4.09c
iter:  18 01:02:10 -5159.914037c -6.39  -4.28c
iter:  19 01:02:58 -5159.914040c -6.86  -4.25c
iter:  20 01:03:47 -5159.914053c -6.52  -4.27c
iter:  21 01:04:36 -5159.914123c -6.90  -4.59c
iter:  22 01:05:24 -5159.913879c -7.50c -4.51c

Converged after 22 iterations.

Dipole moment: (-0.577686, -8.603937, -0.106089) |e|*Ang

Energy contributions relative to reference atoms: (reference = -4686888.144308)

Kinetic:       +755.955083
Potential:     -781.497887
External:        +0.000000
XC:            -5123.246971
Entropy (-ST):   -2.223016
Local:          -10.012597
--------------------------
Free energy:   -5161.025387
Extrapolated:  -5159.913879

Showing only first 2 kpts
 Kpt  Band  Eigenvalues  Occupancy
  0   271     -5.39775    1.09989
  0   272     -5.36554    0.93925
  0   273     -5.32878    0.76014
  0   274     -5.29433    0.60569

  1   271     -5.43792    1.29227
  1   272     -5.43094    1.26004
  1   273     -5.41829    1.20015
  1   274     -5.40207    1.12119


Fermi level: -5.37771

No gap

Forces in eV/Ang:
  0 Rh   -0.01750    0.01009    0.17026
  1 Rh   -0.02902   -0.03828   -0.25852
  2 Rh    0.09229    0.00698    0.13209
  3 Rh    0.01141   -0.00567   -0.07116
  4 Rh    0.03598    0.01162    0.17050
  5 Rh   -0.10781   -0.06044   -0.35604
  6 Rh    0.05577    0.07649    0.12827
  7 Rh    0.08268    0.06664   -0.05922
  8 Rh   -0.00249   -0.01493    0.15015
  9 Rh   -0.02511    0.01457   -0.26163
 10 Rh   -0.00177    0.00134    0.09201
 11 Rh   -0.01245    0.01142   -0.07457
 12 Rh    0.01164    0.00957    0.15015
 13 Rh   -0.02602   -0.01049   -0.40148
 14 Rh   -0.09088    0.00954    0.12714
 15 Rh   -0.01679    0.00537   -0.07484
 16 Rh   -0.00347   -0.01178    0.15905
 17 Rh    0.10503   -0.06044   -0.35198
 18 Rh   -0.00366    0.00164    0.25631
 19 Rh   -0.00647    0.58843    0.30505
 20 Rh   -0.00663    0.00378    0.17619
 21 Rh   -0.00137    0.12376   -0.35582
 22 Rh   -0.03857   -0.08677    0.12824
 23 Rh    0.48480   -0.28043    0.32279
 24 Rh    0.00796   -0.03696    0.17044
 25 Rh    0.05232   -0.03080   -0.39565
 26 Rh    0.00250   -0.00149   -0.02857
 27 Rh   -0.01695   -0.10534   -0.05907
 28 Rh   -0.03698    0.02139    0.18489
 29 Rh   -0.00444    0.02798   -0.40092
 30 Rh   -0.05343    0.07302    0.12585
 31 Rh   -0.07937    0.04516   -0.06584
 32 Rh    0.00851    0.00886    0.15908
 33 Rh    0.01848    0.04426   -0.25832
 34 Rh    0.03960   -0.08305    0.13095
 35 Rh   -0.51285   -0.28958    0.30478
 36 O    -0.00977    0.00299   -0.08173

BFGS:    5 01:05:51    -5159.913879        0.6631
System changes: positions 

Initializing position-dependent things.

Density initialized from wave functions
                                           
                                           
                                           
                                           
                                           
                   O                       
          Rh    Rh     Rh                  
                                           
           RRh   RRh    RRh                
             RRh   RRh    RRh              
                                           
              RRh   RRh    RRh             
                                           
                Rh    Rh     Rh            
                 Rh     Rh     Rh          
          Rh    Rh     Rh                  
            Rh    Rh     Rh                
              Rh    Rh     Rh              
                                           
                                           
                                           
                                           

Positions:
   0 Rh     0.000000    0.000000    9.999999    ( 0.0000,  0.0000,  0.0000)
   1 Rh     1.374814    0.793749   12.245061    ( 0.0000,  0.0000,  0.0000)
   2 Rh    -0.004945    1.589307   14.429562    ( 0.0000,  0.0000,  0.0000)
   3 Rh    -0.013885    0.007603   16.674483    ( 0.0000,  0.0000,  0.0000)
   4 Rh    -1.374814    2.381247    9.999999    ( 0.0000,  0.0000,  0.0000)
   5 Rh    -0.000000    3.174997   12.245061    ( 0.0000,  0.0000,  0.0000)
   6 Rh    -1.373639    3.961529   14.429025    ( 0.0000,  0.0000,  0.0000)
   7 Rh    -1.410270    2.358754   16.645241    ( 0.0000,  0.0000,  0.0000)
   8 Rh    -2.749628    4.762495    9.999999    ( 0.0000,  0.0000,  0.0000)
   9 Rh    -1.374814    5.556244   12.245061    ( 0.0000,  0.0000,  0.0000)
  10 Rh    -2.751042    6.350795   14.433402    ( 0.0000,  0.0000,  0.0000)
  11 Rh    -2.751701    4.750603   16.668358    ( 0.0000,  0.0000,  0.0000)
  12 Rh     2.749628    0.000000    9.999999    ( 0.0000,  0.0000,  0.0000)
  13 Rh     4.124441    0.793749   12.245061    ( 0.0000,  0.0000,  0.0000)
  14 Rh     2.755604    1.590591   14.427286    ( 0.0000,  0.0000,  0.0000)
  15 Rh     2.759079    0.007412   16.668407    ( 0.0000,  0.0000,  0.0000)
  16 Rh     1.374814    2.381247    9.999999    ( 0.0000,  0.0000,  0.0000)
  17 Rh     2.749628    3.174997   12.245061    ( 0.0000,  0.0000,  0.0000)
  18 Rh     1.375265    3.968462   14.385900    ( 0.0000,  0.0000,  0.0000)
  19 Rh     1.375585    2.282228   16.684414    ( 0.0000,  0.0000,  0.0000)
  20 Rh    -0.000000    4.762495    9.999999    ( 0.0000,  0.0000,  0.0000)
  21 Rh     1.374814    5.556244   12.245061    ( 0.0000,  0.0000,  0.0000)
  22 Rh     0.006859    6.352527   14.429035    ( 0.0000,  0.0000,  0.0000)
  23 Rh    -0.090312    4.814473   16.689877    ( 0.0000,  0.0000,  0.0000)
  24 Rh     5.499255    0.000000    9.999999    ( 0.0000,  0.0000,  0.0000)
  25 Rh     6.874069    0.793749   12.245061    ( 0.0000,  0.0000,  0.0000)
  26 Rh     5.499808    1.587162   14.416801    ( 0.0000,  0.0000,  0.0000)
  27 Rh     5.501013    0.041909   16.645253    ( 0.0000,  0.0000,  0.0000)
  28 Rh     4.124441    2.381247    9.999999    ( 0.0000,  0.0000,  0.0000)
  29 Rh     5.499255    3.174997   12.245061    ( 0.0000,  0.0000,  0.0000)
  30 Rh     4.124645    3.962113   14.427444    ( 0.0000,  0.0000,  0.0000)
  31 Rh     4.157899    2.361927   16.645091    ( 0.0000,  0.0000,  0.0000)
  32 Rh     2.749628    4.762495    9.999999    ( 0.0000,  0.0000,  0.0000)
  33 Rh     4.124441    5.556244   12.245061    ( 0.0000,  0.0000,  0.0000)
  34 Rh     2.745586    6.353173   14.429736    ( 0.0000,  0.0000,  0.0000)
  35 Rh     2.835259    4.810862   16.684678    ( 0.0000,  0.0000,  0.0000)
  36 O      1.368958    3.970943   17.824749    ( 0.0000,  0.0000,  0.0000)

Unit cell:
           periodic     x           y           z      points  spacing
  1. axis:    yes    8.248883    0.000000    0.000000    40     0.1786
  2. axis:    yes   -4.124441    7.143742    0.000000    40     0.1786
  3. axis:    no     0.000000    0.000000   26.735183   148     0.1806

  Lengths:   8.248883   8.248883  26.735183
  Angles:   90.000000  90.000000 120.000000

Effective grid spacing dv^(1/3) = 0.1881

     iter     time        total  log10-change:
                         energy  eigst   dens
iter:   1 01:07:42 -5160.187644  -2.07
iter:   2 01:08:31 -5168.020078  -2.16  -2.37
iter:   3 01:09:19 -5159.958330  -2.55  -1.62
iter:   4 01:10:08 -5159.949808  -3.53  -3.05
iter:   5 01:10:56 -5159.950747c -4.37  -3.08
iter:   6 01:11:45 -5159.946310c -4.85  -3.28
iter:   7 01:12:33 -5159.945848c -4.51  -3.34
iter:   8 01:13:22 -5159.946493c -4.88  -3.72
iter:   9 01:14:10 -5159.946200c -5.41  -3.66
iter:  10 01:14:59 -5159.945794c -5.55  -3.73
iter:  11 01:15:47 -5159.946551c -5.47  -3.96
iter:  12 01:16:36 -5159.945632c -6.12  -3.95
iter:  13 01:17:24 -5159.946104c -6.46  -4.10c
iter:  14 01:18:13 -5159.945897c -6.70  -4.20c
iter:  15 01:19:01 -5159.945987c -6.79  -4.34c
iter:  16 01:19:50 -5159.946055c -6.95  -4.23c
iter:  17 01:20:38 -5159.946089c -7.01  -4.36c
iter:  18 01:21:27 -5159.945654c -7.10  -4.43c
iter:  19 01:22:15 -5159.945967c -7.29  -4.55c
iter:  20 01:23:04 -5159.945909c -7.81c -4.76c

Converged after 20 iterations.

Dipole moment: (-0.060028, -8.895348, -0.116143) |e|*Ang

Energy contributions relative to reference atoms: (reference = -4686888.144308)

Kinetic:       +753.483044
Potential:     -779.435117
External:        +0.000000
XC:            -5122.869879
Entropy (-ST):   -2.220279
Local:          -10.013817
--------------------------
Free energy:   -5161.056048
Extrapolated:  -5159.945909

Showing only first 2 kpts
 Kpt  Band  Eigenvalues  Occupancy
  0   271     -5.40876    1.11364
  0   272     -5.37314    0.93612
  0   273     -5.33780    0.76388
  0   274     -5.30067    0.59777

  1   271     -5.44305    1.27808
  1   272     -5.43952    1.26168
  1   273     -5.42612    1.19825
  1   274     -5.40985    1.11903


Fermi level: -5.38593

No gap

Forces in eV/Ang:
  0 Rh   -0.01770    0.01020    0.17184
  1 Rh   -0.02942   -0.03788   -0.26044
  2 Rh    0.11115    0.00196    0.18100
  3 Rh    0.04052   -0.02184   -0.08722
  4 Rh    0.03624    0.01130    0.17833
  5 Rh   -0.10311   -0.05840   -0.35411
  6 Rh    0.05923    0.09869    0.17780
  7 Rh    0.10316    0.07913   -0.04637
  8 Rh   -0.00284   -0.01485    0.15200
  9 Rh   -0.02461    0.01426   -0.26238
 10 Rh   -0.00097    0.00085    0.12339
 11 Rh   -0.01529    0.04352   -0.08465
 12 Rh    0.01140    0.00984    0.15198
 13 Rh   -0.03103   -0.01467   -0.41336
 14 Rh   -0.11082    0.00378    0.17897
 15 Rh   -0.04644   -0.00783   -0.08500
 16 Rh   -0.00310   -0.01160    0.16052
 17 Rh    0.09997   -0.05751   -0.35109
 18 Rh   -0.00432    0.00204    0.30047
 19 Rh   -0.00696    0.47361    0.20153
 20 Rh   -0.00656    0.00373    0.17857
 21 Rh   -0.00078    0.11859   -0.35385
 22 Rh   -0.05612   -0.10091    0.17776
 23 Rh    0.38795   -0.22411    0.22288
 24 Rh    0.00835   -0.03700    0.17828
 25 Rh    0.05840   -0.03437   -0.40644
 26 Rh    0.00120   -0.00076    0.02193
 27 Rh   -0.01759   -0.12957   -0.04619
 28 Rh   -0.03714    0.02147    0.19262
 29 Rh   -0.00337    0.03442   -0.41279
 30 Rh   -0.05825    0.09293    0.17735
 31 Rh   -0.09453    0.05386   -0.05294
 32 Rh    0.00854    0.00845    0.16055
 33 Rh    0.01794    0.04439   -0.26023
 34 Rh    0.05332   -0.09665    0.17954
 35 Rh   -0.41494   -0.23139    0.20209
 36 O    -0.01224    0.01000   -0.07669

BFGS:    6 01:23:31    -5159.945909        0.5163
System changes: positions 

Initializing position-dependent things.

Density initialized from wave functions
                                           
                                           
                                           
                                           
                                           
                   O                       
          Rh    Rh     Rh                  
                  Rh                       
           RRh   Rh     RRh                
             RRh   RRh    RRh              
                                           
              RRh   RRh    RRh             
                                           
                Rh    Rh     Rh            
                 Rh     Rh     Rh          
          Rh    Rh     Rh                  
            Rh    Rh     Rh                
              Rh    Rh     Rh              
                                           
                                           
                                           
                                           

Positions:
   0 Rh     0.000000    0.000000    9.999999    ( 0.0000,  0.0000,  0.0000)
   1 Rh     1.374814    0.793749   12.245061    ( 0.0000,  0.0000,  0.0000)
   2 Rh    -0.000332    1.590557   14.433050    ( 0.0000,  0.0000,  0.0000)
   3 Rh    -0.017973    0.009872   16.673484    ( 0.0000,  0.0000,  0.0000)
   4 Rh    -1.374814    2.381247    9.999999    ( 0.0000,  0.0000,  0.0000)
   5 Rh    -0.000000    3.174997   12.245061    ( 0.0000,  0.0000,  0.0000)
   6 Rh    -1.369905    3.964364   14.431743    ( 0.0000,  0.0000,  0.0000)
   7 Rh    -1.414571    2.357801   16.636791    ( 0.0000,  0.0000,  0.0000)
   8 Rh    -2.749628    4.762495    9.999999    ( 0.0000,  0.0000,  0.0000)
   9 Rh    -1.374814    5.556244   12.245061    ( 0.0000,  0.0000,  0.0000)
  10 Rh    -2.751254    6.350929   14.435290    ( 0.0000,  0.0000,  0.0000)
  11 Rh    -2.752960    4.746441   16.665972    ( 0.0000,  0.0000,  0.0000)
  12 Rh     2.749628    0.000000    9.999999    ( 0.0000,  0.0000,  0.0000)
  13 Rh     4.124441    0.793749   12.245061    ( 0.0000,  0.0000,  0.0000)
  14 Rh     2.751539    1.592055   14.429594    ( 0.0000,  0.0000,  0.0000)
  15 Rh     2.762072    0.010479   16.666019    ( 0.0000,  0.0000,  0.0000)
  16 Rh     1.374814    2.381247    9.999999    ( 0.0000,  0.0000,  0.0000)
  17 Rh     2.749628    3.174997   12.245061    ( 0.0000,  0.0000,  0.0000)
  18 Rh     1.375327    3.968381   14.388952    ( 0.0000,  0.0000,  0.0000)
  19 Rh     1.375771    2.322841   16.726991    ( 0.0000,  0.0000,  0.0000)
  20 Rh    -0.000000    4.762495    9.999999    ( 0.0000,  0.0000,  0.0000)
  21 Rh     1.374814    5.556244   12.245061    ( 0.0000,  0.0000,  0.0000)
  22 Rh     0.006263    6.347841   14.431749    ( 0.0000,  0.0000,  0.0000)
  23 Rh    -0.059069    4.796317   16.735302    ( 0.0000,  0.0000,  0.0000)
  24 Rh     5.499255    0.000000    9.999999    ( 0.0000,  0.0000,  0.0000)
  25 Rh     6.874069    0.793749   12.245061    ( 0.0000,  0.0000,  0.0000)
  26 Rh     5.500104    1.586982   14.404756    ( 0.0000,  0.0000,  0.0000)
  27 Rh     5.499647    0.046071   16.636815    ( 0.0000,  0.0000,  0.0000)
  28 Rh     4.124441    2.381247    9.999999    ( 0.0000,  0.0000,  0.0000)
  29 Rh     5.499255    3.174997   12.245061    ( 0.0000,  0.0000,  0.0000)
  30 Rh     4.121321    3.964870   14.429728    ( 0.0000,  0.0000,  0.0000)
  31 Rh     4.161151    2.359999   16.635899    ( 0.0000,  0.0000,  0.0000)
  32 Rh     2.749628    4.762495    9.999999    ( 0.0000,  0.0000,  0.0000)
  33 Rh     4.124441    5.556244   12.245061    ( 0.0000,  0.0000,  0.0000)
  34 Rh     2.746775    6.348506   14.433207    ( 0.0000,  0.0000,  0.0000)
  35 Rh     2.800302    4.790346   16.727147    ( 0.0000,  0.0000,  0.0000)
  36 O      1.365779    3.973094   17.906177    ( 0.0000,  0.0000,  0.0000)

Unit cell:
           periodic     x           y           z      points  spacing
  1. axis:    yes    8.248883    0.000000    0.000000    40     0.1786
  2. axis:    yes   -4.124441    7.143742    0.000000    40     0.1786
  3. axis:    no     0.000000    0.000000   26.735183   148     0.1806

  Lengths:   8.248883   8.248883  26.735183
  Angles:   90.000000  90.000000 120.000000

Effective grid spacing dv^(1/3) = 0.1881

     iter     time        total  log10-change:
                         energy  eigst   dens
iter:   1 01:25:21 -5161.219327  -1.37
iter:   2 01:26:09 -5201.334972  -1.33  -2.01
iter:   3 01:26:58 -5161.228676  -1.90  -1.33
iter:   4 01:27:46 -5160.010872  -2.50  -2.11
iter:   5 01:28:34 -5159.992585  -3.23  -2.88
iter:   6 01:29:22 -5159.992459c -3.92  -3.00
iter:   7 01:30:10 -5159.993073c -4.26  -3.04
iter:   8 01:30:58 -5159.988205c -4.19  -3.20
iter:   9 01:31:46 -5159.989712c -4.61  -3.39
iter:  10 01:32:34 -5159.994197c -4.82  -3.46
iter:  11 01:33:23 -5159.988922c -5.42  -3.10
iter:  12 01:34:11 -5159.988815c -5.49  -3.59
iter:  13 01:34:59 -5159.987719c -5.09  -3.62
iter:  14 01:35:47 -5159.989084c -5.50  -3.87
iter:  15 01:36:35 -5159.987985c -5.95  -3.81
iter:  16 01:37:23 -5159.988394c -6.55  -3.97
iter:  17 01:38:11 -5159.989021c -6.13  -3.96
iter:  18 01:38:59 -5159.988324c -6.55  -3.76
iter:  19 01:39:47 -5159.988315c -6.45  -4.18c
iter:  20 01:40:35 -5159.988587c -6.50  -4.30c
iter:  21 01:41:23 -5159.987912c -6.73  -4.28c
iter:  22 01:42:11 -5159.988340c -7.11  -4.27c
iter:  23 01:43:00 -5159.988385c -7.49c -4.38c

Converged after 23 iterations.

Dipole moment: (0.842737, -9.415430, -0.130004) |e|*Ang

Energy contributions relative to reference atoms: (reference = -4686888.144308)

Kinetic:       +749.356749
Potential:     -776.032204
External:        +0.000000
XC:            -5122.190163
Entropy (-ST):   -2.218319
Local:          -10.013608
--------------------------
Free energy:   -5161.097544
Extrapolated:  -5159.988385

Showing only first 2 kpts
 Kpt  Band  Eigenvalues  Occupancy
  0   271     -5.42700    1.13726
  0   272     -5.38464    0.92647
  0   273     -5.35304    0.77238
  0   274     -5.31182    0.58822

  1   271     -5.45399    1.26650
  1   272     -5.44978    1.24686
  1   273     -5.43803    1.19092
  1   274     -5.41687    1.08727


Fermi level: -5.39937

No gap

Forces in eV/Ang:
  0 Rh   -0.02005    0.01156    0.16792
  1 Rh   -0.02986   -0.03275   -0.25504
  2 Rh    0.11614   -0.01195    0.22897
  3 Rh    0.11304   -0.06284   -0.11269
  4 Rh    0.03796    0.01145    0.19009
  5 Rh   -0.08421   -0.04876   -0.32810
  6 Rh    0.04517    0.11676    0.22646
  7 Rh    0.13147    0.08875   -0.03036
  8 Rh   -0.00395   -0.01632    0.14904
  9 Rh   -0.01913    0.01102   -0.25542
 10 Rh    0.00203   -0.00107    0.15558
 11 Rh   -0.01699    0.12897   -0.09960
 12 Rh    0.01213    0.01156    0.14899
 13 Rh   -0.04506   -0.02569   -0.42427
 14 Rh   -0.11872   -0.01491    0.23169
 15 Rh   -0.12192   -0.04852   -0.10005
 16 Rh   -0.00271   -0.00947    0.15841
 17 Rh    0.08027   -0.04621   -0.32722
 18 Rh   -0.00320    0.00159    0.32019
 19 Rh   -0.02996    0.07146   -0.06646
 20 Rh   -0.00506    0.00284    0.17814
 21 Rh    0.00026    0.09719   -0.32784
 22 Rh   -0.07888   -0.09766    0.22631
 23 Rh    0.05275   -0.02973   -0.07556
 24 Rh    0.00906   -0.03856    0.19006
 25 Rh    0.07465   -0.04377   -0.41458
 26 Rh   -0.00294    0.00155    0.13995
 27 Rh   -0.01184   -0.15902   -0.03022
 28 Rh   -0.03815    0.02202    0.20398
 29 Rh   -0.00083    0.05202   -0.42389
 30 Rh   -0.04588    0.10891    0.23005
 31 Rh   -0.11665    0.06659   -0.03541
 32 Rh    0.00688    0.00702    0.15845
 33 Rh    0.01332    0.04218   -0.25487
 34 Rh    0.06789   -0.09361    0.22722
 35 Rh   -0.07847   -0.00995   -0.06548
 36 O     0.00248   -0.00118    0.04593

BFGS:    7 01:43:27    -5159.988385        0.3202
System changes: positions 

Initializing position-dependent things.

Density initialized from wave functions
                                           
                                           
                                           
                                           
                                           
                   O                       
          Rh    Rh     Rh                  
                  Rh                       
           RRh   Rh     RRh                
             RRh   RRh    RRh              
                                           
              RRh   RRh    RRh             
                                           
                Rh    Rh     Rh            
                 Rh     Rh     Rh          
          Rh    Rh     Rh                  
            Rh    Rh     Rh                
              Rh    Rh     Rh              
                                           
                                           
                                           
                                           

Positions:
   0 Rh     0.000000    0.000000    9.999999    ( 0.0000,  0.0000,  0.0000)
   1 Rh     1.374814    0.793749   12.245061    ( 0.0000,  0.0000,  0.0000)
   2 Rh     0.002173    1.590405   14.437603    ( 0.0000,  0.0000,  0.0000)
   3 Rh    -0.016150    0.008862   16.671203    ( 0.0000,  0.0000,  0.0000)
   4 Rh    -1.374814    2.381247    9.999999    ( 0.0000,  0.0000,  0.0000)
   5 Rh    -0.000000    3.174997   12.245061    ( 0.0000,  0.0000,  0.0000)
   6 Rh    -1.368803    3.966768   14.436218    ( 0.0000,  0.0000,  0.0000)
   7 Rh    -1.411873    2.359708   16.635852    ( 0.0000,  0.0000,  0.0000)
   8 Rh    -2.749628    4.762495    9.999999    ( 0.0000,  0.0000,  0.0000)
   9 Rh    -1.374814    5.556244   12.245061    ( 0.0000,  0.0000,  0.0000)
  10 Rh    -2.751233    6.350921   14.438403    ( 0.0000,  0.0000,  0.0000)
  11 Rh    -2.753326    4.748512   16.663864    ( 0.0000,  0.0000,  0.0000)
  12 Rh     2.749628    0.000000    9.999999    ( 0.0000,  0.0000,  0.0000)
  13 Rh     4.124441    0.793749   12.245061    ( 0.0000,  0.0000,  0.0000)
  14 Rh     2.749013    1.591875   14.434140    ( 0.0000,  0.0000,  0.0000)
  15 Rh     2.760064    0.009780   16.663902    ( 0.0000,  0.0000,  0.0000)
  16 Rh     1.374814    2.381247    9.999999    ( 0.0000,  0.0000,  0.0000)
  17 Rh     2.749628    3.174997   12.245061    ( 0.0000,  0.0000,  0.0000)
  18 Rh     1.375252    3.968416   14.396041    ( 0.0000,  0.0000,  0.0000)
  19 Rh     1.375261    2.329768   16.729049    ( 0.0000,  0.0000,  0.0000)
  20 Rh    -0.000000    4.762495    9.999999    ( 0.0000,  0.0000,  0.0000)
  21 Rh     1.374814    5.556244   12.245061    ( 0.0000,  0.0000,  0.0000)
  22 Rh     0.004725    6.345680   14.436221    ( 0.0000,  0.0000,  0.0000)
  23 Rh    -0.053426    4.793064   16.737416    ( 0.0000,  0.0000,  0.0000)
  24 Rh     5.499255    0.000000    9.999999    ( 0.0000,  0.0000,  0.0000)
  25 Rh     6.874069    0.793749   12.245061    ( 0.0000,  0.0000,  0.0000)
  26 Rh     5.500076    1.586996   14.406661    ( 0.0000,  0.0000,  0.0000)
  27 Rh     5.499329    0.042765   16.635879    ( 0.0000,  0.0000,  0.0000)
  28 Rh     4.124441    2.381247    9.999999    ( 0.0000,  0.0000,  0.0000)
  29 Rh     5.499255    3.174997   12.245061    ( 0.0000,  0.0000,  0.0000)
  30 Rh     4.120225    3.967120   14.434239    ( 0.0000,  0.0000,  0.0000)
  31 Rh     4.158691    2.361402   16.634825    ( 0.0000,  0.0000,  0.0000)
  32 Rh     2.749628    4.762495    9.999999    ( 0.0000,  0.0000,  0.0000)
  33 Rh     4.124441    5.556244   12.245061    ( 0.0000,  0.0000,  0.0000)
  34 Rh     2.748146    6.346430   14.437724    ( 0.0000,  0.0000,  0.0000)
  35 Rh     2.794028    4.787318   16.729213    ( 0.0000,  0.0000,  0.0000)
  36 O      1.365640    3.973233   17.905255    ( 0.0000,  0.0000,  0.0000)

Unit cell:
           periodic     x           y           z      points  spacing
  1. axis:    yes    8.248883    0.000000    0.000000    40     0.1786
  2. axis:    yes   -4.124441    7.143742    0.000000    40     0.1786
  3. axis:    no     0.000000    0.000000   26.735183   148     0.1806

  Lengths:   8.248883   8.248883  26.735183
  Angles:   90.000000  90.000000 120.000000

Effective grid spacing dv^(1/3) = 0.1881

     iter     time        total  log10-change:
                         energy  eigst   dens
iter:   1 01:45:18 -5161.809085  -2.46
iter:   2 01:46:06 -5222.373134  -1.16  -1.92
iter:   3 01:46:55 -5162.768106  -1.80  -1.26
iter:   4 01:47:43 -5160.062850  -2.26  -1.94
iter:   5 01:48:32 -5160.009529  -2.95  -2.75
iter:   6 01:49:20 -5160.004568c -3.81  -3.12
iter:   7 01:50:09 -5160.003334c -4.41  -3.35
iter:   8 01:50:57 -5159.998103c -4.62  -3.42
iter:   9 01:51:46 -5159.998537c -5.25  -3.64
iter:  10 01:52:34 -5159.998875c -5.61  -3.68
iter:  11 01:53:23 -5159.997970c -5.31  -3.64
iter:  12 01:54:11 -5159.997953c -5.69  -4.06c
iter:  13 01:55:00 -5159.997806c -6.51  -4.09c
iter:  14 01:55:48 -5159.998006c -6.78  -4.10c
iter:  15 01:56:37 -5159.997791c -6.40  -4.08c
iter:  16 01:57:25 -5159.997678c -6.87  -4.71c
iter:  17 01:58:14 -5159.997743c -7.61c -4.72c

Converged after 17 iterations.

Dipole moment: (0.590755, -9.286949, -0.127670) |e|*Ang

Energy contributions relative to reference atoms: (reference = -4686888.144308)

Kinetic:       +749.464466
Potential:     -776.121416
External:        +0.000000
XC:            -5122.209336
Entropy (-ST):   -2.222785
Local:          -10.020063
--------------------------
Free energy:   -5161.109135
Extrapolated:  -5159.997743

Showing only first 2 kpts
 Kpt  Band  Eigenvalues  Occupancy
  0   271     -5.42652    1.13796
  0   272     -5.38385    0.92565
  0   273     -5.35247    0.77267
  0   274     -5.31271    0.59451

  1   271     -5.45312    1.26535
  1   272     -5.44988    1.25024
  1   273     -5.43579    1.18311
  1   274     -5.41274    1.06982


Fermi level: -5.39875

No gap

Forces in eV/Ang:
  0 Rh   -0.02009    0.01158    0.16769
  1 Rh   -0.02948   -0.03176   -0.23988
  2 Rh    0.08158   -0.00068    0.17739
  3 Rh    0.09153   -0.05099   -0.05283
  4 Rh    0.03857    0.01179    0.19391
  5 Rh   -0.07916   -0.04621   -0.29376
  6 Rh    0.03620    0.08033    0.17707
  7 Rh    0.08528    0.05843    0.00637
  8 Rh   -0.00401   -0.01651    0.14897
  9 Rh   -0.01810    0.01042   -0.24138
 10 Rh    0.00293   -0.00177    0.09924
 11 Rh   -0.01476    0.10920   -0.04222
 12 Rh    0.01226    0.01170    0.14894
 13 Rh   -0.04623   -0.02624   -0.39546
 14 Rh   -0.08402   -0.00448    0.18152
 15 Rh   -0.10344   -0.04091   -0.04259
 16 Rh   -0.00286   -0.00941    0.15870
 17 Rh    0.07569   -0.04363   -0.29209
 18 Rh   -0.00080    0.00037    0.22330
 19 Rh   -0.02389   -0.04934   -0.08115
 20 Rh   -0.00486    0.00274    0.17803
 21 Rh    0.00051    0.09150   -0.29356
 22 Rh   -0.05175   -0.07166    0.17695
 23 Rh   -0.04928    0.02919   -0.09158
 24 Rh    0.00907   -0.03928    0.19388
 25 Rh    0.07563   -0.04423   -0.38626
 26 Rh   -0.00241    0.00123    0.12689
 27 Rh   -0.00851   -0.10384    0.00643
 28 Rh   -0.03848    0.02221    0.20775
 29 Rh   -0.00085    0.05325   -0.39517
 30 Rh   -0.03771    0.07394    0.18038
 31 Rh   -0.07681    0.04378    0.00278
 32 Rh    0.00674    0.00713    0.15874
 33 Rh    0.01269    0.04136   -0.23973
 34 Rh    0.04103   -0.06953    0.17605
 35 Rh    0.02990    0.04547   -0.08055
 36 O     0.00408   -0.00292    0.20156

BFGS:    8 01:58:41    -5159.997743        0.2233
System changes: positions 

Initializing position-dependent things.

Density initialized from wave functions
                                           
                                           
                                           
                                           
                                           
                   O                       
          Rh    Rh     Rh                  
                  Rh                       
           RRh   Rh     RRh                
             RRh   RRh    RRh              
                                           
              RRh   RRh    RRh             
                                           
                Rh    Rh     Rh            
                 Rh     Rh     Rh          
          Rh    Rh     Rh                  
            Rh    Rh     Rh                
              Rh    Rh     Rh              
                                           
                                           
                                           
                                           

Positions:
   0 Rh     0.000000    0.000000    9.999999    ( 0.0000,  0.0000,  0.0000)
   1 Rh     1.374814    0.793749   12.245061    ( 0.0000,  0.0000,  0.0000)
   2 Rh     0.007063    1.590449   14.446766    ( 0.0000,  0.0000,  0.0000)
   3 Rh    -0.012541    0.006856   16.667822    ( 0.0000,  0.0000,  0.0000)
   4 Rh    -1.374814    2.381247    9.999999    ( 0.0000,  0.0000,  0.0000)
   5 Rh    -0.000000    3.174997   12.245061    ( 0.0000,  0.0000,  0.0000)
   6 Rh    -1.366413    3.971317   14.445225    ( 0.0000,  0.0000,  0.0000)
   7 Rh    -1.407730    2.362829   16.634353    ( 0.0000,  0.0000,  0.0000)
   8 Rh    -2.749628    4.762495    9.999999    ( 0.0000,  0.0000,  0.0000)
   9 Rh    -1.374814    5.556244   12.245061    ( 0.0000,  0.0000,  0.0000)
  10 Rh    -2.751154    6.350877   14.443911    ( 0.0000,  0.0000,  0.0000)
  11 Rh    -2.754195    4.752834   16.660758    ( 0.0000,  0.0000,  0.0000)
  12 Rh     2.749628    0.000000    9.999999    ( 0.0000,  0.0000,  0.0000)
  13 Rh     4.124441    0.793749   12.245061    ( 0.0000,  0.0000,  0.0000)
  14 Rh     2.744099    1.591808   14.443282    ( 0.0000,  0.0000,  0.0000)
  15 Rh     2.755821    0.008402   16.660778    ( 0.0000,  0.0000,  0.0000)
  16 Rh     1.374814    2.381247    9.999999    ( 0.0000,  0.0000,  0.0000)
  17 Rh     2.749628    3.174997   12.245061    ( 0.0000,  0.0000,  0.0000)
  18 Rh     1.375181    3.968443   14.408602    ( 0.0000,  0.0000,  0.0000)
  19 Rh     1.374174    2.339142   16.733629    ( 0.0000,  0.0000,  0.0000)
  20 Rh    -0.000000    4.762495    9.999999    ( 0.0000,  0.0000,  0.0000)
  21 Rh     1.374814    5.556244   12.245061    ( 0.0000,  0.0000,  0.0000)
  22 Rh     0.001966    6.341324   14.445222    ( 0.0000,  0.0000,  0.0000)
  23 Rh    -0.046241    4.788928   16.742058    ( 0.0000,  0.0000,  0.0000)
  24 Rh     5.499255    0.000000    9.999999    ( 0.0000,  0.0000,  0.0000)
  25 Rh     6.874069    0.793749   12.245061    ( 0.0000,  0.0000,  0.0000)
  26 Rh     5.500021    1.587019   14.410431    ( 0.0000,  0.0000,  0.0000)
  27 Rh     5.498664    0.037577   16.634385    ( 0.0000,  0.0000,  0.0000)
  28 Rh     4.124441    2.381247    9.999999    ( 0.0000,  0.0000,  0.0000)
[...]
  19 Rh     1.370494    2.334884   16.740284    ( 0.0000,  0.0000,  0.0000)
  20 Rh    -0.000000    4.762495    9.999999    ( 0.0000,  0.0000,  0.0000)
  21 Rh     1.374814    5.556244   12.245061    ( 0.0000,  0.0000,  0.0000)
  22 Rh     0.001001    6.341541   14.459897    ( 0.0000,  0.0000,  0.0000)
  23 Rh    -0.049951    4.791224   16.747079    ( 0.0000,  0.0000,  0.0000)
  24 Rh     5.499255    0.000000    9.999999    ( 0.0000,  0.0000,  0.0000)
  25 Rh     6.874069    0.793749   12.245061    ( 0.0000,  0.0000,  0.0000)
  26 Rh     5.499765    1.587118   14.430678    ( 0.0000,  0.0000,  0.0000)
  27 Rh     5.497854    0.035793   16.652953    ( 0.0000,  0.0000,  0.0000)
  28 Rh     4.124441    2.381247    9.999999    ( 0.0000,  0.0000,  0.0000)
  29 Rh     5.499255    3.174997   12.245061    ( 0.0000,  0.0000,  0.0000)
  30 Rh     4.116351    3.971639   14.458237    ( 0.0000,  0.0000,  0.0000)
  31 Rh     4.150958    2.365786   16.652704    ( 0.0000,  0.0000,  0.0000)
  32 Rh     2.749628    4.762495    9.999999    ( 0.0000,  0.0000,  0.0000)
  33 Rh     4.124441    5.556244   12.245061    ( 0.0000,  0.0000,  0.0000)
  34 Rh     2.748887    6.342483   14.456542    ( 0.0000,  0.0000,  0.0000)
  35 Rh     2.787623    4.789263   16.740211    ( 0.0000,  0.0000,  0.0000)
  36 O      1.367028    3.973448   17.935613    ( 0.0000,  0.0000,  0.0000)

Unit cell:
           periodic     x           y           z      points  spacing
  1. axis:    yes    8.248883    0.000000    0.000000    40     0.1786
  2. axis:    yes   -4.124441    7.143742    0.000000    40     0.1786
  3. axis:    no     0.000000    0.000000   26.735183   148     0.1806

  Lengths:   8.248883   8.248883  26.735183
  Angles:   90.000000  90.000000 120.000000

Effective grid spacing dv^(1/3) = 0.1881

     iter     time        total  log10-change:
                         energy  eigst   dens
iter:   1 03:25:36 -5160.166627  -2.44
iter:   2 03:26:25 -5161.137159  -2.54  -2.42
iter:   3 03:27:13 -5161.041620  -2.78  -2.09
iter:   4 03:28:01 -5160.011558  -3.46  -2.06
iter:   5 03:28:49 -5160.008214  -4.31  -3.26
iter:   6 03:29:37 -5160.008250c -4.77  -3.33
iter:   7 03:30:26 -5160.007704c -5.03  -3.56
iter:   8 03:31:14 -5160.007308c -5.42  -3.65
iter:   9 03:32:02 -5160.008472c -5.51  -3.73
iter:  10 03:32:50 -5160.008497c -5.56  -3.59
iter:  11 03:33:38 -5160.007336c -6.35  -3.68
iter:  12 03:34:26 -5160.007956c -6.58  -3.99
iter:  13 03:35:14 -5160.007497c -6.49  -4.14c
iter:  14 03:36:02 -5160.007554c -6.45  -4.26c
iter:  15 03:36:51 -5160.007763c -6.84  -4.45c
iter:  16 03:37:39 -5160.007847c -6.96  -4.30c
iter:  17 03:38:27 -5160.007619c -7.23  -4.07c
iter:  18 03:39:15 -5160.007831c -7.31  -4.51c
iter:  19 03:40:03 -5160.007692c -7.22  -4.53c
iter:  20 03:40:51 -5160.007734c -7.48c -4.80c

Converged after 20 iterations.

Dipole moment: (-0.982649, -8.422255, -0.133441) |e|*Ang

Energy contributions relative to reference atoms: (reference = -4686888.144308)

Kinetic:       +743.577496
Potential:     -771.185057
External:        +0.000000
XC:            -5121.255958
Entropy (-ST):   -2.247118
Local:          -10.020656
--------------------------
Free energy:   -5161.131293
Extrapolated:  -5160.007734

Showing only first 2 kpts
 Kpt  Band  Eigenvalues  Occupancy
  0   271     -5.43693    1.13855
  0   272     -5.39232    0.91658
  0   273     -5.36224    0.77018
  0   274     -5.32655    0.60945

  1   271     -5.46867    1.28960
  1   272     -5.45724    1.23644
  1   273     -5.43965    1.15187
  1   274     -5.40907    1.00014


Fermi level: -5.40904

No gap

Forces in eV/Ang:
  0 Rh   -0.02105    0.01216    0.17960
  1 Rh   -0.02425    0.00107   -0.16475
  2 Rh    0.00819   -0.00540    0.02885
  3 Rh   -0.03034    0.01817   -0.01939
  4 Rh    0.04151    0.01368    0.21136
  5 Rh   -0.07781   -0.03630   -0.17937
  6 Rh    0.00044    0.01110    0.01670
  7 Rh   -0.00824    0.00297   -0.00648
  8 Rh   -0.00514   -0.01700    0.16120
  9 Rh    0.01214   -0.00721   -0.16727
 10 Rh   -0.00804    0.00502    0.09123
 11 Rh    0.00624   -0.03208   -0.02339
 12 Rh    0.01214    0.01295    0.16119
 13 Rh   -0.03772   -0.01810   -0.25121
 14 Rh   -0.00954   -0.00545    0.01779
 15 Rh    0.03108    0.01130   -0.02344
 16 Rh   -0.00346   -0.01032    0.17375
 17 Rh    0.07266   -0.04208   -0.16878
 18 Rh   -0.00314    0.00160    0.01075
 19 Rh    0.00897   -0.00158    0.00015
 20 Rh   -0.00602    0.00347    0.19180
 21 Rh   -0.00757    0.08530   -0.17943
 22 Rh   -0.00950   -0.00576    0.01665
 23 Rh   -0.01006    0.00591    0.00717
 24 Rh    0.00890   -0.04279    0.21135
 25 Rh    0.05734   -0.03324   -0.25863
 26 Rh   -0.00592    0.00359   -0.01076
 27 Rh   -0.00663    0.00633   -0.00628
 28 Rh   -0.04268    0.02464    0.22530
 29 Rh   -0.00329    0.04147   -0.25128
 30 Rh    0.00007    0.01080    0.01741
 31 Rh   -0.00391    0.00230   -0.00670
 32 Rh    0.00719    0.00814    0.17374
 33 Rh   -0.01322    0.02014   -0.16481
 34 Rh    0.00870   -0.00401    0.02837
 35 Rh    0.00670   -0.00614   -0.00027
 36 O    -0.00869    0.00214   -0.00369

BFGS:   15 03:41:19    -5160.007734        0.0917
System changes: positions 

Initializing position-dependent things.

Density initialized from wave functions
                                           
                                           
                                           
                                           
                                           
                   O                       
          Rh    Rh     Rh                  
                                           
           RRh   RRh    RRh                
             RRh   RRh    RRh              
                                           
              RRh   RRh    RRh             
                                           
                Rh    Rh     Rh            
                 Rh     Rh     Rh          
          Rh    Rh     Rh                  
            Rh    Rh     Rh                
              Rh    Rh     Rh              
                                           
                                           
                                           
                                           

Positions:
   0 Rh     0.000000    0.000000    9.999999    ( 0.0000,  0.0000,  0.0000)
   1 Rh     1.374814    0.793749   12.245061    ( 0.0000,  0.0000,  0.0000)
   2 Rh     0.006978    1.591477   14.456290    ( 0.0000,  0.0000,  0.0000)
   3 Rh    -0.002387    0.001202   16.676364    ( 0.0000,  0.0000,  0.0000)
   4 Rh    -1.374814    2.381247    9.999999    ( 0.0000,  0.0000,  0.0000)
   5 Rh    -0.000000    3.174997   12.245061    ( 0.0000,  0.0000,  0.0000)
   6 Rh    -1.366633    3.972601   14.458655    ( 0.0000,  0.0000,  0.0000)
   7 Rh    -1.406310    2.364508   16.649371    ( 0.0000,  0.0000,  0.0000)
   8 Rh    -2.749628    4.762495    9.999999    ( 0.0000,  0.0000,  0.0000)
   9 Rh    -1.374814    5.556244   12.245061    ( 0.0000,  0.0000,  0.0000)
  10 Rh    -2.751204    6.350812   14.438015    ( 0.0000,  0.0000,  0.0000)
  11 Rh    -2.755568    4.768444   16.671372    ( 0.0000,  0.0000,  0.0000)
  12 Rh     2.749628    0.000000    9.999999    ( 0.0000,  0.0000,  0.0000)
  13 Rh     4.124441    0.793749   12.245061    ( 0.0000,  0.0000,  0.0000)
  14 Rh     2.742435    1.592634   14.456974    ( 0.0000,  0.0000,  0.0000)
  15 Rh     2.741351    0.001870   16.671358    ( 0.0000,  0.0000,  0.0000)
  16 Rh     1.374814    2.381247    9.999999    ( 0.0000,  0.0000,  0.0000)
  17 Rh     2.749628    3.174997   12.245061    ( 0.0000,  0.0000,  0.0000)
  18 Rh     1.374793    3.968696   14.419069    ( 0.0000,  0.0000,  0.0000)
  19 Rh     1.371084    2.335329   16.738594    ( 0.0000,  0.0000,  0.0000)
  20 Rh    -0.000000    4.762495    9.999999    ( 0.0000,  0.0000,  0.0000)
  21 Rh     1.374814    5.556244   12.245061    ( 0.0000,  0.0000,  0.0000)
  22 Rh     0.000686    6.340861   14.458643    ( 0.0000,  0.0000,  0.0000)
  23 Rh    -0.049702    4.791057   16.745631    ( 0.0000,  0.0000,  0.0000)
  24 Rh     5.499255    0.000000    9.999999    ( 0.0000,  0.0000,  0.0000)
  25 Rh     6.874069    0.793749   12.245061    ( 0.0000,  0.0000,  0.0000)
  26 Rh     5.499760    1.587130   14.427745    ( 0.0000,  0.0000,  0.0000)
  27 Rh     5.497885    0.035420   16.649354    ( 0.0000,  0.0000,  0.0000)
  28 Rh     4.124441    2.381247    9.999999    ( 0.0000,  0.0000,  0.0000)
  29 Rh     5.499255    3.174997   12.245061    ( 0.0000,  0.0000,  0.0000)
  30 Rh     4.116320    3.972284   14.456980    ( 0.0000,  0.0000,  0.0000)
  31 Rh     4.151107    2.365704   16.648850    ( 0.0000,  0.0000,  0.0000)
  32 Rh     2.749628    4.762495    9.999999    ( 0.0000,  0.0000,  0.0000)
  33 Rh     4.124441    5.556244   12.245061    ( 0.0000,  0.0000,  0.0000)
  34 Rh     2.749605    6.341829   14.456292    ( 0.0000,  0.0000,  0.0000)
  35 Rh     2.787449    4.788463   16.738570    ( 0.0000,  0.0000,  0.0000)
  36 O      1.366709    3.973447   17.935153    ( 0.0000,  0.0000,  0.0000)

Unit cell:
           periodic     x           y           z      points  spacing
  1. axis:    yes    8.248883    0.000000    0.000000    40     0.1786
  2. axis:    yes   -4.124441    7.143742    0.000000    40     0.1786
  3. axis:    no     0.000000    0.000000   26.735183   148     0.1806

  Lengths:   8.248883   8.248883  26.735183
  Angles:   90.000000  90.000000 120.000000

Effective grid spacing dv^(1/3) = 0.1881

     iter     time        total  log10-change:
                         energy  eigst   dens
iter:   1 03:43:08 -5160.051143  -3.31
iter:   2 03:43:57 -5160.628347  -3.22  -2.86
iter:   3 03:44:45 -5160.034964  -3.49  -2.15
iter:   4 03:45:33 -5160.011449  -4.36  -2.80
iter:   5 03:46:21 -5160.009665c -5.39  -3.60
iter:   6 03:47:10 -5160.009124c -5.69  -3.83
iter:   7 03:47:58 -5160.008878c -5.58  -3.97
iter:   8 03:48:46 -5160.009046c -6.04  -4.09c
iter:   9 03:49:35 -5160.008820c -6.43  -4.17c
iter:  10 03:50:23 -5160.008999c -6.61  -3.90
iter:  11 03:51:11 -5160.009129c -7.06  -4.15c
iter:  12 03:51:59 -5160.008944c -7.35  -4.45c
iter:  13 03:52:47 -5160.009016c -7.19  -4.54c
iter:  14 03:53:36 -5160.008961c -7.72c -4.45c

Converged after 14 iterations.

Dipole moment: (-0.824282, -8.515056, -0.131727) |e|*Ang

Energy contributions relative to reference atoms: (reference = -4686888.144308)

Kinetic:       +744.414469
Potential:     -771.881834
External:        +0.000000
XC:            -5121.390609
Entropy (-ST):   -2.245682
Local:          -10.028146
--------------------------
Free energy:   -5161.131802
Extrapolated:  -5160.008961

Showing only first 2 kpts
 Kpt  Band  Eigenvalues  Occupancy
  0   271     -5.43596    1.13989
  0   272     -5.39128    0.91757
  0   273     -5.36085    0.76944
  0   274     -5.32538    0.60975

  1   271     -5.46629    1.28440
  1   272     -5.45661    1.23931
  1   273     -5.43854    1.15247
  1   274     -5.40815    1.00175


Fermi level: -5.40780

No gap

Forces in eV/Ang:
  0 Rh   -0.02144    0.01237    0.17600
  1 Rh   -0.02535   -0.00649   -0.16924
  2 Rh   -0.00197   -0.00141    0.01840
  3 Rh   -0.01295    0.00809   -0.00795
  4 Rh    0.04174    0.01370    0.20967
  5 Rh   -0.07581   -0.03720   -0.18412
  6 Rh   -0.00257    0.00198    0.01526
  7 Rh   -0.00880    0.00041    0.00266
  8 Rh   -0.00507   -0.01735    0.15799
  9 Rh    0.00512   -0.00313   -0.17231
 10 Rh   -0.00478    0.00291    0.04845
 11 Rh    0.00373   -0.00907   -0.00999
 12 Rh    0.01248    0.01306    0.15798
 13 Rh   -0.04147   -0.02077   -0.26150
 14 Rh   -0.00119   -0.00177    0.01528
 15 Rh    0.00969    0.00182   -0.01001
 16 Rh   -0.00355   -0.01039    0.17202
 17 Rh    0.07099   -0.04112   -0.17504
 18 Rh   -0.00259    0.00142    0.00695
 19 Rh    0.00410    0.00199    0.00367
 20 Rh   -0.00606    0.00349    0.19063
 21 Rh   -0.00580    0.08400   -0.18419
 22 Rh   -0.00309    0.00139    0.01521
 23 Rh   -0.00419    0.00262    0.00732
 24 Rh    0.00900   -0.04301    0.20966
 25 Rh    0.06295   -0.03651   -0.26542
 26 Rh   -0.00391    0.00234    0.00623
 27 Rh   -0.00465    0.00783    0.00272
 28 Rh   -0.04268    0.02464    0.22371
 29 Rh   -0.00288    0.04607   -0.26155
 30 Rh    0.00101    0.00184    0.01511
 31 Rh   -0.00287    0.00175    0.00349
 32 Rh    0.00721    0.00826    0.17201
 33 Rh   -0.00719    0.02493   -0.16926
 34 Rh    0.00026    0.00268    0.01814
 35 Rh    0.00110   -0.00366    0.00341
 36 O    -0.00516    0.00108   -0.01838

BFGS:   16 03:54:03    -5160.008961        0.0488
Timing:                                      incl.     excl.
-------------------------------------------------------------------
Density initialized from wave functions:    25.689    25.688   0.1% |
 Symmetrize density:                         0.001     0.001   0.0% |
Forces:                                    466.247   466.247   2.6% ||
Hamiltonian:                                62.753     0.003   0.0% |
 Atomic:                                     0.005     0.004   0.0% |
  XC Correction:                             0.000     0.000   0.0% |
 Calculate atomic Hamiltonians:              0.006     0.006   0.0% |
 Communicate:                                4.303     4.303   0.0% |
 Hartree integrate/restrict:                 0.160     0.160   0.0% |
 Initialize Hamiltonian:                     0.002     0.002   0.0% |
 Poisson:                                    3.038     0.109   0.0% |
  Communicate from 1D:                       0.242     0.242   0.0% |
  Communicate from 2D:                       0.522     0.522   0.0% |
  Communicate to 1D:                         0.131     0.131   0.0% |
  Communicate to 2D:                         0.535     0.535   0.0% |
  FFT 1D:                                    0.786     0.786   0.0% |
  FFT 2D:                                    0.712     0.712   0.0% |
 XC 3D grid:                                55.030    13.622   0.1% |
  VdW-DF integral:                          41.408     2.189   0.0% |
   Convolution:                              3.597     3.597   0.0% |
   FFT:                                      2.652     2.652   0.0% |
   gather:                                  12.039    12.039   0.1% |
   hmm1:                                     0.700     0.700   0.0% |
   hmm2:                                     1.530     1.530   0.0% |
   iFFT:                                     2.492     2.492   0.0% |
   potential:                               11.812     0.263   0.0% |
    collect:                                 0.783     0.783   0.0% |
    p1:                                      7.052     7.052   0.0% |
    p2:                                      2.347     2.347   0.0% |
    sum:                                     1.367     1.367   0.0% |
   splines:                                  4.397     4.397   0.0% |
 vbar:                                       0.207     0.207   0.0% |
LCAO initialization:                        64.946     1.075   0.0% |
 LCAO eigensolver:                          52.253     0.005   0.0% |
  Calculate projections:                     0.000     0.000   0.0% |
  DenseAtomicCorrection:                     0.000     0.000   0.0% |
  Distribute overlap matrix:                51.238    51.238   0.3% |
  Orbital Layouts:                           0.797     0.797   0.0% |
  Potential matrix:                          0.068     0.068   0.0% |
  Sum over cells:                            0.146     0.146   0.0% |
 LCAO to grid:                               9.379     9.379   0.1% |
 Set positions (LCAO WFS):                   2.239     1.580   0.0% |
  Basic WFS set positions:                   0.001     0.001   0.0% |
  Basis functions set positions:             0.000     0.000   0.0% |
  P tci:                                     0.000     0.000   0.0% |
  ST tci:                                    0.539     0.539   0.0% |
  mktci:                                     0.118     0.118   0.0% |
Redistribute:                                0.010     0.010   0.0% |
SCF-cycle:                               16310.939   190.220   1.1% |
 Davidson:                               14871.335  5256.290  29.6% |-----------|
  Apply hamiltonian:                       266.793   266.793   1.5% ||
  Subspace diag:                          1150.332     0.043   0.0% |
   calc_h_matrix:                          570.161   322.363   1.8% ||
    Apply hamiltonian:                     247.798   247.798   1.4% ||
   diagonalize:                             27.763    27.763   0.2% |
   rotate_psi:                             552.365   552.365   3.1% ||
  calc. matrices:                         6992.670  2071.583  11.7% |----|
   Apply hamiltonian:                     4921.088  4921.088  27.7% |----------|
  diagonalize:                             162.423   162.423   0.9% |
  rotate_psi:                             1042.826  1042.826   5.9% |-|
 Density:                                   22.580     0.007   0.0% |
  Atomic density matrices:                   2.232     2.232   0.0% |
  Mix:                                       5.682     5.682   0.0% |
  Multipole moments:                         0.148     0.148   0.0% |
  Pseudo density:                           14.511    14.501   0.1% |
   Symmetrize density:                       0.010     0.010   0.0% |
 Hamiltonian:                             1094.411     0.047   0.0% |
  Atomic:                                    0.086     0.085   0.0% |
   XC Correction:                            0.001     0.001   0.0% |
  Calculate atomic Hamiltonians:             0.116     0.116   0.0% |
  Communicate:                              80.717    80.717   0.5% |
  Hartree integrate/restrict:                3.003     3.003   0.0% |
  Poisson:                                  57.517     2.096   0.0% |
   Communicate from 1D:                      4.539     4.539   0.0% |
   Communicate from 2D:                      9.770     9.770   0.1% |
   Communicate to 1D:                        2.546     2.546   0.0% |
   Communicate to 2D:                       10.091    10.091   0.1% |
   FFT 1D:                                  14.880    14.880   0.1% |
   FFT 2D:                                  13.594    13.594   0.1% |
  XC 3D grid:                              952.432   259.880   1.5% ||
   VdW-DF integral:                        692.552    41.442   0.2% |
    Convolution:                            67.617    67.617   0.4% |
    FFT:                                    49.706    49.706   0.3% |
    gather:                                224.690   224.690   1.3% ||
    hmm1:                                   12.730    12.730   0.1% |
    hmm2:                                   28.158    28.158   0.2% |
    iFFT:                                   46.973    46.973   0.3% |
    potential:                             221.234     5.043   0.0% |
     collect:                               14.579    14.579   0.1% |
     p1:                                   133.212   133.212   0.7% |
     p2:                                    44.892    44.892   0.3% |
     sum:                                   23.507    23.507   0.1% |
    splines:                                 0.002     0.002   0.0% |
  vbar:                                      0.492     0.492   0.0% |
 Orthonormalize:                           132.393     0.004   0.0% |
  calc_s_matrix:                             6.693     6.693   0.0% |
  inverse-cholesky:                        112.331   112.331   0.6% |
  projections:                               0.001     0.001   0.0% |
  rotate_psi_s:                             13.364    13.364   0.1% |
Set symmetry:                                0.002     0.002   0.0% |
Other:                                     847.688   847.688   4.8% |-|
-------------------------------------------------------------------
Total:                                             17778.273 100.0%

Memory usage: 1.59 GiB
Date: Thu Sep 28 03:54:03 2023
