
  ___ ___ ___ _ _ _  
 |   |   |_  | | | | 
 | | | | | . | | | | 
 |__ |  _|___|_____|  22.8.0
 |___|_|             

User:   s204775@c171.nifl.fysik.dtu.dk
Date:   Wed Sep 27 23:03:31 2023
Arch:   x86_64
Pid:    45917
CWD:    /home/cat/s204775/projects/Bachelor_project/O_missing_features
Python: 3.10.4
gpaw:   /home/modules/software/GPAW/22.8.0-intel-2022a/lib/python3.10/site-packages/gpaw
_gpaw:  /home/modules/software/GPAW/22.8.0-intel-2022a/lib/python3.10/site-packages/
        _gpaw.cpython-310-x86_64-linux-gnu.so
ase:    /home/modules/software/ASE/3.22.1-intel-2022a/lib/python3.10/site-packages/ase (version 3.22.1)
numpy:  /home/modules/software/SciPy-bundle/2022.05-intel-2022a/lib/python3.10/site-packages/numpy (version 1.22.3)
scipy:  /home/modules/software/SciPy-bundle/2022.05-intel-2022a/lib/python3.10/site-packages/scipy (version 1.8.1)
libxc:  5.2.3
units:  Angstrom and eV
cores: 40
OpenMP: False
OMP_NUM_THREADS: 1

Input parameters:
  basis: dzp
  h: 0.18
  kpts: {size: (4, 4, 1)}
  xc: BEEF-vdW

System changes: positions, numbers, cell, pbc, initial_charges, initial_magmoms 

Initialize ...

species:
  Ru:
    name: Ruthenium
    id: 670232e5f51aeb2542f664849653fb2d
    Z: 44.0
    valence: 16
    core: 28
    charge: 0.0
    file: /home/modules/software/GPAW-setups/0.9.20000/Ru.PBE.gz
    compensation charges: {type: gauss,
                           rc: 0.39,
                           lmax: 2}
    cutoffs: {filter: 2.16,
              core: 1.30}
    valence states:
      #              energy  rcut
      - 4s(2.00)   -76.316   1.281
      - 5s(1.00)    -4.236   1.281
      - 4p(6.00)   -46.423   1.286
      - 5p(0.00)    -0.913   1.286
      - 4d(7.00)    -5.203   1.254
      -  d          22.008   1.254
  
    # LCAO basis set for Ru:
    #   Name: dzp
    #   File: /home/modules/software/GPAW-setups/0.9.20000/Ru.dzp.basis.gz
    #   Number of radial functions: 11
    #   Number of spherical harmonics: 29
    #     l=0, rc=3.2969 Bohr: 4s-sz confined orbital
    #     l=0, rc=9.6875 Bohr: 5s-sz confined orbital
    #     l=1, rc=3.7656 Bohr: 4p-sz confined orbital
    #     l=1, rc=14.0938 Bohr: 5p-sz confined orbital
    #     l=2, rc=6.3281 Bohr: 4d-sz confined orbital
    #     l=0, rc=2.0781 Bohr: 4s-dz split-valence wave
    #     l=0, rc=5.8281 Bohr: 5s-dz split-valence wave
    #     l=1, rc=2.4219 Bohr: 4p-dz split-valence wave
    #     l=1, rc=8.7031 Bohr: 5p-dz split-valence wave
    #     l=2, rc=3.7500 Bohr: 4d-dz split-valence wave
    #     l=1, rc=9.6875 Bohr: p-type Gaussian polarization
    #   Number of RI-basis functions 0

  O:
    name: Oxygen
    id: 32ecd46bf208036f09c70b0ec9a88b78
    Z: 8.0
    valence: 6
    core: 2
    charge: 0.0
    file: /home/modules/software/GPAW-setups/0.9.20000/O.PBE.gz
    compensation charges: {type: gauss,
                           rc: 0.21,
                           lmax: 2}
    cutoffs: {filter: 1.17,
              core: 0.83}
    valence states:
      #              energy  rcut
      - 2s(2.00)   -23.961   0.688
      - 2p(4.00)    -9.029   0.598
      -  s           3.251   0.688
      -  p          18.182   0.598
      -  d           0.000   0.619
  
    # LCAO basis set for O:
    #   Name: dzp
    #   File: /home/modules/software/GPAW-setups/0.9.20000/O.dzp.basis.gz
    #   Number of radial functions: 5
    #   Number of spherical harmonics: 13
    #     l=0, rc=4.3438 Bohr: 2s-sz confined orbital
    #     l=1, rc=5.3906 Bohr: 2p-sz confined orbital
    #     l=0, rc=2.2969 Bohr: 2s-dz split-valence wave
    #     l=1, rc=2.8906 Bohr: 2p-dz split-valence wave
    #     l=2, rc=5.3906 Bohr: d-type Gaussian polarization
    #   Number of RI-basis functions 0

Reference energy: -4438865.351685  # eV

Spin-paired calculation

Convergence criteria:
 Maximum [total energy] change in last 3 cyles: 0.0005 eV / electron
 Maximum integral of absolute [dens]ity change: 0.0001 electrons / valence electron
 Maximum integral of absolute [eigenst]ate change: 4e-08 eV^2 / valence electron
 Maximum number of scf [iter]ations: 333
 (Square brackets indicate name in SCF output, whereas a 'c' in
 the SCF output indicates the quantity has converged.)

Symmetries present (total): 2

  ( 1  0  0)  (-1  0  0)
  ( 0  1  0)  ( 1  1  0)
  ( 0  0  1)  ( 0  0  1)
Note: your k-points are not as symmetric as your crystal!

16 k-points: 4 x 4 x 1 Monkhorst-Pack grid
8 k-points in the irreducible part of the Brillouin zone
       k-points in crystal coordinates                weights
   0:     0.12500000   -0.37500000    0.00000000          2/16
   1:     0.12500000   -0.12500000    0.00000000          2/16
   2:     0.12500000    0.12500000    0.00000000          2/16
   3:     0.12500000    0.37500000    0.00000000          2/16
   4:     0.37500000   -0.37500000    0.00000000          2/16
   5:     0.37500000   -0.12500000    0.00000000          2/16
   6:     0.37500000    0.12500000    0.00000000          2/16
   7:     0.37500000    0.37500000    0.00000000          2/16

Wave functions: Uniform real-space grid
  Kinetic energy operator: 8*3+1=25 point O(h^6) finite-difference Laplacian
  ScaLapack parameters: grid=1x1, blocksize=None
  Wavefunction extrapolation:
    Improved wavefunction reuse through dual PAW basis 

Occupation numbers: Fermi-Dirac:
  width: 0.1000  # eV
 

Eigensolver
   Davidson(niter=2) 

Densities:
  Coarse grid: 40*40*148 grid
  Fine grid: 80*80*296 grid
  Total Charge: 0.000000 

Density mixing:
  Method: separate
  Backend: pulay
  Linear mixing parameter: 0.05
  old densities: 5
  Damping of long wavelength oscillations: 50 

Hamiltonian:
  XC and Coulomb potentials evaluated on a 80*80*296 grid
  Using the BEEF-vdW Exchange-Correlation functional
  Interpolation: tri-quintic (5. degree polynomial)
  Poisson solver: FastPoissonSolver using
    Stencil: 8*3+1=25 point O(h^6) finite-difference Laplacian
    FFT axes: [0, 1]
    FST axes: [2]
 

XC parameters: BEEF-vdW with 2 nearest neighbor stencil

Memory estimate:
  Process memory now: 213.71 MiB
  Calculator: 597.06 MiB
    Density: 56.92 MiB
      Arrays: 9.35 MiB
      Localized functions: 44.03 MiB
      Mixer: 3.54 MiB
    Hamiltonian: 9.00 MiB
      Arrays: 6.12 MiB
      XC: 0.00 MiB
      Poisson: 0.00 MiB
      vbar: 2.88 MiB
    Wavefunctions: 531.14 MiB
      Arrays psit_nG: 250.63 MiB
      Eigensolver: 273.31 MiB
      Projections: 0.71 MiB
      Projectors: 6.48 MiB

Total number of cores used: 40
Parallelization over k-points: 8
Domain decomposition: 1 x 1 x 5

Number of atoms: 37
Number of atomic orbitals: 1057
Number of bands in calculation: 354
Number of valence electrons: 582
Bands to converge: occupied

... initialized

Initializing position-dependent things.

Density initialized from atomic densities
Creating initial wave functions:
  354 bands from LCAO basis set

                                              
                                              
                                              
                                              
                                              
                          O                   
                Ru     Ru    Ru               
           Ru    RRu    RRu    Ru             
                    Ru     Ru    Ru           
             Ru    Ru     Ru                  
              RRu   RRu    RRu                
                                              
               Ru     Ru     Ru               
                 Ru     Ru    Ru              
          Ru    Ru     Ru                     
            Ru    Ru     Ru                   
              Ru    Ru     Ru                 
                                              
                                              
                                              
                                              

Positions:
   0 Ru     0.000000    0.000000    9.999999    ( 0.0000,  0.0000,  0.0000)
   1 Ru     1.355017    0.782320   12.212733    ( 0.0000,  0.0000,  0.0000)
   2 Ru    -0.000000    1.567087   14.455961    ( 0.0000,  0.0000,  0.0000)
   3 Ru     2.710329   -0.000147   16.576449    ( 0.0000,  0.0000,  0.0000)
   4 Ru    -1.355017    2.346959    9.999999    ( 0.0000,  0.0000,  0.0000)
   5 Ru    -0.000000    3.129279   12.212733    ( 0.0000,  0.0000,  0.0000)
   6 Ru    -1.356314    3.910850   14.455644    ( 0.0000,  0.0000,  0.0000)
   7 Ru     1.355037    2.347288   16.576449    ( 0.0000,  0.0000,  0.0000)
   8 Ru    -2.710035    4.693918    9.999999    ( 0.0000,  0.0000,  0.0000)
   9 Ru    -1.355017    5.476238   12.212733    ( 0.0000,  0.0000,  0.0000)
  10 Ru    -2.707915    6.257334   14.455961    ( 0.0000,  0.0000,  0.0000)
  11 Ru    -0.000000    4.693918   16.575086    ( 0.0000,  0.0000,  0.0000)
  12 Ru     2.710035    0.000000    9.999999    ( 0.0000,  0.0000,  0.0000)
  13 Ru     4.065052    0.782320   12.212733    ( 0.0000,  0.0000,  0.0000)
  14 Ru     2.708133    1.563542   14.457333    ( 0.0000,  0.0000,  0.0000)
  15 Ru     5.419776   -0.000147   16.576449    ( 0.0000,  0.0000,  0.0000)
  16 Ru     1.355017    2.346959    9.999999    ( 0.0000,  0.0000,  0.0000)
  17 Ru     2.710035    3.129279   12.212733    ( 0.0000,  0.0000,  0.0000)
  18 Ru     1.356314    3.910850   14.455644    ( 0.0000,  0.0000,  0.0000)
  19 Ru     4.065052    2.346959   16.575797    ( 0.0000,  0.0000,  0.0000)
  20 Ru     0.000000    4.693918    9.999999    ( 0.0000,  0.0000,  0.0000)
  21 Ru     1.355017    5.476238   12.212733    ( 0.0000,  0.0000,  0.0000)
  22 Ru    -0.000000    6.260055   14.455644    ( 0.0000,  0.0000,  0.0000)
  23 Ru     2.709760    4.693737   16.576449    ( 0.0000,  0.0000,  0.0000)
  24 Ru     5.420070    0.000000    9.999999    ( 0.0000,  0.0000,  0.0000)
  25 Ru     6.775087    0.782320   12.212733    ( 0.0000,  0.0000,  0.0000)
  26 Ru     5.421972    1.563542   14.457333    ( 0.0000,  0.0000,  0.0000)
  27 Ru     8.130105    0.000000   16.573376    ( 0.0000,  0.0000,  0.0000)
  28 Ru     4.065052    2.346959    9.999999    ( 0.0000,  0.0000,  0.0000)
  29 Ru     5.420070    3.129279   12.212733    ( 0.0000,  0.0000,  0.0000)
  30 Ru     4.065052    3.913794   14.457333    ( 0.0000,  0.0000,  0.0000)
  31 Ru     6.775068    2.347288   16.576449    ( 0.0000,  0.0000,  0.0000)
  32 Ru     2.710035    4.693918    9.999999    ( 0.0000,  0.0000,  0.0000)
  33 Ru     4.065052    5.476238   12.212733    ( 0.0000,  0.0000,  0.0000)
  34 Ru     2.707915    6.257334   14.455961    ( 0.0000,  0.0000,  0.0000)
  35 Ru     5.420345    4.693737   16.576449    ( 0.0000,  0.0000,  0.0000)
  36 O      4.065052    3.911587   17.358111    ( 0.0000,  0.0000,  0.0000)

Unit cell:
           periodic     x           y           z      points  spacing
  1. axis:    yes    8.130105    0.000000    0.000000    40     0.1760
  2. axis:    yes   -4.065052    7.040877    0.000000    40     0.1760
  3. axis:    no     0.000000    0.000000   26.638201   148     0.1800

  Lengths:   8.130105   8.130105  26.638201
  Angles:   90.000000  90.000000 120.000000

Effective grid spacing dv^(1/3) = 0.1860

     iter     time        total  log10-change:
                         energy  eigst   dens
iter:   1 23:05:47 -5079.974197
iter:   2 23:06:28 -5163.312720  -0.33  -1.29
iter:   3 23:07:09 -5073.869332  -0.95  -1.06
iter:   4 23:07:51 -5069.289044  -1.54  -1.33
iter:   5 23:08:32 -5058.561468  -1.02  -1.39
iter:   6 23:09:13 -5058.015169  -0.89  -1.63
iter:   7 23:09:55 -5057.381528  -1.97  -1.94
iter:   8 23:10:36 -5056.998211  -2.63  -1.97
iter:   9 23:11:17 -5056.964511  -2.49  -2.07
iter:  10 23:11:59 -5057.360656  -2.63  -2.23
iter:  11 23:12:40 -5057.035194  -2.98  -2.19
iter:  12 23:13:21 -5056.934347  -3.09  -2.32
iter:  13 23:14:03 -5056.925577c -3.44  -2.50
iter:  14 23:14:44 -5056.843236c -3.11  -2.54
iter:  15 23:15:25 -5056.828623c -3.03  -2.76
iter:  16 23:16:06 -5056.829561c -3.90  -3.13
iter:  17 23:16:48 -5056.834542c -4.58  -3.18
iter:  18 23:17:29 -5056.830667c -4.64  -3.06
iter:  19 23:18:10 -5056.831406c -5.22  -3.36
iter:  20 23:18:51 -5056.832715c -4.63  -3.46
iter:  21 23:19:33 -5056.832319c -5.56  -3.57
iter:  22 23:20:14 -5056.832226c -6.08  -3.60
iter:  23 23:20:55 -5056.835207c -5.26  -3.62
iter:  24 23:21:36 -5056.831336c -4.92  -3.29
iter:  25 23:22:18 -5056.831448c -6.22  -3.79
iter:  26 23:22:59 -5056.831434c -5.70  -3.81
iter:  27 23:23:40 -5056.831334c -6.43  -4.07c
iter:  28 23:24:21 -5056.831277c -6.85  -4.45c
iter:  29 23:25:02 -5056.831304c -7.59c -4.53c

Converged after 29 iterations.

Dipole moment: (-3.705508, -7.171787, 0.099398) |e|*Ang

Energy contributions relative to reference atoms: (reference = -4438865.351685)

Kinetic:       +665.464408
Potential:     -742.848926
External:        +0.000000
XC:            -4970.854137
Entropy (-ST):   -1.918811
Local:           -7.633243
--------------------------
Free energy:   -5057.790709
Extrapolated:  -5056.831304

Showing only first 2 kpts
 Kpt  Band  Eigenvalues  Occupancy
  0   289     -5.12179    1.19062
  0   290     -5.10106    1.08911
  0   291     -5.08122    0.99013
  0   292     -5.03259    0.75226

  1   289     -5.06471    0.90785
  1   290     -5.02716    0.72692
  1   291     -4.97936    0.52295
  1   292     -4.89563    0.26578


Fermi level: -5.08319

No gap

Forces in eV/Ang:
  0 Ru    0.00000    0.05338    0.69745
  1 Ru   -0.00569    0.00417   -0.78275
  2 Ru    0.00000    0.00706    0.30470
  3 Ru   -0.07605    0.04283    0.07917
  4 Ru    0.03858   -0.01858    0.70668
  5 Ru    0.00000   -0.04196   -0.75261
  6 Ru   -0.01114   -0.03643   -0.08181
  7 Ru   -0.84995   -0.49437   -0.10023
  8 Ru    0.03460    0.01302    0.69032
  9 Ru    0.01748    0.01464   -0.72508
 10 Ru   -0.04682    0.02767   -0.07660
 11 Ru    0.00000   -0.09203    0.08288
 12 Ru    0.02627   -0.00495    0.70181
 13 Ru    0.00000   -0.04542   -0.73818
 14 Ru   -0.03130    0.03627   -0.08044
 15 Ru    0.07605    0.04283    0.07917
 16 Ru   -0.03858   -0.01858    0.70668
 17 Ru    0.05896    0.02184   -0.56323
 18 Ru    0.01114   -0.03643   -0.08181
 19 Ru    0.00000   -5.92019   -2.26612
 20 Ru    0.00000    0.02096    0.71765
 21 Ru   -0.01748    0.01464   -0.72508
 22 Ru    0.00000    0.01947   -0.21595
 23 Ru   -5.14878    2.96433   -2.27070
 24 Ru   -0.02627   -0.00495    0.70181
 25 Ru    0.00569    0.00417   -0.78275
 26 Ru    0.03130    0.03627   -0.08044
 27 Ru    0.00000    0.97491   -0.09480
 28 Ru    0.00000   -0.03819    0.70752
 29 Ru   -0.05896    0.02184   -0.56323
 30 Ru    0.00000    0.00669   -1.42888
 31 Ru    0.84995   -0.49437   -0.10023
 32 Ru   -0.03460    0.01302    0.69032
 33 Ru    0.00000   -0.07883   -0.57220
 34 Ru    0.04682    0.02767   -0.07660
 35 Ru    5.14878    2.96433   -2.27070
 36 O     0.00000   -0.02837    8.63402

      Step     Time          Energy         fmax
BFGS:    0 23:25:23    -5056.831304        8.6341
System changes: positions 

Initializing position-dependent things.

Density initialized from wave functions
                                              
                                              
                                              
                                              
                                              
                          O                   
                Ru     Ru     Ru              
           Ru    RRu    RRu    Ru             
                    Ru     Ru    Ru           
             Ru    Ru     Ru                  
              RRu   RRu    RRu                
                                              
               Ru     Ru     Ru               
                 Ru     Ru    Ru              
          Ru    Ru     Ru                     
            Ru    Ru     Ru                   
              Ru    Ru     Ru                 
                                              
                                              
                                              
                                              

Positions:
   0 Ru     0.000000    0.000000    9.999999    ( 0.0000,  0.0000,  0.0000)
   1 Ru     1.355017    0.782320   12.212733    ( 0.0000,  0.0000,  0.0000)
   2 Ru    -0.000000    1.567188   14.460314    ( 0.0000,  0.0000,  0.0000)
   3 Ru     2.709243    0.000465   16.577580    ( 0.0000,  0.0000,  0.0000)
   4 Ru    -1.355017    2.346959    9.999999    ( 0.0000,  0.0000,  0.0000)
   5 Ru    -0.000000    3.129279   12.212733    ( 0.0000,  0.0000,  0.0000)
   6 Ru    -1.356473    3.910329   14.454475    ( 0.0000,  0.0000,  0.0000)
   7 Ru     1.342895    2.340225   16.575017    ( 0.0000,  0.0000,  0.0000)
   8 Ru    -2.710035    4.693918    9.999999    ( 0.0000,  0.0000,  0.0000)
   9 Ru    -1.355017    5.476238   12.212733    ( 0.0000,  0.0000,  0.0000)
  10 Ru    -2.708584    6.257729   14.454867    ( 0.0000,  0.0000,  0.0000)
  11 Ru    -0.000000    4.692603   16.576270    ( 0.0000,  0.0000,  0.0000)
  12 Ru     2.710035    0.000000    9.999999    ( 0.0000,  0.0000,  0.0000)
  13 Ru     4.065052    0.782320   12.212733    ( 0.0000,  0.0000,  0.0000)
  14 Ru     2.707686    1.564060   14.456184    ( 0.0000,  0.0000,  0.0000)
  15 Ru     5.420862    0.000465   16.577580    ( 0.0000,  0.0000,  0.0000)
  16 Ru     1.355017    2.346959    9.999999    ( 0.0000,  0.0000,  0.0000)
  17 Ru     2.710035    3.129279   12.212733    ( 0.0000,  0.0000,  0.0000)
  18 Ru     1.356473    3.910329   14.454475    ( 0.0000,  0.0000,  0.0000)
  19 Ru     4.065052    2.262385   16.543424    ( 0.0000,  0.0000,  0.0000)
  20 Ru     0.000000    4.693918    9.999999    ( 0.0000,  0.0000,  0.0000)
  21 Ru     1.355017    5.476238   12.212733    ( 0.0000,  0.0000,  0.0000)
  22 Ru    -0.000000    6.260333   14.452558    ( 0.0000,  0.0000,  0.0000)
  23 Ru     2.636206    4.736084   16.544010    ( 0.0000,  0.0000,  0.0000)
  24 Ru     5.420070    0.000000    9.999999    ( 0.0000,  0.0000,  0.0000)
  25 Ru     6.775087    0.782320   12.212733    ( 0.0000,  0.0000,  0.0000)
  26 Ru     5.422419    1.564060   14.456184    ( 0.0000,  0.0000,  0.0000)
  27 Ru     8.130105    0.013927   16.572022    ( 0.0000,  0.0000,  0.0000)
  28 Ru     4.065052    2.346959    9.999999    ( 0.0000,  0.0000,  0.0000)
  29 Ru     5.420070    3.129279   12.212733    ( 0.0000,  0.0000,  0.0000)
  30 Ru     4.065052    3.913890   14.436920    ( 0.0000,  0.0000,  0.0000)
  31 Ru     6.787210    2.340225   16.575017    ( 0.0000,  0.0000,  0.0000)
  32 Ru     2.710035    4.693918    9.999999    ( 0.0000,  0.0000,  0.0000)
  33 Ru     4.065052    5.476238   12.212733    ( 0.0000,  0.0000,  0.0000)
  34 Ru     2.708584    6.257729   14.454867    ( 0.0000,  0.0000,  0.0000)
  35 Ru     5.493899    4.736084   16.544010    ( 0.0000,  0.0000,  0.0000)
  36 O      4.065052    3.911182   17.481454    ( 0.0000,  0.0000,  0.0000)

Unit cell:
           periodic     x           y           z      points  spacing
  1. axis:    yes    8.130105    0.000000    0.000000    40     0.1760
  2. axis:    yes   -4.065052    7.040877    0.000000    40     0.1760
  3. axis:    no     0.000000    0.000000   26.638201   148     0.1800

  Lengths:   8.130105   8.130105  26.638201
  Angles:   90.000000  90.000000 120.000000

Effective grid spacing dv^(1/3) = 0.1860

     iter     time        total  log10-change:
                         energy  eigst   dens
iter:   1 23:27:23 -5069.091714  -0.56
iter:   2 23:28:06 -5149.140837  -0.85  -1.71
iter:   3 23:28:48 -5060.735119  -1.22  -1.13
iter:   4 23:29:30 -5059.043897  -2.07  -2.00
iter:   5 23:30:13 -5059.200239  -2.29  -2.34
iter:   6 23:30:55 -5058.651874  -2.62  -2.23
iter:   7 23:31:37 -5058.593402  -2.90  -2.62
iter:   8 23:32:20 -5058.577041c -3.44  -2.83
iter:   9 23:33:02 -5058.610941c -3.20  -2.96
iter:  10 23:33:44 -5058.561173c -3.47  -2.67
iter:  11 23:34:26 -5058.558117c -3.84  -3.05
iter:  12 23:35:09 -5058.557591c -4.51  -3.25
iter:  13 23:35:51 -5058.556834c -4.43  -3.33
iter:  14 23:36:33 -5058.558535c -4.28  -3.42
iter:  15 23:37:15 -5058.557170c -4.92  -3.48
iter:  16 23:37:58 -5058.558190c -5.49  -3.54
iter:  17 23:38:40 -5058.556950c -5.50  -3.42
iter:  18 23:39:22 -5058.556776c -5.10  -3.74
iter:  19 23:40:05 -5058.557011c -5.37  -3.93
iter:  20 23:40:47 -5058.557090c -5.68  -3.97
iter:  21 23:41:29 -5058.557045c -6.48  -4.12c
iter:  22 23:42:11 -5058.557158c -6.78  -4.33c
iter:  23 23:42:54 -5058.557096c -6.12  -3.97
iter:  24 23:43:36 -5058.556969c -6.88  -4.46c
iter:  25 23:44:18 -5058.557022c -7.76c -4.65c

Converged after 25 iterations.

Dipole moment: (-8.127148, -7.783806, 0.031485) |e|*Ang

Energy contributions relative to reference atoms: (reference = -4438865.351685)

Kinetic:       +639.651994
Potential:     -722.093218
External:        +0.000000
XC:            -4967.852892
Entropy (-ST):   -1.909928
Local:           -7.307942
--------------------------
Free energy:   -5059.511987
Extrapolated:  -5058.557022

Showing only first 2 kpts
 Kpt  Band  Eigenvalues  Occupancy
  0   289     -5.18180    1.16856
  0   290     -5.15899    1.05607
  0   291     -5.13246    0.92365
  0   292     -5.10139    0.77219

  1   289     -5.12683    0.89568
  1   290     -5.09631    0.74826
  1   291     -5.05364    0.56129
  1   292     -4.95582    0.25585


Fermi level: -5.14776

No gap

Forces in eV/Ang:
  0 Ru    0.00000    0.06267    0.70454
  1 Ru   -0.04391    0.02551   -0.92177
  2 Ru    0.00000    0.00931    0.21422
  3 Ru   -0.12417    0.07140    0.07320
  4 Ru    0.04742   -0.02267    0.71040
  5 Ru    0.00000   -0.08562   -0.89544
  6 Ru   -0.06426   -0.05808   -0.12397
  7 Ru   -0.50695   -0.29201   -0.18368
  8 Ru    0.01568    0.00070    0.66977
  9 Ru    0.04310    0.02786   -0.71784
 10 Ru   -0.08837   -0.00749   -0.12034
 11 Ru    0.00000   -0.14321    0.07834
 12 Ru    0.01343    0.00031    0.69150
 13 Ru    0.00000   -0.07444   -0.73026
 14 Ru   -0.02438    0.09357   -0.12334
 15 Ru    0.12417    0.07140    0.07320
 16 Ru   -0.04742   -0.02267    0.71040
 17 Ru    0.02411    0.00371   -0.57505
 18 Ru    0.06426   -0.05808   -0.12397
 19 Ru    0.00000   -1.22588   -0.18585
 20 Ru    0.00000    0.00910    0.71046
 21 Ru   -0.04310    0.02786   -0.71784
 22 Ru    0.00000    0.01526   -0.29126
 23 Ru   -1.06614    0.61688   -0.18911
 24 Ru   -0.01343    0.00031    0.69150
 25 Ru    0.04391    0.02551   -0.92177
 26 Ru    0.02438    0.09357   -0.12334
 27 Ru    0.00000    0.58672   -0.17403
 28 Ru    0.00000   -0.01412    0.68748
 29 Ru   -0.02411    0.00371   -0.57505
 30 Ru    0.00000    0.00245   -0.94557
 31 Ru    0.50695   -0.29201   -0.18368
 32 Ru   -0.01568    0.00070    0.66977
 33 Ru    0.00000   -0.03994   -0.58525
 34 Ru    0.08837   -0.00749   -0.12034
 35 Ru    1.06614    0.61688   -0.18911
 36 O     0.00000    0.00810    2.98583

BFGS:    1 23:44:39    -5058.557022        2.9858
System changes: positions 

Initializing position-dependent things.

Density initialized from wave functions
                                              
                                              
                                              
                                              
                                              
                          O                   
                Ru     Ru     Ru              
           Ru    RRu    RRu    Ru             
                    Ru     Ru    Ru           
             Ru    Ru     Ru                  
               Ru    Ru     Ru                
              Ru    Ru     Ru                 
               Ru     Ru     Ru               
                 Ru     Ru    Ru              
          Ru    Ru     Ru                     
            Ru    Ru     Ru                   
              Ru    Ru     Ru                 
                                              
                                              
                                              
                                              

Positions:
   0 Ru     0.000000    0.000000    9.999999    ( 0.0000,  0.0000,  0.0000)
   1 Ru     1.355017    0.782320   12.212733    ( 0.0000,  0.0000,  0.0000)
   2 Ru    -0.000000    1.567370   14.464543    ( 0.0000,  0.0000,  0.0000)
   3 Ru     2.706821    0.001857   16.579018    ( 0.0000,  0.0000,  0.0000)
   4 Ru    -1.355017    2.346959    9.999999    ( 0.0000,  0.0000,  0.0000)
   5 Ru    -0.000000    3.129279   12.212733    ( 0.0000,  0.0000,  0.0000)
   6 Ru    -1.357718    3.909196   14.452055    ( 0.0000,  0.0000,  0.0000)
   7 Ru     1.332847    2.334436   16.571438    ( 0.0000,  0.0000,  0.0000)
   8 Ru    -2.710035    4.693918    9.999999    ( 0.0000,  0.0000,  0.0000)
   9 Ru    -1.355017    5.476238   12.212733    ( 0.0000,  0.0000,  0.0000)
  10 Ru    -2.710306    6.257593   14.452518    ( 0.0000,  0.0000,  0.0000)
  11 Ru    -0.000000    4.689809   16.577808    ( 0.0000,  0.0000,  0.0000)
  12 Ru     2.710035    0.000000    9.999999    ( 0.0000,  0.0000,  0.0000)
  13 Ru     4.065052    0.782320   12.212733    ( 0.0000,  0.0000,  0.0000)
  14 Ru     2.707206    1.565878   14.453777    ( 0.0000,  0.0000,  0.0000)
  15 Ru     5.423284    0.001857   16.579018    ( 0.0000,  0.0000,  0.0000)
  16 Ru     1.355017    2.346959    9.999999    ( 0.0000,  0.0000,  0.0000)
  17 Ru     2.710035    3.129279   12.212733    ( 0.0000,  0.0000,  0.0000)
  18 Ru     1.357718    3.909196   14.452055    ( 0.0000,  0.0000,  0.0000)
  19 Ru     4.065052    2.236939   16.539159    ( 0.0000,  0.0000,  0.0000)
  20 Ru     0.000000    4.693918    9.999999    ( 0.0000,  0.0000,  0.0000)
  21 Ru     1.355017    5.476238   12.212733    ( 0.0000,  0.0000,  0.0000)
  22 Ru    -0.000000    6.260634   14.446866    ( 0.0000,  0.0000,  0.0000)
  23 Ru     2.614076    4.748885   16.539681    ( 0.0000,  0.0000,  0.0000)
  24 Ru     5.420070    0.000000    9.999999    ( 0.0000,  0.0000,  0.0000)
  25 Ru     6.775087    0.782320   12.212733    ( 0.0000,  0.0000,  0.0000)
  26 Ru     5.422899    1.565878   14.453777    ( 0.0000,  0.0000,  0.0000)
  27 Ru     8.130105    0.025554   16.568631    ( 0.0000,  0.0000,  0.0000)
  28 Ru     4.065052    2.346959    9.999999    ( 0.0000,  0.0000,  0.0000)
  29 Ru     5.420070    3.129279   12.212733    ( 0.0000,  0.0000,  0.0000)
  30 Ru     4.065052    3.913939   14.418225    ( 0.0000,  0.0000,  0.0000)
  31 Ru     6.797258    2.334436   16.571438    ( 0.0000,  0.0000,  0.0000)
  32 Ru     2.710035    4.693918    9.999999    ( 0.0000,  0.0000,  0.0000)
  33 Ru     4.065052    5.476238   12.212733    ( 0.0000,  0.0000,  0.0000)
  34 Ru     2.710306    6.257593   14.452518    ( 0.0000,  0.0000,  0.0000)
  35 Ru     5.516029    4.748885   16.539681    ( 0.0000,  0.0000,  0.0000)
  36 O      4.065052    3.911330   17.541713    ( 0.0000,  0.0000,  0.0000)

Unit cell:
           periodic     x           y           z      points  spacing
  1. axis:    yes    8.130105    0.000000    0.000000    40     0.1760
  2. axis:    yes   -4.065052    7.040877    0.000000    40     0.1760
  3. axis:    no     0.000000    0.000000   26.638201   148     0.1800

  Lengths:   8.130105   8.130105  26.638201
  Angles:   90.000000  90.000000 120.000000

Effective grid spacing dv^(1/3) = 0.1860

     iter     time        total  log10-change:
                         energy  eigst   dens
iter:   1 23:46:37 -5060.804553  -1.50
iter:   2 23:47:19 -5085.334427  -1.48  -2.01
iter:   3 23:48:02 -5059.152589  -1.83  -1.38
iter:   4 23:48:44 -5058.881806  -2.74  -2.34
iter:   5 23:49:26 -5058.836472  -3.25  -2.61
iter:   6 23:50:08 -5058.796944c -3.56  -2.83
iter:   7 23:50:50 -5058.791909c -3.84  -3.17
iter:   8 23:51:32 -5058.796839c -4.18  -3.31
iter:   9 23:52:15 -5058.791918c -4.18  -3.05
iter:  10 23:52:57 -5058.786763c -4.23  -3.16
iter:  11 23:53:39 -5058.786884c -4.79  -3.59
iter:  12 23:54:21 -5058.786303c -5.48  -3.64
iter:  13 23:55:03 -5058.786785c -5.41  -3.68
iter:  14 23:55:45 -5058.786464c -5.23  -3.82
iter:  15 23:56:27 -5058.786443c -5.88  -3.93
iter:  16 23:57:10 -5058.786709c -6.27  -4.09c
iter:  17 23:57:52 -5058.786458c -6.40  -3.82
iter:  18 23:58:34 -5058.786472c -6.42  -4.26c
iter:  19 23:59:16 -5058.786450c -6.24  -4.42c
iter:  20 23:59:58 -5058.786520c -6.61  -4.51c
iter:  21 00:00:40 -5058.786449c -7.22  -4.49c
iter:  22 00:01:23 -5058.786485c -7.67c -4.65c

Converged after 22 iterations.

Dipole moment: (-9.496648, -8.380494, 0.003338) |e|*Ang

Energy contributions relative to reference atoms: (reference = -4438865.351685)

Kinetic:       +634.273242
Potential:     -717.764142
External:        +0.000000
XC:            -4967.078564
Entropy (-ST):   -1.900680
Local:           -7.266682
--------------------------
Free energy:   -5059.736825
Extrapolated:  -5058.786485

Showing only first 2 kpts
 Kpt  Band  Eigenvalues  Occupancy
  0   289     -5.20925    1.17023
  0   290     -5.18379    1.04459
  0   291     -5.15399    0.89600
  0   292     -5.12705    0.76538

  1   289     -5.15203    0.88632
  1   290     -5.12720    0.76608
  1   291     -5.08174    0.56534
  1   292     -4.98331    0.25671


Fermi level: -5.17487

No gap

Forces in eV/Ang:
  0 Ru    0.00000    0.07182    0.70009
  1 Ru   -0.05219    0.03029   -0.97700
  2 Ru    0.00000    0.01067    0.13765
  3 Ru   -0.11842    0.06968    0.01793
  4 Ru    0.05566   -0.02697    0.70519
  5 Ru    0.00000   -0.09516   -0.95170
  6 Ru   -0.07780   -0.03881   -0.10471
  7 Ru   -0.29389   -0.16773   -0.20202
  8 Ru    0.00811   -0.00401    0.65620
  9 Ru    0.05347    0.03348   -0.71105
 10 Ru   -0.07938   -0.03123   -0.10170
 11 Ru    0.00000   -0.13613    0.02130
 12 Ru    0.00394    0.00508    0.69248
 13 Ru    0.00000   -0.08590   -0.72366
 14 Ru   -0.00169    0.09783   -0.10548
 15 Ru    0.11842    0.06968    0.01793
 16 Ru   -0.05566   -0.02697    0.70519
 17 Ru    0.00836   -0.00435   -0.59009
 18 Ru    0.07780   -0.03881   -0.10471
 19 Ru    0.00000   -0.15114    0.31681
 20 Ru    0.00000   -0.00075    0.71213
 21 Ru   -0.05347    0.03348   -0.71105
 22 Ru    0.00000    0.01045   -0.24430
 23 Ru   -0.12545    0.06770    0.30625
 24 Ru   -0.00394    0.00508    0.69248
 25 Ru    0.05219    0.03029   -0.97700
 26 Ru    0.00169    0.09783   -0.10548
 27 Ru    0.00000    0.34105   -0.18670
 28 Ru    0.00000   -0.00463    0.67434
 29 Ru   -0.00836   -0.00435   -0.59009
 30 Ru    0.00000   -0.00898   -0.64006
 31 Ru    0.29389   -0.16773   -0.20202
 32 Ru   -0.00811   -0.00401    0.65620
 33 Ru    0.00000   -0.02194   -0.60089
 34 Ru    0.07938   -0.03123   -0.10170
 35 Ru    0.12545    0.06770    0.30625
 36 O     0.00000   -0.01868    1.51870

BFGS:    2 00:01:45    -5058.786485        1.5188
System changes: positions 

Initializing position-dependent things.

Density initialized from wave functions
                                              
                                              
                                              
                                              
                                              
                          O                   
                Ru     Ru     Ru              
           Ru    RRu    RRu    Ru             
                    Ru     Ru    Ru           
             Ru    Ru     Ru                  
               Ru    Ru     Ru                
              Ru    Ru     Ru                 
               Ru     Ru     Ru               
                 Ru     Ru    Ru              
          Ru    Ru     Ru                     
            Ru    Ru     Ru                   
              Ru    Ru     Ru                 
                                              
                                              
                                              
                                              

Positions:
   0 Ru     0.000000    0.000000    9.999999    ( 0.0000,  0.0000,  0.0000)
   1 Ru     1.355017    0.782320   12.212733    ( 0.0000,  0.0000,  0.0000)
   2 Ru    -0.000000    1.567676   14.469073    ( 0.0000,  0.0000,  0.0000)
   3 Ru     2.703318    0.003909   16.579858    ( 0.0000,  0.0000,  0.0000)
   4 Ru    -1.355017    2.346959    9.999999    ( 0.0000,  0.0000,  0.0000)
   5 Ru    -0.000000    3.129279   12.212733    ( 0.0000,  0.0000,  0.0000)
   6 Ru    -1.359913    3.907954   14.448878    ( 0.0000,  0.0000,  0.0000)
   7 Ru     1.322830    2.328701   16.565621    ( 0.0000,  0.0000,  0.0000)
   8 Ru    -2.710035    4.693918    9.999999    ( 0.0000,  0.0000,  0.0000)
   9 Ru    -1.355017    5.476238   12.212733    ( 0.0000,  0.0000,  0.0000)
  10 Ru    -2.712678    6.256820   14.449435    ( 0.0000,  0.0000,  0.0000)
  11 Ru    -0.000000    4.685778   16.578757    ( 0.0000,  0.0000,  0.0000)
  12 Ru     2.710035    0.000000    9.999999    ( 0.0000,  0.0000,  0.0000)
  13 Ru     4.065052    0.782320   12.212733    ( 0.0000,  0.0000,  0.0000)
  14 Ru     2.707026    1.568714   14.450586    ( 0.0000,  0.0000,  0.0000)
  15 Ru     5.426787    0.003909   16.579858    ( 0.0000,  0.0000,  0.0000)
  16 Ru     1.355017    2.346959    9.999999    ( 0.0000,  0.0000,  0.0000)
  17 Ru     2.710035    3.129279   12.212733    ( 0.0000,  0.0000,  0.0000)
  18 Ru     1.359913    3.907954   14.448878    ( 0.0000,  0.0000,  0.0000)
  19 Ru     4.065052    2.224304   16.544733    ( 0.0000,  0.0000,  0.0000)
  20 Ru     0.000000    4.693918    9.999999    ( 0.0000,  0.0000,  0.0000)
  21 Ru     1.355017    5.476238   12.212733    ( 0.0000,  0.0000,  0.0000)
  22 Ru    -0.000000    6.260971   14.439433    ( 0.0000,  0.0000,  0.0000)
  23 Ru     2.603231    4.755036   16.544984    ( 0.0000,  0.0000,  0.0000)
  24 Ru     5.420070    0.000000    9.999999    ( 0.0000,  0.0000,  0.0000)
  25 Ru     6.775087    0.782320   12.212733    ( 0.0000,  0.0000,  0.0000)
  26 Ru     5.423079    1.568714   14.450586    ( 0.0000,  0.0000,  0.0000)
  27 Ru     8.130105    0.037165   16.563232    ( 0.0000,  0.0000,  0.0000)
  28 Ru     4.065052    2.346959    9.999999    ( 0.0000,  0.0000,  0.0000)
  29 Ru     5.420070    3.129279   12.212733    ( 0.0000,  0.0000,  0.0000)
  30 Ru     4.065052    3.913740   14.397416    ( 0.0000,  0.0000,  0.0000)
  31 Ru     6.807275    2.328701   16.565621    ( 0.0000,  0.0000,  0.0000)
  32 Ru     2.710035    4.693918    9.999999    ( 0.0000,  0.0000,  0.0000)
  33 Ru     4.065052    5.476238   12.212733    ( 0.0000,  0.0000,  0.0000)
  34 Ru     2.712678    6.256820   14.449435    ( 0.0000,  0.0000,  0.0000)
  35 Ru     5.526874    4.755036   16.544984    ( 0.0000,  0.0000,  0.0000)
  36 O      4.065052    3.910912   17.597318    ( 0.0000,  0.0000,  0.0000)

Unit cell:
           periodic     x           y           z      points  spacing
  1. axis:    yes    8.130105    0.000000    0.000000    40     0.1760
  2. axis:    yes   -4.065052    7.040877    0.000000    40     0.1760
  3. axis:    no     0.000000    0.000000   26.638201   148     0.1800

  Lengths:   8.130105   8.130105  26.638201
  Angles:   90.000000  90.000000 120.000000

Effective grid spacing dv^(1/3) = 0.1860

     iter     time        total  log10-change:
                         energy  eigst   dens
iter:   1 00:03:44 -5060.638195  -1.72
iter:   2 00:04:27 -5087.501152  -1.45  -2.00
iter:   3 00:05:09 -5059.013491  -1.84  -1.36
iter:   4 00:05:51 -5058.922177  -2.76  -2.55
iter:   5 00:06:34 -5058.910970c -3.39  -2.77
iter:   6 00:07:16 -5058.884776c -3.87  -2.88
iter:   7 00:07:58 -5058.881916c -4.09  -3.23
iter:   8 00:08:41 -5058.884612c -4.39  -3.36
iter:   9 00:09:23 -5058.880013c -4.47  -3.17
iter:  10 00:10:05 -5058.878595c -4.44  -3.38
iter:  11 00:10:47 -5058.878639c -4.97  -3.71
iter:  12 00:11:30 -5058.878268c -5.57  -3.76
iter:  13 00:12:12 -5058.878783c -5.37  -3.84
iter:  14 00:12:54 -5058.878377c -5.65  -3.91
iter:  15 00:13:36 -5058.878473c -6.34  -4.06c
iter:  16 00:14:18 -5058.878508c -6.57  -4.02c
iter:  17 00:15:01 -5058.878420c -6.61  -3.99
iter:  18 00:15:43 -5058.878452c -6.41  -4.34c
iter:  19 00:16:25 -5058.878424c -6.59  -4.57c
iter:  20 00:17:07 -5058.878486c -6.96  -4.60c
iter:  21 00:17:50 -5058.878432c -7.30  -4.56c
iter:  22 00:18:32 -5058.878449c -7.78c -4.64c

Converged after 22 iterations.

Dipole moment: (-10.271750, -9.043652, -0.019962) |e|*Ang

Energy contributions relative to reference atoms: (reference = -4438865.351685)

Kinetic:       +630.358170
Potential:     -714.592750
External:        +0.000000
XC:            -4966.462762
Entropy (-ST):   -1.891433
Local:           -7.235391
--------------------------
Free energy:   -5059.824166
Extrapolated:  -5058.878449

Showing only first 2 kpts
 Kpt  Band  Eigenvalues  Occupancy
  0   289     -5.23407    1.17465
  0   290     -5.20641    1.03815
  0   291     -5.17476    0.88045
  0   292     -5.14807    0.75177

  1   289     -5.17464    0.87990
  1   290     -5.15581    0.78841
  1   291     -5.10559    0.56507
  1   292     -5.00774    0.25788


Fermi level: -5.19878

No gap

Forces in eV/Ang:
  0 Ru    0.00000    0.08160    0.68519
  1 Ru   -0.05419    0.03166   -1.01370
  2 Ru    0.00000    0.01071    0.02001
  3 Ru   -0.08826    0.05225   -0.02985
  4 Ru    0.06463   -0.03178    0.69011
  5 Ru    0.00000   -0.09800   -0.98889
  6 Ru   -0.08490    0.00175   -0.05361
  7 Ru   -0.09446   -0.05287   -0.16399
  8 Ru    0.00237   -0.00738    0.63693
  9 Ru    0.06236    0.03849   -0.70644
 10 Ru   -0.05087   -0.06081   -0.04988
 11 Ru    0.00000   -0.10016   -0.02711
 12 Ru   -0.00609    0.01059    0.69087
 13 Ru    0.00000   -0.09575   -0.71976
 14 Ru    0.03578    0.08561   -0.05528
 15 Ru    0.08826    0.05225   -0.02985
 16 Ru   -0.06463   -0.03178    0.69011
 17 Ru   -0.00604   -0.01202   -0.61339
 18 Ru    0.08490    0.00175   -0.05361
 19 Ru    0.00000    0.38379    0.50291
 20 Ru    0.00000   -0.01165    0.71031
 21 Ru   -0.06236    0.03849   -0.70644
 22 Ru    0.00000    0.00525   -0.15886
 23 Ru    0.33933   -0.19785    0.50554
 24 Ru    0.00609    0.01059    0.69087
 25 Ru    0.05419    0.03166   -1.01370
 26 Ru   -0.03578    0.08561   -0.05528
 27 Ru    0.00000    0.11017   -0.14436
 28 Ru    0.00000    0.00237    0.65567
 29 Ru    0.00604   -0.01202   -0.61339
 30 Ru    0.00000   -0.01261   -0.32801
 31 Ru    0.09446   -0.05287   -0.16399
 32 Ru   -0.00237   -0.00738    0.63693
 33 Ru    0.00000   -0.00504   -0.62444
 34 Ru    0.05087   -0.06081   -0.04988
 35 Ru   -0.33933   -0.19785    0.50554
 36 O     0.00000    0.00112    0.60838

BFGS:    3 00:18:53    -5058.878449        0.6402
System changes: positions 

Initializing position-dependent things.

Density initialized from wave functions
                                              
                                              
                                              
                                              
                                              
                          O                   
                Ru     Ru     Ru              
           Ru    RRu    RRu    Ru             
                                              
             Ru    RRu    RRu    Ru           
               Ru    Ru     Ru                
              Ru    Ru     Ru                 
               Ru     Ru     Ru               
                 Ru     Ru    Ru              
          Ru    Ru     Ru                     
            Ru    Ru     Ru                   
              Ru    Ru     Ru                 
                                              
                                              
                                              
                                              

Positions:
   0 Ru     0.000000    0.000000    9.999999    ( 0.0000,  0.0000,  0.0000)
   1 Ru     1.355017    0.782320   12.212733    ( 0.0000,  0.0000,  0.0000)
   2 Ru    -0.000000    1.568035   14.471614    ( 0.0000,  0.0000,  0.0000)
   3 Ru     2.699916    0.005910   16.579685    ( 0.0000,  0.0000,  0.0000)
   4 Ru    -1.355017    2.346959    9.999999    ( 0.0000,  0.0000,  0.0000)
   5 Ru    -0.000000    3.129279   12.212733    ( 0.0000,  0.0000,  0.0000)
   6 Ru    -1.362646    3.907432   14.446338    ( 0.0000,  0.0000,  0.0000)
   7 Ru     1.315978    2.324798   16.559653    ( 0.0000,  0.0000,  0.0000)
   8 Ru    -2.710035    4.693918    9.999999    ( 0.0000,  0.0000,  0.0000)
   9 Ru    -1.355017    5.476238   12.212733    ( 0.0000,  0.0000,  0.0000)
  10 Ru    -2.714797    6.255230   14.447017    ( 0.0000,  0.0000,  0.0000)
  11 Ru    -0.000000    4.681891   16.578693    ( 0.0000,  0.0000,  0.0000)
  12 Ru     2.710035    0.000000    9.999999    ( 0.0000,  0.0000,  0.0000)
  13 Ru     4.065052    0.782320   12.212733    ( 0.0000,  0.0000,  0.0000)
  14 Ru     2.707679    1.571752   14.448006    ( 0.0000,  0.0000,  0.0000)
  15 Ru     5.430189    0.005910   16.579685    ( 0.0000,  0.0000,  0.0000)
  16 Ru     1.355017    2.346959    9.999999    ( 0.0000,  0.0000,  0.0000)
  17 Ru     2.710035    3.129279   12.212733    ( 0.0000,  0.0000,  0.0000)
  18 Ru     1.362646    3.907432   14.446338    ( 0.0000,  0.0000,  0.0000)
  19 Ru     4.065052    2.223671   16.556369    ( 0.0000,  0.0000,  0.0000)
  20 Ru     0.000000    4.693918    9.999999    ( 0.0000,  0.0000,  0.0000)
  21 Ru     1.355017    5.476238   12.212733    ( 0.0000,  0.0000,  0.0000)
  22 Ru    -0.000000    6.261239   14.432749    ( 0.0000,  0.0000,  0.0000)
  23 Ru     2.602849    4.755179   16.556579    ( 0.0000,  0.0000,  0.0000)
  24 Ru     5.420070    0.000000    9.999999    ( 0.0000,  0.0000,  0.0000)
  25 Ru     6.775087    0.782320   12.212733    ( 0.0000,  0.0000,  0.0000)
  26 Ru     5.422425    1.571752   14.448006    ( 0.0000,  0.0000,  0.0000)
  27 Ru     8.130105    0.045116   16.557855    ( 0.0000,  0.0000,  0.0000)
  28 Ru     4.065052    2.346959    9.999999    ( 0.0000,  0.0000,  0.0000)
  29 Ru     5.420070    3.129279   12.212733    ( 0.0000,  0.0000,  0.0000)
  30 Ru     4.065052    3.913408   14.380674    ( 0.0000,  0.0000,  0.0000)
  31 Ru     6.814127    2.324798   16.559653    ( 0.0000,  0.0000,  0.0000)
  32 Ru     2.710035    4.693918    9.999999    ( 0.0000,  0.0000,  0.0000)
  33 Ru     4.065052    5.476238   12.212733    ( 0.0000,  0.0000,  0.0000)
  34 Ru     2.714797    6.255230   14.447017    ( 0.0000,  0.0000,  0.0000)
  35 Ru     5.527256    4.755179   16.556579    ( 0.0000,  0.0000,  0.0000)
  36 O      4.065052    3.910809   17.638855    ( 0.0000,  0.0000,  0.0000)

Unit cell:
           periodic     x           y           z      points  spacing
  1. axis:    yes    8.130105    0.000000    0.000000    40     0.1760
  2. axis:    yes   -4.065052    7.040877    0.000000    40     0.1760
  3. axis:    no     0.000000    0.000000   26.638201   148     0.1800

  Lengths:   8.130105   8.130105  26.638201
  Angles:   90.000000  90.000000 120.000000

Effective grid spacing dv^(1/3) = 0.1860

     iter     time        total  log10-change:
                         energy  eigst   dens
iter:   1 00:20:52 -5059.563314  -2.02
iter:   2 00:21:34 -5069.421113  -1.90  -2.21
iter:   3 00:22:16 -5059.018055  -2.26  -1.58
iter:   4 00:22:59 -5058.942569  -3.16  -2.61
iter:   5 00:23:41 -5058.934905c -3.96  -2.93
iter:   6 00:24:24 -5058.927527c -4.32  -3.09
iter:   7 00:25:06 -5058.926300c -4.46  -3.37
iter:   8 00:25:48 -5058.928020c -4.71  -3.49
iter:   9 00:26:30 -5058.926538c -5.02  -3.33
iter:  10 00:27:13 -5058.925163c -4.97  -3.43
iter:  11 00:27:55 -5058.925597c -5.30  -3.78
iter:  12 00:28:37 -5058.925215c -6.01  -3.84
iter:  13 00:29:20 -5058.925285c -6.02  -3.93
iter:  14 00:30:02 -5058.925324c -5.65  -4.08c
iter:  15 00:30:45 -5058.925262c -6.36  -4.05c
iter:  16 00:31:27 -5058.925253c -7.06  -4.23c
iter:  17 00:32:09 -5058.925286c -7.02  -4.29c
iter:  18 00:32:51 -5058.925216c -6.56  -4.47c
iter:  19 00:33:34 -5058.925294c -6.96  -4.62c
iter:  20 00:34:16 -5058.925274c -7.66c -4.76c

Converged after 20 iterations.

Dipole moment: (-10.470313, -9.573747, -0.035403) |e|*Ang

Energy contributions relative to reference atoms: (reference = -4438865.351685)

Kinetic:       +627.641688
Potential:     -712.408005
External:        +0.000000
XC:            -4966.004128
Entropy (-ST):   -1.885388
Local:           -7.212136
--------------------------
Free energy:   -5059.867968
Extrapolated:  -5058.925274

Showing only first 2 kpts
 Kpt  Band  Eigenvalues  Occupancy
  0   289     -5.25064    1.18140
  0   290     -5.22093    1.03488
  0   291     -5.18897    0.87573
  0   292     -5.16043    0.73861

  1   289     -5.18884    0.87507
  1   290     -5.17485    0.80695
  1   291     -5.12070    0.56480
  1   292     -5.02316    0.25843


Fermi level: -5.21395

No gap

Forces in eV/Ang:
  0 Ru    0.00000    0.08913    0.67432
  1 Ru   -0.05235    0.03078   -1.02308
  2 Ru    0.00000    0.00928   -0.07578
  3 Ru   -0.04902    0.02957   -0.06036
  4 Ru    0.07156   -0.03552    0.67929
  5 Ru    0.00000   -0.09657   -0.99811
  6 Ru   -0.07898    0.03992    0.00648
  7 Ru    0.02517    0.01620   -0.10013
  8 Ru   -0.00063   -0.00888    0.62473
  9 Ru    0.06728    0.04155   -0.70087
 10 Ru   -0.01805   -0.07736    0.01092
 11 Ru    0.00000   -0.05379   -0.05608
 12 Ru   -0.01295    0.01466    0.69290
 13 Ru    0.00000   -0.10120   -0.71512
 14 Ru    0.06505    0.06265    0.00350
 15 Ru    0.04902    0.02957   -0.06036
 16 Ru   -0.07156   -0.03552    0.67929
 17 Ru   -0.01273   -0.01576   -0.63045
 18 Ru    0.07898    0.03992    0.00648
 19 Ru    0.00000    0.51162    0.49520
 20 Ru    0.00000   -0.01922    0.71174
 21 Ru   -0.06728    0.04155   -0.70087
 22 Ru    0.00000    0.00181   -0.06614
 23 Ru    0.44532   -0.25882    0.49807
 24 Ru    0.01295    0.01466    0.69290
 25 Ru    0.05235    0.03078   -1.02308
 26 Ru   -0.06505    0.06265    0.00350
 27 Ru    0.00000   -0.02956   -0.08649
 28 Ru    0.00000    0.00585    0.64402
 29 Ru    0.01273   -0.01576   -0.63045
 30 Ru    0.00000    0.00000   -0.11022
 31 Ru   -0.02517    0.01620   -0.10013
 32 Ru    0.00063   -0.00888    0.62473
 33 Ru    0.00000    0.00339   -0.64171
 34 Ru    0.01805   -0.07736    0.01092
 35 Ru   -0.44532   -0.25882    0.49807
 36 O     0.00000    0.02617    0.17538

BFGS:    4 00:34:36    -5058.925274        0.7165
System changes: positions 

Initializing position-dependent things.

Density initialized from wave functions
                                              
                                              
                                              
                                              
                                              
                          O                   
                Ru     Ru     Ru              
           Ru    RRu    RRu     Ru            
                                              
             Ru    RRu    RRu    Ru           
               Ru    Ru     Ru                
              Ru    Ru     Ru                 
               Ru     Ru     Ru               
                 Ru     Ru    Ru              
          Ru    Ru     Ru                     
            Ru    Ru     Ru                   
              Ru    Ru     Ru                 
                                              
                                              
                                              
                                              

Positions:
   0 Ru     0.000000    0.000000    9.999999    ( 0.0000,  0.0000,  0.0000)
   1 Ru     1.355017    0.782320   12.212733    ( 0.0000,  0.0000,  0.0000)
   2 Ru    -0.000000    1.568589   14.472267    ( 0.0000,  0.0000,  0.0000)
   3 Ru     2.695596    0.008467   16.578158    ( 0.0000,  0.0000,  0.0000)
   4 Ru    -1.355017    2.346959    9.999999    ( 0.0000,  0.0000,  0.0000)
   5 Ru    -0.000000    3.129279   12.212733    ( 0.0000,  0.0000,  0.0000)
   6 Ru    -1.367054    3.907915   14.444174    ( 0.0000,  0.0000,  0.0000)
   7 Ru     1.309657    2.321237   16.551795    ( 0.0000,  0.0000,  0.0000)
   8 Ru    -2.710035    4.693918    9.999999    ( 0.0000,  0.0000,  0.0000)
   9 Ru    -1.355017    5.476238   12.212733    ( 0.0000,  0.0000,  0.0000)
  10 Ru    -2.717186    6.251924   14.445077    ( 0.0000,  0.0000,  0.0000)
  11 Ru    -0.000000    4.677010   16.577382    ( 0.0000,  0.0000,  0.0000)
  12 Ru     2.710035    0.000000    9.999999    ( 0.0000,  0.0000,  0.0000)
  13 Ru     4.065052    0.782320   12.212733    ( 0.0000,  0.0000,  0.0000)
  14 Ru     2.709839    1.576055   14.445732    ( 0.0000,  0.0000,  0.0000)
  15 Ru     5.434509    0.008467   16.578158    ( 0.0000,  0.0000,  0.0000)
  16 Ru     1.355017    2.346959    9.999999    ( 0.0000,  0.0000,  0.0000)
  17 Ru     2.710035    3.129279   12.212733    ( 0.0000,  0.0000,  0.0000)
  18 Ru     1.367054    3.907915   14.444174    ( 0.0000,  0.0000,  0.0000)
  19 Ru     4.065052    2.231974   16.577626    ( 0.0000,  0.0000,  0.0000)
  20 Ru     0.000000    4.693918    9.999999    ( 0.0000,  0.0000,  0.0000)
  21 Ru     1.355017    5.476238   12.212733    ( 0.0000,  0.0000,  0.0000)
  22 Ru    -0.000000    6.261545   14.424926    ( 0.0000,  0.0000,  0.0000)
  23 Ru     2.610209    4.750811   16.577832    ( 0.0000,  0.0000,  0.0000)
  24 Ru     5.420070    0.000000    9.999999    ( 0.0000,  0.0000,  0.0000)
  25 Ru     6.775087    0.782320   12.212733    ( 0.0000,  0.0000,  0.0000)
  26 Ru     5.420266    1.576055   14.445732    ( 0.0000,  0.0000,  0.0000)
  27 Ru     8.130105    0.052433   16.550837    ( 0.0000,  0.0000,  0.0000)
  28 Ru     4.065052    2.346959    9.999999    ( 0.0000,  0.0000,  0.0000)
  29 Ru     5.420070    3.129279   12.212733    ( 0.0000,  0.0000,  0.0000)
  30 Ru     4.065052    3.913174   14.361670    ( 0.0000,  0.0000,  0.0000)
  31 Ru     6.820447    2.321237   16.551795    ( 0.0000,  0.0000,  0.0000)
  32 Ru     2.710035    4.693918    9.999999    ( 0.0000,  0.0000,  0.0000)
  33 Ru     4.065052    5.476238   12.212733    ( 0.0000,  0.0000,  0.0000)
  34 Ru     2.717186    6.251924   14.445077    ( 0.0000,  0.0000,  0.0000)
  35 Ru     5.519896    4.750811   16.577832    ( 0.0000,  0.0000,  0.0000)
  36 O      4.065052    3.911410   17.686295    ( 0.0000,  0.0000,  0.0000)

Unit cell:
           periodic     x           y           z      points  spacing
  1. axis:    yes    8.130105    0.000000    0.000000    40     0.1760
  2. axis:    yes   -4.065052    7.040877    0.000000    40     0.1760
  3. axis:    no     0.000000    0.000000   26.638201   148     0.1800

  Lengths:   8.130105   8.130105  26.638201
  Angles:   90.000000  90.000000 120.000000

Effective grid spacing dv^(1/3) = 0.1860

     iter     time        total  log10-change:
                         energy  eigst   dens
iter:   1 00:36:36 -5060.460281  -1.79
iter:   2 00:37:18 -5090.176985  -1.41  -1.99
iter:   3 00:38:00 -5058.971161  -1.86  -1.34
iter:   4 00:38:42 -5058.983961  -2.76  -3.03
iter:   5 00:39:24 -5058.974873c -3.52  -2.94
iter:   6 00:40:06 -5058.975278c -4.04  -3.15
iter:   7 00:40:48 -5058.971305c -4.40  -3.20
iter:   8 00:41:31 -5058.971017c -4.58  -3.43
iter:   9 00:42:13 -5058.971070c -4.84  -3.60
iter:  10 00:42:55 -5058.971028c -5.22  -3.60
iter:  11 00:43:37 -5058.970827c -6.00  -3.71
iter:  12 00:44:19 -5058.970567c -5.53  -3.85
iter:  13 00:45:01 -5058.970940c -5.56  -3.94
iter:  14 00:45:43 -5058.970779c -6.34  -4.00
iter:  15 00:46:25 -5058.970825c -5.76  -4.06c
iter:  16 00:47:07 -5058.970821c -6.77  -4.42c
iter:  17 00:47:49 -5058.970854c -7.09  -4.60c
iter:  18 00:48:31 -5058.970820c -7.27  -4.31c
iter:  19 00:49:13 -5058.970827c -7.64c -4.65c

Converged after 19 iterations.

Dipole moment: (-10.291043, -10.173135, -0.048876) |e|*Ang

Energy contributions relative to reference atoms: (reference = -4438865.351685)

Kinetic:       +624.400702
Potential:     -709.790479
External:        +0.000000
XC:            -4965.445165
Entropy (-ST):   -1.880543
Local:           -7.195613
--------------------------
Free energy:   -5059.911098
Extrapolated:  -5058.970827

Showing only first 2 kpts
 Kpt  Band  Eigenvalues  Occupancy
  0   289     -5.26744    1.19314
  0   290     -5.23428    1.02977
  0   291     -5.20347    0.87635
  0   292     -5.17177    0.72454

  1   289     -5.20166    0.86746
  1   290     -5.19304    0.82536
  1   291     -5.13528    0.56568
  1   292     -5.03757    0.25852


Fermi level: -5.22833

No gap

Forces in eV/Ang:
  0 Ru    0.00000    0.09788    0.65799
  1 Ru   -0.04948    0.02931   -1.01829
  2 Ru    0.00000    0.00615   -0.18162
  3 Ru    0.01322   -0.00591   -0.08557
  4 Ru    0.07963   -0.04003    0.66345
  5 Ru    0.00000   -0.09434   -0.99252
  6 Ru   -0.06216    0.07686    0.08649
  7 Ru    0.13454    0.07974   -0.00770
  8 Ru   -0.00220   -0.00903    0.60801
  9 Ru    0.07252    0.04510   -0.70010
 10 Ru    0.01926   -0.08553    0.09037
 11 Ru    0.00000    0.01941   -0.07829
 12 Ru   -0.01867    0.01836    0.69089
 13 Ru    0.00000   -0.10703   -0.71554
 14 Ru    0.09077    0.03251    0.08058
 15 Ru   -0.01322   -0.00591   -0.08557
 16 Ru   -0.07963   -0.04003    0.66345
 17 Ru   -0.02020   -0.02031   -0.65569
 18 Ru    0.06216    0.07686    0.08649
 19 Ru    0.00000    0.44402    0.34920
 20 Ru    0.00000   -0.02541    0.70883
 21 Ru   -0.07252    0.04510   -0.70010
 22 Ru    0.00000    0.00072    0.05839
 23 Ru    0.38450   -0.21813    0.35225
 24 Ru    0.01867    0.01836    0.69089
 25 Ru    0.04948    0.02931   -1.01829
 26 Ru   -0.09077    0.03251    0.08058
 27 Ru    0.00000   -0.15349   -0.01118
 28 Ru    0.00000    0.00720    0.62810
 29 Ru    0.02020   -0.02031   -0.65569
 30 Ru    0.00000    0.01763    0.11897
 31 Ru   -0.13454    0.07974   -0.00770
 32 Ru    0.00220   -0.00903    0.60801
 33 Ru    0.00000    0.01350   -0.66744
 34 Ru   -0.01926   -0.08553    0.09037
 35 Ru   -0.38450   -0.21813    0.35225
 36 O     0.00000   -0.00536   -0.06361

BFGS:    5 00:49:34    -5058.970827        0.5652
System changes: positions 

Initializing position-dependent things.

Density initialized from wave functions
                                              
                                              
                                              
                                              
                                              
                          O                   
                Ru     Ru     Ru              
           Ru    RRu    RRu     Ru            
                                              
             Ru    RRu    RRu    Ru           
               Ru    Ru     Ru                
              Ru    Ru     Ru                 
               Ru     Ru     Ru               
                 Ru     Ru    Ru              
          Ru    Ru     Ru                     
            Ru    Ru     Ru                   
              Ru    Ru     Ru                 
                                              
                                              
                                              
                                              

Positions:
   0 Ru     0.000000    0.000000    9.999999    ( 0.0000,  0.0000,  0.0000)
   1 Ru     1.355017    0.782320   12.212733    ( 0.0000,  0.0000,  0.0000)
   2 Ru    -0.000000    1.569097   14.468944    ( 0.0000,  0.0000,  0.0000)
   3 Ru     2.692944    0.010080   16.575348    ( 0.0000,  0.0000,  0.0000)
   4 Ru    -1.355017    2.346959    9.999999    ( 0.0000,  0.0000,  0.0000)
   5 Ru    -0.000000    3.129279   12.212733    ( 0.0000,  0.0000,  0.0000)
   6 Ru    -1.371372    3.909834   14.444529    ( 0.0000,  0.0000,  0.0000)
   7 Ru     1.307945    2.320354   16.546263    ( 0.0000,  0.0000,  0.0000)
   8 Ru    -2.710035    4.693918    9.999999    ( 0.0000,  0.0000,  0.0000)
   9 Ru    -1.355017    5.476238   12.212733    ( 0.0000,  0.0000,  0.0000)
  10 Ru    -2.718438    6.247885   14.445664    ( 0.0000,  0.0000,  0.0000)
  11 Ru    -0.000000    4.674109   16.574880    ( 0.0000,  0.0000,  0.0000)
  12 Ru     2.710035    0.000000    9.999999    ( 0.0000,  0.0000,  0.0000)
  13 Ru     4.065052    0.782320   12.212733    ( 0.0000,  0.0000,  0.0000)
  14 Ru     2.713207    1.579701   14.445882    ( 0.0000,  0.0000,  0.0000)
  15 Ru     5.437161    0.010080   16.575348    ( 0.0000,  0.0000,  0.0000)
  16 Ru     1.355017    2.346959    9.999999    ( 0.0000,  0.0000,  0.0000)
  17 Ru     2.710035    3.129279   12.212733    ( 0.0000,  0.0000,  0.0000)
  18 Ru     1.371372    3.909834   14.444529    ( 0.0000,  0.0000,  0.0000)
  19 Ru     4.065052    2.245849   16.599003    ( 0.0000,  0.0000,  0.0000)
  20 Ru     0.000000    4.693918    9.999999    ( 0.0000,  0.0000,  0.0000)
  21 Ru     1.355017    5.476238   12.212733    ( 0.0000,  0.0000,  0.0000)
  22 Ru    -0.000000    6.261784   14.420793    ( 0.0000,  0.0000,  0.0000)
  23 Ru     2.622352    4.743818   16.599268    ( 0.0000,  0.0000,  0.0000)
  24 Ru     5.420070    0.000000    9.999999    ( 0.0000,  0.0000,  0.0000)
  25 Ru     6.775087    0.782320   12.212733    ( 0.0000,  0.0000,  0.0000)
  26 Ru     5.416898    1.579701   14.445882    ( 0.0000,  0.0000,  0.0000)
  27 Ru     8.130105    0.054477   16.545774    ( 0.0000,  0.0000,  0.0000)
  28 Ru     4.065052    2.346959    9.999999    ( 0.0000,  0.0000,  0.0000)
  29 Ru     5.420070    3.129279   12.212733    ( 0.0000,  0.0000,  0.0000)
  30 Ru     4.065052    3.913397   14.350845    ( 0.0000,  0.0000,  0.0000)
  31 Ru     6.822160    2.320354   16.546263    ( 0.0000,  0.0000,  0.0000)
  32 Ru     2.710035    4.693918    9.999999    ( 0.0000,  0.0000,  0.0000)
  33 Ru     4.065052    5.476238   12.212733    ( 0.0000,  0.0000,  0.0000)
  34 Ru     2.718438    6.247885   14.445664    ( 0.0000,  0.0000,  0.0000)
  35 Ru     5.507753    4.743818   16.599268    ( 0.0000,  0.0000,  0.0000)
  36 O      4.065052    3.911489   17.719307    ( 0.0000,  0.0000,  0.0000)

Unit cell:
           periodic     x           y           z      points  spacing
  1. axis:    yes    8.130105    0.000000    0.000000    40     0.1760
  2. axis:    yes   -4.065052    7.040877    0.000000    40     0.1760
  3. axis:    no     0.000000    0.000000   26.638201   148     0.1800

  Lengths:   8.130105   8.130105  26.638201
  Angles:   90.000000  90.000000 120.000000

Effective grid spacing dv^(1/3) = 0.1860

     iter     time        total  log10-change:
                         energy  eigst   dens
iter:   1 00:51:33 -5059.579279  -1.94
iter:   2 00:52:15 -5072.455782  -1.79  -2.19
iter:   3 00:52:57 -5058.996594  -2.24  -1.52
iter:   4 00:53:39 -5059.001767  -3.13  -3.26
iter:   5 00:54:22 -5059.000034c -3.86  -3.16
iter:   6 00:55:04 -5058.999803c -4.37  -3.28
iter:   7 00:55:46 -5058.998511c -4.44  -3.43
iter:   8 00:56:28 -5058.998660c -5.10  -3.72
iter:   9 00:57:10 -5058.998927c -5.73  -3.77
iter:  10 00:57:53 -5058.998534c -5.39  -3.67
iter:  11 00:58:35 -5058.998735c -5.71  -4.00
iter:  12 00:59:17 -5058.998471c -6.10  -3.99
iter:  13 00:59:59 -5058.998684c -6.63  -4.20c
iter:  14 01:00:41 -5058.998616c -6.83  -4.12c
iter:  15 01:01:24 -5058.998977c -6.20  -4.17c
iter:  16 01:02:06 -5058.998603c -6.54  -3.83
iter:  17 01:02:48 -5058.998600c -7.35  -4.54c
iter:  18 01:03:30 -5058.998619c -7.70c -4.71c

Converged after 18 iterations.

Dipole moment: (-9.751484, -10.508746, -0.054861) |e|*Ang

Energy contributions relative to reference atoms: (reference = -4438865.351685)

Kinetic:       +622.380358
Potential:     -708.206913
External:        +0.000000
XC:            -4965.051136
Entropy (-ST):   -1.880661
Local:           -7.180597
--------------------------
Free energy:   -5059.938949
Extrapolated:  -5058.998619

Showing only first 2 kpts
 Kpt  Band  Eigenvalues  Occupancy
  0   289     -5.27647    1.20524
  0   290     -5.23965    1.02408
  0   291     -5.21091    0.88096
  0   292     -5.17704    0.71884

  1   289     -5.20624    0.85799
  1   290     -5.20099    0.83238
  1   291     -5.14205    0.56672
  1   292     -5.04387    0.25805


Fermi level: -5.23483

No gap

Forces in eV/Ang:
  0 Ru    0.00000    0.10318    0.64940
  1 Ru   -0.04675    0.02809   -0.99948
  2 Ru    0.00000    0.00362   -0.20317
  3 Ru    0.06348   -0.03504   -0.08161
  4 Ru    0.08449   -0.04259    0.65564
  5 Ru    0.00000   -0.09172   -0.97257
  6 Ru   -0.03670    0.08083    0.12878
  7 Ru    0.15688    0.09427    0.05342
  8 Ru   -0.00146   -0.00766    0.60065
  9 Ru    0.07437    0.04640   -0.70453
 10 Ru    0.03581   -0.06869    0.12965
 11 Ru    0.00000    0.07839   -0.07345
 12 Ru   -0.01842    0.01872    0.68834
 13 Ru    0.00000   -0.10870   -0.72021
 14 Ru    0.08555    0.01197    0.12097
 15 Ru   -0.06348   -0.03504   -0.08161
 16 Ru   -0.08449   -0.04259    0.65564
 17 Ru   -0.02008   -0.02059   -0.66897
 18 Ru    0.03670    0.08083    0.12878
 19 Ru    0.00000    0.22502    0.13715
 20 Ru    0.00000   -0.02502    0.70559
 21 Ru   -0.07437    0.04640   -0.70453
 22 Ru    0.00000    0.00152    0.13321
 23 Ru    0.18709   -0.09051    0.15359
 24 Ru    0.01842    0.01872    0.68834
 25 Ru    0.04675    0.02809   -0.99948
 26 Ru   -0.08555    0.01197    0.12097
 27 Ru    0.00000   -0.17489    0.04101
 28 Ru    0.00000    0.00588    0.62138
 29 Ru    0.02008   -0.02059   -0.66897
 30 Ru    0.00000    0.02292    0.24345
 31 Ru   -0.15688    0.09427    0.05342
 32 Ru    0.00146   -0.00766    0.60065
 33 Ru    0.00000    0.01479   -0.68164
 34 Ru   -0.03581   -0.06869    0.12965
 35 Ru   -0.18709   -0.09051    0.15359
 36 O     0.00000   -0.02896   -0.01424

BFGS:    6 01:03:50    -5058.998619        0.2635
System changes: positions 

Initializing position-dependent things.

Density initialized from wave functions
                                              
                                              
                                              
                                              
                                              
                          O                   
                Ru     Ru     Ru              
           Ru     Ru    RRu     Ru            
                 Ru                           
             Ru    RRu    RRu    Ru           
               Ru    Ru     Ru                
              Ru    Ru     Ru                 
               Ru     Ru     Ru               
                 Ru     Ru    Ru              
          Ru    Ru     Ru                     
            Ru    Ru     Ru                   
              Ru    Ru     Ru                 
                                              
                                              
                                              
                                              

Positions:
   0 Ru     0.000000    0.000000    9.999999    ( 0.0000,  0.0000,  0.0000)
   1 Ru     1.355017    0.782320   12.212733    ( 0.0000,  0.0000,  0.0000)
   2 Ru    -0.000000    1.569433   14.463250    ( 0.0000,  0.0000,  0.0000)
   3 Ru     2.692867    0.010198   16.572285    ( 0.0000,  0.0000,  0.0000)
   4 Ru    -1.355017    2.346959    9.999999    ( 0.0000,  0.0000,  0.0000)
   5 Ru    -0.000000    3.129279   12.212733    ( 0.0000,  0.0000,  0.0000)
   6 Ru    -1.374320    3.912394   14.447265    ( 0.0000,  0.0000,  0.0000)
   7 Ru     1.310180    2.321779   16.544435    ( 0.0000,  0.0000,  0.0000)
   8 Ru    -2.710035    4.693918    9.999999    ( 0.0000,  0.0000,  0.0000)
   9 Ru    -1.355017    5.476238   12.212733    ( 0.0000,  0.0000,  0.0000)
  10 Ru    -2.718398    6.244462   14.448529    ( 0.0000,  0.0000,  0.0000)
  11 Ru    -0.000000    4.674206   16.572135    ( 0.0000,  0.0000,  0.0000)
  12 Ru     2.710035    0.000000    9.999999    ( 0.0000,  0.0000,  0.0000)
  13 Ru     4.065052    0.782320   12.212733    ( 0.0000,  0.0000,  0.0000)
  14 Ru     2.716615    1.581846   14.448354    ( 0.0000,  0.0000,  0.0000)
  15 Ru     5.437238    0.010198   16.572285    ( 0.0000,  0.0000,  0.0000)
  16 Ru     1.355017    2.346959    9.999999    ( 0.0000,  0.0000,  0.0000)
  17 Ru     2.710035    3.129279   12.212733    ( 0.0000,  0.0000,  0.0000)
  18 Ru     1.374320    3.912394   14.447265    ( 0.0000,  0.0000,  0.0000)
  19 Ru     4.065052    2.257767   16.612840    ( 0.0000,  0.0000,  0.0000)
  20 Ru     0.000000    4.693918    9.999999    ( 0.0000,  0.0000,  0.0000)
  21 Ru     1.355017    5.476238   12.212733    ( 0.0000,  0.0000,  0.0000)
  22 Ru    -0.000000    6.261941   14.421306    ( 0.0000,  0.0000,  0.0000)
  23 Ru     2.632572    4.738312   16.613516    ( 0.0000,  0.0000,  0.0000)
  24 Ru     5.420070    0.000000    9.999999    ( 0.0000,  0.0000,  0.0000)
  25 Ru     6.775087    0.782320   12.212733    ( 0.0000,  0.0000,  0.0000)
  26 Ru     5.413490    1.581846   14.448354    ( 0.0000,  0.0000,  0.0000)
  27 Ru     8.130105    0.052068   16.543955    ( 0.0000,  0.0000,  0.0000)
  28 Ru     4.065052    2.346959    9.999999    ( 0.0000,  0.0000,  0.0000)
  29 Ru     5.420070    3.129279   12.212733    ( 0.0000,  0.0000,  0.0000)
  30 Ru     4.065052    3.913936   14.350202    ( 0.0000,  0.0000,  0.0000)
  31 Ru     6.819925    2.321779   16.544435    ( 0.0000,  0.0000,  0.0000)
  32 Ru     2.710035    4.693918    9.999999    ( 0.0000,  0.0000,  0.0000)
  33 Ru     4.065052    5.476238   12.212733    ( 0.0000,  0.0000,  0.0000)
  34 Ru     2.718398    6.244462   14.448529    ( 0.0000,  0.0000,  0.0000)
  35 Ru     5.497533    4.738312   16.613516    ( 0.0000,  0.0000,  0.0000)
  36 O      4.065052    3.910911   17.735902    ( 0.0000,  0.0000,  0.0000)

Unit cell:
           periodic     x           y           z      points  spacing
  1. axis:    yes    8.130105    0.000000    0.000000    40     0.1760
  2. axis:    yes   -4.065052    7.040877    0.000000    40     0.1760
  3. axis:    no     0.000000    0.000000   26.638201   148     0.1800

  Lengths:   8.130105   8.130105  26.638201
  Angles:   90.000000  90.000000 120.000000

Effective grid spacing dv^(1/3) = 0.1860

     iter     time        total  log10-change:
                         energy  eigst   dens
iter:   1 01:05:49 -5059.059883  -2.27
iter:   2 01:06:32 -5059.539894  -2.94  -2.72
iter:   3 01:07:14 -5059.040010  -3.36  -2.22
iter:   4 01:07:56 -5059.013456  -4.34  -2.82
iter:   5 01:08:38 -5059.010603c -5.23  -3.33
iter:   6 01:09:20 -5059.010256c -5.27  -3.52
iter:   7 01:10:02 -5059.010028c -5.26  -3.61
iter:   8 01:10:44 -5059.009893c -5.35  -3.72
iter:   9 01:11:26 -5059.010649c -5.57  -3.93
iter:  10 01:12:08 -5059.010097c -5.82  -3.62
iter:  11 01:12:50 -5059.009904c -6.55  -3.99
iter:  12 01:13:32 -5059.010055c -6.96  -4.12c
iter:  13 01:14:14 -5059.009999c -6.22  -4.18c
iter:  14 01:14:57 -5059.010048c -6.29  -4.42c
iter:  15 01:15:39 -5059.010026c -7.13  -4.57c
iter:  16 01:16:21 -5059.010035c -7.44c -4.55c

Converged after 16 iterations.

Dipole moment: (-9.204506, -10.528316, -0.053948) |e|*Ang

Energy contributions relative to reference atoms: (reference = -4438865.351685)

Kinetic:       +621.369960
Potential:     -707.429471
External:        +0.000000
XC:            -4964.838504
Entropy (-ST):   -1.884636
Local:           -7.169701
--------------------------
Free energy:   -5059.952353
Extrapolated:  -5059.010035

Showing only first 2 kpts
 Kpt  Band  Eigenvalues  Occupancy
  0   289     -5.27810    1.21351
  0   290     -5.23878    1.02025
  0   291     -5.21194    0.88658
  0   292     -5.17715    0.71981

  1   289     -5.20458    0.85039
  1   290     -5.20083    0.83212
  1   291     -5.14198    0.56686
  1   292     -5.04363    0.25774


Fermi level: -5.23473

No gap

Forces in eV/Ang:
  0 Ru    0.00000    0.10530    0.65102
  1 Ru   -0.04726    0.02837   -0.98024
  2 Ru    0.00000    0.00252   -0.14746
  3 Ru    0.08757   -0.04872   -0.05729
  4 Ru    0.08636   -0.04365    0.65791
  5 Ru    0.00000   -0.09204   -0.95183
  6 Ru   -0.02143    0.06251    0.13139
  7 Ru    0.11603    0.07157    0.06727
  8 Ru    0.00068   -0.00544    0.60309
  9 Ru    0.07396    0.04643   -0.71259
 10 Ru    0.02968   -0.04398    0.12766
 11 Ru    0.00000    0.10784   -0.05118
 12 Ru   -0.01368    0.01633    0.68565
 13 Ru    0.00000   -0.10802   -0.72781
 14 Ru    0.06203    0.00822    0.12331
 15 Ru   -0.08757   -0.04872   -0.05729
 16 Ru   -0.08636   -0.04365    0.65791
 17 Ru   -0.01492   -0.01790   -0.66789
 18 Ru    0.02143    0.06251    0.13139
 19 Ru    0.00000    0.02588   -0.01661
 20 Ru    0.00000   -0.01953    0.70279
 21 Ru   -0.07396    0.04643   -0.71259
 22 Ru    0.00000    0.00256    0.14771
 23 Ru    0.00096    0.02745   -0.01249
 24 Ru    0.01368    0.01633    0.68565
 25 Ru    0.04726    0.02837   -0.98024
 26 Ru   -0.06203    0.00822    0.12331
 27 Ru    0.00000   -0.12399    0.05676
 28 Ru    0.00000    0.00289    0.62443
 29 Ru    0.01492   -0.01790   -0.66789
 30 Ru    0.00000    0.02046    0.26527
 31 Ru   -0.11603    0.07157    0.06727
 32 Ru   -0.00068   -0.00544    0.60309
 33 Ru    0.00000    0.01025   -0.68178
 34 Ru   -0.02968   -0.04398    0.12766
 35 Ru   -0.00096    0.02745   -0.01249
 36 O     0.00000   -0.01643    0.11587

BFGS:    7 01:16:41    -5059.010035        0.2661
System changes: positions 

Initializing position-dependent things.

Density initialized from wave functions
                                              
                                              
                                              
                                              
                                              
                          O                   
                Ru     Ru     Ru              
           Ru     Ru    RRu    Ru             
                 Ru                           
             Ru    RRu    RRu    Ru           
               Ru    Ru     Ru                
              Ru    Ru     Ru                 
               Ru     Ru     Ru               
                 Ru     Ru    Ru              
          Ru    Ru     Ru                     
            Ru    Ru     Ru                   
              Ru    Ru     Ru                 
                                              
                                              
                                              
                                              

Positions:
   0 Ru     0.000000    0.000000    9.999999    ( 0.0000,  0.0000,  0.0000)
   1 Ru     1.355017    0.782320   12.212733    ( 0.0000,  0.0000,  0.0000)
   2 Ru    -0.000000    1.569602   14.457851    ( 0.0000,  0.0000,  0.0000)
   3 Ru     2.694764    0.009168   16.569887    ( 0.0000,  0.0000,  0.0000)
   4 Ru    -1.355017    2.346959    9.999999    ( 0.0000,  0.0000,  0.0000)
   5 Ru    -0.000000    3.129279   12.212733    ( 0.0000,  0.0000,  0.0000)
   6 Ru    -1.375811    3.914707   14.451125    ( 0.0000,  0.0000,  0.0000)
   7 Ru     1.313928    2.324085   16.545325    ( 0.0000,  0.0000,  0.0000)
   8 Ru    -2.710035    4.693918    9.999999    ( 0.0000,  0.0000,  0.0000)
   9 Ru    -1.355017    5.476238   12.212733    ( 0.0000,  0.0000,  0.0000)
  10 Ru    -2.717683    6.242271   14.452358    ( 0.0000,  0.0000,  0.0000)
  11 Ru    -0.000000    4.676606   16.569977    ( 0.0000,  0.0000,  0.0000)
  12 Ru     2.710035    0.000000    9.999999    ( 0.0000,  0.0000,  0.0000)
  13 Ru     4.065052    0.782320   12.212733    ( 0.0000,  0.0000,  0.0000)
  14 Ru     2.719203    1.582727   14.451949    ( 0.0000,  0.0000,  0.0000)
  15 Ru     5.435340    0.009168   16.569887    ( 0.0000,  0.0000,  0.0000)
  16 Ru     1.355017    2.346959    9.999999    ( 0.0000,  0.0000,  0.0000)
  17 Ru     2.710035    3.129279   12.212733    ( 0.0000,  0.0000,  0.0000)
  18 Ru     1.375811    3.914707   14.451125    ( 0.0000,  0.0000,  0.0000)
  19 Ru     4.065052    2.264149   16.617931    ( 0.0000,  0.0000,  0.0000)
  20 Ru     0.000000    4.693918    9.999999    ( 0.0000,  0.0000,  0.0000)
  21 Ru     1.355017    5.476238   12.212733    ( 0.0000,  0.0000,  0.0000)
  22 Ru    -0.000000    6.262037   14.424831    ( 0.0000,  0.0000,  0.0000)
  23 Ru     2.637620    4.736121   16.618839    ( 0.0000,  0.0000,  0.0000)
  24 Ru     5.420070    0.000000    9.999999    ( 0.0000,  0.0000,  0.0000)
  25 Ru     6.775087    0.782320   12.212733    ( 0.0000,  0.0000,  0.0000)
  26 Ru     5.410902    1.582727   14.451949    ( 0.0000,  0.0000,  0.0000)
  27 Ru     8.130105    0.048009   16.544625    ( 0.0000,  0.0000,  0.0000)
  28 Ru     4.065052    2.346959    9.999999    ( 0.0000,  0.0000,  0.0000)
  29 Ru     5.420070    3.129279   12.212733    ( 0.0000,  0.0000,  0.0000)
  30 Ru     4.065052    3.914562   14.356387    ( 0.0000,  0.0000,  0.0000)
  31 Ru     6.816177    2.324085   16.545325    ( 0.0000,  0.0000,  0.0000)
  32 Ru     2.710035    4.693918    9.999999    ( 0.0000,  0.0000,  0.0000)
  33 Ru     4.065052    5.476238   12.212733    ( 0.0000,  0.0000,  0.0000)
  34 Ru     2.717683    6.242271   14.452358    ( 0.0000,  0.0000,  0.0000)
  35 Ru     5.492485    4.736121   16.618839    ( 0.0000,  0.0000,  0.0000)
  36 O      4.065052    3.910386   17.741316    ( 0.0000,  0.0000,  0.0000)

Unit cell:
           periodic     x           y           z      points  spacing
  1. axis:    yes    8.130105    0.000000    0.000000    40     0.1760
  2. axis:    yes   -4.065052    7.040877    0.000000    40     0.1760
  3. axis:    no     0.000000    0.000000   26.638201   148     0.1800

  Lengths:   8.130105   8.130105  26.638201
  Angles:   90.000000  90.000000 120.000000

Effective grid spacing dv^(1/3) = 0.1860

     iter     time        total  log10-change:
                         energy  eigst   dens
iter:   1 01:18:40 -5059.639921  -2.51
iter:   2 01:19:22 -5073.391060  -1.76  -2.18
iter:   3 01:20:04 -5059.031881  -2.22  -1.50
iter:   4 01:20:47 -5059.018993  -3.02  -2.86
iter:   5 01:21:29 -5059.016227c -3.89  -3.32
iter:   6 01:22:11 -5059.015419c -4.55  -3.44
iter:   7 01:22:53 -5059.014814c -4.86  -3.60
iter:   8 01:23:35 -5059.014707c -5.25  -3.83
iter:   9 01:24:17 -5059.014714c -5.70  -3.96
iter:  10 01:24:59 -5059.014670c -5.85  -4.03c
iter:  11 01:25:41 -5059.014671c -6.46  -3.95
iter:  12 01:26:23 -5059.014626c -6.71  -4.22c
iter:  13 01:27:05 -5059.014675c -6.61  -4.36c
iter:  14 01:27:47 -5059.014600c -7.00  -4.53c
iter:  15 01:28:29 -5059.014636c -7.71c -4.64c

Converged after 15 iterations.

Dipole moment: (-8.895146, -10.347333, -0.052851) |e|*Ang

Energy contributions relative to reference atoms: (reference = -4438865.351685)

Kinetic:       +620.743839
Potential:     -706.896445
External:        +0.000000
XC:            -4964.739255
Entropy (-ST):   -1.889639
Local:           -7.177955
--------------------------
Free energy:   -5059.959455
Extrapolated:  -5059.014636

Showing only first 2 kpts
 Kpt  Band  Eigenvalues  Occupancy
  0   289     -5.27650    1.21858
  0   290     -5.23604    1.01989
  0   291     -5.21016    0.89094
  0   292     -5.17540    0.72405

  1   289     -5.20115    0.84666
  1   290     -5.19786    0.83065
  1   291     -5.13911    0.56605
  1   292     -5.04061    0.25694


Fermi level: -5.23206

No gap

Forces in eV/Ang:
  0 Ru    0.00000    0.10386    0.66409
  1 Ru   -0.04568    0.02753   -0.95612
  2 Ru    0.00000    0.00371   -0.04941
  3 Ru    0.08394   -0.04374   -0.02351
  4 Ru    0.08488   -0.04271    0.67142
  5 Ru    0.00000   -0.08962   -0.92695
  6 Ru   -0.00672    0.03566    0.10700
  7 Ru    0.03096    0.02332    0.05091
  8 Ru    0.00308   -0.00319    0.61628
  9 Ru    0.07348    0.04667   -0.71150
 10 Ru    0.01722   -0.01216    0.09834
 11 Ru    0.00000    0.10282   -0.01898
 12 Ru   -0.00666    0.01240    0.68926
 13 Ru    0.00000   -0.10778   -0.72566
 14 Ru    0.02934    0.00721    0.10008
 15 Ru   -0.08394   -0.04374   -0.02351
 16 Ru   -0.08488   -0.04271    0.67142
 17 Ru   -0.00678   -0.01298   -0.64856
 18 Ru    0.00672    0.03566    0.10700
 19 Ru    0.00000   -0.10042   -0.06224
 20 Ru    0.00000   -0.01132    0.70673
 21 Ru   -0.07348    0.04667   -0.71150
 22 Ru    0.00000    0.00459    0.11720
 23 Ru   -0.10443    0.08568   -0.05513
 24 Ru    0.00666    0.01240    0.68926
 25 Ru    0.04568    0.02753   -0.95612
 26 Ru   -0.02934    0.00721    0.10008
 27 Ru    0.00000   -0.02364    0.04834
 28 Ru    0.00000   -0.00007    0.63787
 29 Ru    0.00678   -0.01298   -0.64856
 30 Ru    0.00000    0.01472    0.19499
 31 Ru   -0.03096    0.02332    0.05091
 32 Ru   -0.00308   -0.00319    0.61628
 33 Ru    0.00000    0.00166   -0.66400
 34 Ru   -0.01722   -0.01216    0.09834
 35 Ru    0.10443    0.08568   -0.05513
 36 O     0.00000   -0.00971    0.22236

BFGS:    8 01:28:50    -5059.014636        0.2226
System changes: positions 

Initializing position-dependent things.

Density initialized from wave functions
                                              
                                              
                                              
                                              
                                              
                          O                   
                Ru     Ru     Ru              
           Ru     Ru    RRu    Ru             
                 Ru                           
             Ru    RRu    RRu    Ru           
               Ru    Ru     Ru                
              Ru    Ru     Ru                 
               Ru     Ru     Ru               
                 Ru     Ru    Ru              
          Ru    Ru     Ru                     
            Ru    Ru     Ru                   
              Ru    Ru     Ru                 
                                              
                                              
                                              
                                              

Positions:
   0 Ru     0.000000    0.000000    9.999999    ( 0.0000,  0.0000,  0.0000)
   1 Ru     1.355017    0.782320   12.212733    ( 0.0000,  0.0000,  0.0000)
   2 Ru    -0.000000    1.569831   14.452816    ( 0.0000,  0.0000,  0.0000)
   3 Ru     2.697817    0.007567   16.567546    ( 0.0000,  0.0000,  0.0000)
   4 Ru    -1.355017    2.346959    9.999999    ( 0.0000,  0.0000,  0.0000)
   5 Ru    -0.000000    3.129279   12.212733    ( 0.0000,  0.0000,  0.0000)
   6 Ru    -1.377210    3.917224   14.456229    ( 0.0000,  0.0000,  0.0000)
   7 Ru     1.317160    2.326179   16.546805    ( 0.0000,  0.0000,  0.0000)
   8 Ru    -2.710035    4.693918    9.999999    ( 0.0000,  0.0000,  0.0000)
   9 Ru    -1.355017    5.476238   12.212733    ( 0.0000,  0.0000,  0.0000)
  10 Ru    -2.716848    6.240274   14.457257    ( 0.0000,  0.0000,  0.0000)
  11 Ru    -0.000000    4.680413   16.567923    ( 0.0000,  0.0000,  0.0000)
  12 Ru     2.710035    0.000000    9.999999    ( 0.0000,  0.0000,  0.0000)
  13 Ru     4.065052    0.782320   12.212733    ( 0.0000,  0.0000,  0.0000)
  14 Ru     2.721834    1.583674   14.456704    ( 0.0000,  0.0000,  0.0000)
  15 Ru     5.432287    0.007567   16.567546    ( 0.0000,  0.0000,  0.0000)
  16 Ru     1.355017    2.346959    9.999999    ( 0.0000,  0.0000,  0.0000)
  17 Ru     2.710035    3.129279   12.212733    ( 0.0000,  0.0000,  0.0000)
  18 Ru     1.377210    3.917224   14.456229    ( 0.0000,  0.0000,  0.0000)
  19 Ru     4.065052    2.267426   16.621406    ( 0.0000,  0.0000,  0.0000)
  20 Ru     0.000000    4.693918    9.999999    ( 0.0000,  0.0000,  0.0000)
  21 Ru     1.355017    5.476238   12.212733    ( 0.0000,  0.0000,  0.0000)
  22 Ru    -0.000000    6.262219   14.429697    ( 0.0000,  0.0000,  0.0000)
  23 Ru     2.639774    4.735929   16.622678    ( 0.0000,  0.0000,  0.0000)
  24 Ru     5.420070    0.000000    9.999999    ( 0.0000,  0.0000,  0.0000)
  25 Ru     6.775087    0.782320   12.212733    ( 0.0000,  0.0000,  0.0000)
  26 Ru     5.408271    1.583674   14.456704    ( 0.0000,  0.0000,  0.0000)
  27 Ru     8.130105    0.044736   16.545919    ( 0.0000,  0.0000,  0.0000)
  28 Ru     4.065052    2.346959    9.999999    ( 0.0000,  0.0000,  0.0000)
  29 Ru     5.420070    3.129279   12.212733    ( 0.0000,  0.0000,  0.0000)
  30 Ru     4.065052    3.915343   14.364532    ( 0.0000,  0.0000,  0.0000)
  31 Ru     6.812945    2.326179   16.546805    ( 0.0000,  0.0000,  0.0000)
  32 Ru     2.710035    4.693918    9.999999    ( 0.0000,  0.0000,  0.0000)
[...]
  14 Ru     2.723330    1.584938   14.462464    ( 0.0000,  0.0000,  0.0000)
  15 Ru     5.427490    0.005336   16.567434    ( 0.0000,  0.0000,  0.0000)
  16 Ru     1.355017    2.346959    9.999999    ( 0.0000,  0.0000,  0.0000)
  17 Ru     2.710035    3.129279   12.212733    ( 0.0000,  0.0000,  0.0000)
  18 Ru     1.378013    3.919074   14.462388    ( 0.0000,  0.0000,  0.0000)
  19 Ru     4.065052    2.265784   16.623344    ( 0.0000,  0.0000,  0.0000)
  20 Ru     0.000000    4.693918    9.999999    ( 0.0000,  0.0000,  0.0000)
  21 Ru     1.355017    5.476238   12.212733    ( 0.0000,  0.0000,  0.0000)
  22 Ru    -0.000000    6.262717   14.435300    ( 0.0000,  0.0000,  0.0000)
  23 Ru     2.637409    4.738834   16.625439    ( 0.0000,  0.0000,  0.0000)
  24 Ru     5.420070    0.000000    9.999999    ( 0.0000,  0.0000,  0.0000)
  25 Ru     6.775087    0.782320   12.212733    ( 0.0000,  0.0000,  0.0000)
  26 Ru     5.406775    1.584938   14.462464    ( 0.0000,  0.0000,  0.0000)
  27 Ru     8.130105    0.044731   16.549271    ( 0.0000,  0.0000,  0.0000)
  28 Ru     4.065052    2.346959    9.999999    ( 0.0000,  0.0000,  0.0000)
  29 Ru     5.420070    3.129279   12.212733    ( 0.0000,  0.0000,  0.0000)
  30 Ru     4.065052    3.916154   14.375217    ( 0.0000,  0.0000,  0.0000)
  31 Ru     6.812095    2.327134   16.550175    ( 0.0000,  0.0000,  0.0000)
  32 Ru     2.710035    4.693918    9.999999    ( 0.0000,  0.0000,  0.0000)
  33 Ru     4.065052    5.476238   12.212733    ( 0.0000,  0.0000,  0.0000)
  34 Ru     2.716461    6.239860   14.462675    ( 0.0000,  0.0000,  0.0000)
  35 Ru     5.492696    4.738834   16.625439    ( 0.0000,  0.0000,  0.0000)
  36 O      4.065052    3.909989   17.765189    ( 0.0000,  0.0000,  0.0000)

Unit cell:
           periodic     x           y           z      points  spacing
  1. axis:    yes    8.130105    0.000000    0.000000    40     0.1760
  2. axis:    yes   -4.065052    7.040877    0.000000    40     0.1760
  3. axis:    no     0.000000    0.000000   26.638201   148     0.1800

  Lengths:   8.130105   8.130105  26.638201
  Angles:   90.000000  90.000000 120.000000

Effective grid spacing dv^(1/3) = 0.1860

     iter     time        total  log10-change:
                         energy  eigst   dens
iter:   1 01:57:56 -5059.135287  -3.29
iter:   2 01:58:38 -5061.457261  -2.57  -2.57
iter:   3 01:59:20 -5059.025312  -2.97  -1.88
iter:   4 02:00:02 -5059.021744  -3.81  -3.14
iter:   5 02:00:44 -5059.021110c -4.66  -3.70
iter:   6 02:01:26 -5059.020993c -5.20  -3.89
iter:   7 02:02:09 -5059.021019c -5.70  -4.01c
iter:   8 02:02:51 -5059.021749c -5.99  -4.03c
iter:   9 02:03:33 -5059.020906c -6.02  -3.59
iter:  10 02:04:15 -5059.020963c -6.32  -4.18c
iter:  11 02:04:57 -5059.020850c -6.54  -4.44c
iter:  12 02:05:39 -5059.020879c -7.33  -4.59c
iter:  13 02:06:21 -5059.020868c -7.43c -4.61c

Converged after 13 iterations.

Dipole moment: (-9.031659, -9.953512, -0.059103) |e|*Ang

Energy contributions relative to reference atoms: (reference = -4438865.351685)

Kinetic:       +618.606481
Potential:     -705.144775
External:        +0.000000
XC:            -4964.358872
Entropy (-ST):   -1.898099
Local:           -7.174652
--------------------------
Free energy:   -5059.969917
Extrapolated:  -5059.020868

Showing only first 2 kpts
 Kpt  Band  Eigenvalues  Occupancy
  0   289     -5.28088    1.22250
  0   290     -5.24031    1.02342
  0   291     -5.21561    0.90025
  0   292     -5.18072    0.73218

  1   289     -5.20420    0.84414
  1   290     -5.20156    0.83130
  1   291     -5.14052    0.55733
  1   292     -5.04365    0.25577


Fermi level: -5.23563

No gap

Forces in eV/Ang:
  0 Ru    0.00000    0.10081    0.69001
  1 Ru   -0.04481    0.02818   -0.91613
  2 Ru    0.00000    0.00718    0.07448
  3 Ru    0.00543    0.00644    0.05024
  4 Ru    0.08163   -0.03977    0.69748
  5 Ru    0.00000   -0.08706   -0.88469
  6 Ru    0.01075   -0.02159   -0.00095
  7 Ru   -0.04275   -0.01875    0.02871
  8 Ru    0.00495   -0.00082    0.64236
  9 Ru    0.07023    0.04549   -0.69320
 10 Ru   -0.01654    0.03608   -0.00936
 11 Ru    0.00000    0.01132    0.05097
 12 Ru    0.00521    0.00576    0.69632
 13 Ru    0.00000   -0.10405   -0.70552
 14 Ru   -0.03209    0.01199    0.00066
 15 Ru   -0.00543    0.00644    0.05024
 16 Ru   -0.08163   -0.03977    0.69748
 17 Ru    0.01130   -0.00091   -0.58752
 18 Ru   -0.01075   -0.02159   -0.00095
 19 Ru    0.00000    0.00812    0.04245
 20 Ru    0.00000    0.00249    0.71402
 21 Ru   -0.07023    0.04549   -0.69320
 22 Ru    0.00000    0.00826   -0.02375
 23 Ru   -0.00056    0.00616    0.04937
 24 Ru   -0.00521    0.00576    0.69632
 25 Ru    0.04481    0.02818   -0.91613
 26 Ru    0.03209    0.01199    0.00066
 27 Ru    0.00000    0.05919    0.03113
 28 Ru    0.00000   -0.00193    0.66479
 29 Ru   -0.01130   -0.00091   -0.58752
 30 Ru    0.00000   -0.00155    0.01808
 31 Ru    0.04275   -0.01875    0.02871
 32 Ru   -0.00495   -0.00082    0.64236
 33 Ru    0.00000   -0.01821   -0.60652
 34 Ru    0.01654    0.03608   -0.00936
 35 Ru    0.00056    0.00616    0.04937
 36 O     0.00000    0.02080   -0.00186

BFGS:   11 02:06:41    -5059.020868        0.0748
System changes: positions 

Initializing position-dependent things.

Density initialized from wave functions
                                              
                                              
                                              
                                              
                                              
                          O                   
                Ru     Ru     Ru              
           Ru     Ru    RRu    Ru             
                 Ru                           
             Ru    RRu    RRu    Ru           
               Ru    Ru     Ru                
              Ru    Ru     Ru                 
               Ru     Ru     Ru               
                 Ru     Ru    Ru              
          Ru    Ru     Ru                     
            Ru    Ru     Ru                   
              Ru    Ru     Ru                 
                                              
                                              
                                              
                                              

Positions:
   0 Ru     0.000000    0.000000    9.999999    ( 0.0000,  0.0000,  0.0000)
   1 Ru     1.355017    0.782320   12.212733    ( 0.0000,  0.0000,  0.0000)
   2 Ru    -0.000000    1.570519   14.452588    ( 0.0000,  0.0000,  0.0000)
   3 Ru     2.703252    0.005276   16.568712    ( 0.0000,  0.0000,  0.0000)
   4 Ru    -1.355017    2.346959    9.999999    ( 0.0000,  0.0000,  0.0000)
   5 Ru    -0.000000    3.129279   12.212733    ( 0.0000,  0.0000,  0.0000)
   6 Ru    -1.377980    3.918743   14.463032    ( 0.0000,  0.0000,  0.0000)
   7 Ru     1.316607    2.326531   16.551045    ( 0.0000,  0.0000,  0.0000)
   8 Ru    -2.710035    4.693918    9.999999    ( 0.0000,  0.0000,  0.0000)
   9 Ru    -1.355017    5.476238   12.212733    ( 0.0000,  0.0000,  0.0000)
  10 Ru    -2.716927    6.240636   14.463015    ( 0.0000,  0.0000,  0.0000)
  11 Ru    -0.000000    4.687362   16.569526    ( 0.0000,  0.0000,  0.0000)
  12 Ru     2.710035    0.000000    9.999999    ( 0.0000,  0.0000,  0.0000)
  13 Ru     4.065052    0.782320   12.212733    ( 0.0000,  0.0000,  0.0000)
  14 Ru     2.722756    1.585541   14.463095    ( 0.0000,  0.0000,  0.0000)
  15 Ru     5.426853    0.005276   16.568712    ( 0.0000,  0.0000,  0.0000)
  16 Ru     1.355017    2.346959    9.999999    ( 0.0000,  0.0000,  0.0000)
  17 Ru     2.710035    3.129279   12.212733    ( 0.0000,  0.0000,  0.0000)
  18 Ru     1.377980    3.918743   14.463032    ( 0.0000,  0.0000,  0.0000)
  19 Ru     4.065052    2.265306   16.625054    ( 0.0000,  0.0000,  0.0000)
  20 Ru     0.000000    4.693918    9.999999    ( 0.0000,  0.0000,  0.0000)
  21 Ru     1.355017    5.476238   12.212733    ( 0.0000,  0.0000,  0.0000)
  22 Ru    -0.000000    6.262999   14.435127    ( 0.0000,  0.0000,  0.0000)
  23 Ru     2.636702    4.739577   16.627426    ( 0.0000,  0.0000,  0.0000)
  24 Ru     5.420070    0.000000    9.999999    ( 0.0000,  0.0000,  0.0000)
  25 Ru     6.775087    0.782320   12.212733    ( 0.0000,  0.0000,  0.0000)
  26 Ru     5.407349    1.585541   14.463095    ( 0.0000,  0.0000,  0.0000)
  27 Ru     8.130105    0.046721   16.550237    ( 0.0000,  0.0000,  0.0000)
  28 Ru     4.065052    2.346959    9.999999    ( 0.0000,  0.0000,  0.0000)
  29 Ru     5.420070    3.129279   12.212733    ( 0.0000,  0.0000,  0.0000)
  30 Ru     4.065052    3.916200   14.376132    ( 0.0000,  0.0000,  0.0000)
  31 Ru     6.813498    2.326531   16.551045    ( 0.0000,  0.0000,  0.0000)
  32 Ru     2.710035    4.693918    9.999999    ( 0.0000,  0.0000,  0.0000)
  33 Ru     4.065052    5.476238   12.212733    ( 0.0000,  0.0000,  0.0000)
  34 Ru     2.716927    6.240636   14.463015    ( 0.0000,  0.0000,  0.0000)
  35 Ru     5.493402    4.739577   16.627426    ( 0.0000,  0.0000,  0.0000)
  36 O      4.065052    3.910561   17.769383    ( 0.0000,  0.0000,  0.0000)

Unit cell:
           periodic     x           y           z      points  spacing
  1. axis:    yes    8.130105    0.000000    0.000000    40     0.1760
  2. axis:    yes   -4.065052    7.040877    0.000000    40     0.1760
  3. axis:    no     0.000000    0.000000   26.638201   148     0.1800

  Lengths:   8.130105   8.130105  26.638201
  Angles:   90.000000  90.000000 120.000000

Effective grid spacing dv^(1/3) = 0.1860

     iter     time        total  log10-change:
                         energy  eigst   dens
iter:   1 02:08:40 -5059.036056  -3.58
iter:   2 02:09:22 -5059.088001  -3.83  -3.12
iter:   3 02:10:04 -5059.038483c -4.08  -2.66
iter:   4 02:10:46 -5059.022705c -4.89  -2.96
iter:   5 02:11:28 -5059.022002c -6.03  -3.71
iter:   6 02:12:11 -5059.021932c -5.75  -4.02c
iter:   7 02:12:53 -5059.021942c -5.99  -4.22c
iter:   8 02:13:35 -5059.021900c -6.51  -4.34c
iter:   9 02:14:17 -5059.021978c -6.73  -4.43c
iter:  10 02:14:59 -5059.021945c -6.99  -4.17c
iter:  11 02:15:41 -5059.021870c -7.05  -4.47c
iter:  12 02:16:23 -5059.021910c -7.58c -4.69c

Converged after 12 iterations.

Dipole moment: (-9.139522, -9.998613, -0.060452) |e|*Ang

Energy contributions relative to reference atoms: (reference = -4438865.351685)

Kinetic:       +617.969237
Potential:     -704.634241
External:        +0.000000
XC:            -4964.243634
Entropy (-ST):   -1.897882
Local:           -7.164332
--------------------------
Free energy:   -5059.970852
Extrapolated:  -5059.021910

Showing only first 2 kpts
 Kpt  Band  Eigenvalues  Occupancy
  0   289     -5.28187    1.22107
  0   290     -5.24185    1.02466
  0   291     -5.21702    0.90085
  0   292     -5.18192    0.73174

  1   289     -5.20544    0.84394
  1   290     -5.20291    0.83159
  1   291     -5.14128    0.55524
  1   292     -5.04514    0.25624


Fermi level: -5.23691

No gap

Forces in eV/Ang:
  0 Ru    0.00000    0.10067    0.68886
  1 Ru   -0.04436    0.02832   -0.91415
  2 Ru    0.00000    0.00721    0.04564
  3 Ru    0.00618    0.00473    0.03186
  4 Ru    0.08145   -0.03917    0.69612
  5 Ru    0.00000   -0.08646   -0.88281
  6 Ru    0.00616   -0.00624    0.00735
  7 Ru   -0.00904    0.00052    0.02633
  8 Ru    0.00376   -0.00163    0.64049
  9 Ru    0.06983    0.04520   -0.68895
 10 Ru   -0.00615    0.02075    0.00203
 11 Ru    0.00000    0.01232    0.03144
 12 Ru    0.00396    0.00668    0.69729
 13 Ru    0.00000   -0.10337   -0.70160
 14 Ru   -0.01726    0.00778    0.00882
 15 Ru   -0.00618    0.00473    0.03186
 16 Ru   -0.08145   -0.03917    0.69612
 17 Ru    0.01024   -0.00095   -0.58459
 18 Ru   -0.00616   -0.00624    0.00735
 19 Ru    0.00000    0.03263    0.03528
 20 Ru    0.00000    0.00085    0.71464
 21 Ru   -0.06983    0.04520   -0.68895
 22 Ru    0.00000    0.00689   -0.00606
 23 Ru    0.01813   -0.00453    0.03765
 24 Ru   -0.00396    0.00668    0.69729
 25 Ru    0.04436    0.02832   -0.91415
 26 Ru    0.01726    0.00778    0.00882
 27 Ru    0.00000    0.01831    0.02520
 28 Ru    0.00000   -0.00017    0.66316
 29 Ru   -0.01024   -0.00095   -0.58459
 30 Ru    0.00000    0.00106    0.02843
 31 Ru    0.00904    0.00052    0.02633
 32 Ru   -0.00376   -0.00163    0.64049
 33 Ru    0.00000   -0.01693   -0.60358
 34 Ru    0.00615    0.02075    0.00203
 35 Ru   -0.01813   -0.00453    0.03765
 36 O     0.00000    0.02161   -0.03606

BFGS:   12 02:16:44    -5059.021910        0.0481
Timing:                                      incl.     excl.
-------------------------------------------------------------------
Density initialized from wave functions:    10.444     9.991   0.1% |
 Symmetrize density:                         0.453     0.453   0.0% |
Forces:                                    266.352   266.352   2.3% ||
Hamiltonian:                                48.760     0.002   0.0% |
 Atomic:                                     0.003     0.003   0.0% |
  XC Correction:                             0.000     0.000   0.0% |
 Calculate atomic Hamiltonians:              0.004     0.004   0.0% |
 Communicate:                                2.955     2.955   0.0% |
 Hartree integrate/restrict:                 0.130     0.130   0.0% |
 Initialize Hamiltonian:                     0.001     0.001   0.0% |
 Poisson:                                    2.358     0.089   0.0% |
  Communicate from 1D:                       0.188     0.188   0.0% |
  Communicate from 2D:                       0.401     0.401   0.0% |
  Communicate to 1D:                         0.108     0.108   0.0% |
  Communicate to 2D:                         0.412     0.412   0.0% |
  FFT 1D:                                    0.601     0.601   0.0% |
  FFT 2D:                                    0.560     0.560   0.0% |
 XC 3D grid:                                43.162    10.099   0.1% |
  VdW-DF integral:                          33.063     1.665   0.0% |
   Convolution:                              2.724     2.724   0.0% |
   FFT:                                      1.992     1.992   0.0% |
   gather:                                   9.851     9.851   0.1% |
   hmm1:                                     0.502     0.502   0.0% |
   hmm2:                                     1.128     1.128   0.0% |
   iFFT:                                     1.904     1.904   0.0% |
   potential:                                8.923     0.199   0.0% |
    collect:                                 0.606     0.606   0.0% |
    p1:                                      5.361     5.361   0.0% |
    p2:                                      1.776     1.776   0.0% |
    sum:                                     0.980     0.980   0.0% |
   splines:                                  4.374     4.374   0.0% |
 vbar:                                       0.144     0.144   0.0% |
LCAO initialization:                        77.177     1.224   0.0% |
 LCAO eigensolver:                          63.221     0.005   0.0% |
  Calculate projections:                     0.000     0.000   0.0% |
  DenseAtomicCorrection:                     0.000     0.000   0.0% |
  Distribute overlap matrix:                62.072    62.072   0.5% |
  Orbital Layouts:                           0.900     0.900   0.0% |
  Potential matrix:                          0.073     0.073   0.0% |
  Sum over cells:                            0.171     0.171   0.0% |
 LCAO to grid:                              10.330    10.330   0.1% |
 Set positions (LCAO WFS):                   2.402     1.545   0.0% |
  Basic WFS set positions:                   0.002     0.002   0.0% |
  Basis functions set positions:             0.000     0.000   0.0% |
  P tci:                                     0.001     0.001   0.0% |
  ST tci:                                    0.733     0.733   0.0% |
  mktci:                                     0.120     0.120   0.0% |
Redistribute:                                0.008     0.008   0.0% |
SCF-cycle:                               10344.524   110.191   1.0% |
 Davidson:                                9343.894  2923.483  25.2% |---------|
  Apply hamiltonian:                       207.118   207.118   1.8% ||
  Subspace diag:                           920.580     0.030   0.0% |
   calc_h_matrix:                          447.576   258.184   2.2% ||
    Apply hamiltonian:                     189.392   189.392   1.6% ||
   diagonalize:                             23.347    23.347   0.2% |
   rotate_psi:                             449.627   449.627   3.9% |-|
  calc. matrices:                         4297.806  1707.895  14.7% |-----|
   Apply hamiltonian:                     2589.911  2589.911  22.3% |--------|
  diagonalize:                             136.380   136.380   1.2% |
  rotate_psi:                              858.526   858.526   7.4% |--|
 Density:                                   24.031     0.006   0.0% |
  Atomic density matrices:                   1.362     1.362   0.0% |
  Mix:                                       4.155     4.155   0.0% |
  Multipole moments:                         0.107     0.107   0.0% |
  Pseudo density:                           18.402    11.544   0.1% |
   Symmetrize density:                       6.859     6.859   0.1% |
 Hamiltonian:                              786.743     0.032   0.0% |
  Atomic:                                    0.060     0.060   0.0% |
   XC Correction:                            0.001     0.001   0.0% |
  Calculate atomic Hamiltonians:             0.077     0.077   0.0% |
  Communicate:                              52.090    52.090   0.4% |
  Hartree integrate/restrict:                2.330     2.330   0.0% |
  Poisson:                                  42.055     1.544   0.0% |
   Communicate from 1D:                      3.313     3.313   0.0% |
   Communicate from 2D:                      7.104     7.104   0.1% |
   Communicate to 1D:                        1.922     1.922   0.0% |
   Communicate to 2D:                        7.381     7.381   0.1% |
   FFT 1D:                                  10.780    10.780   0.1% |
   FFT 2D:                                  10.011    10.011   0.1% |
  XC 3D grid:                              689.768   182.408   1.6% ||
   VdW-DF integral:                        507.360    29.951   0.3% |
    Convolution:                            48.660    48.660   0.4% |
    FFT:                                    35.970    35.970   0.3% |
    gather:                                170.126   170.126   1.5% ||
    hmm1:                                    8.982     8.982   0.1% |
    hmm2:                                   20.043    20.043   0.2% |
    iFFT:                                   34.111    34.111   0.3% |
    potential:                             159.517     3.567   0.0% |
     collect:                               10.685    10.685   0.1% |
     p1:                                    96.082    96.082   0.8% |
     p2:                                    31.829    31.829   0.3% |
     sum:                                   17.354    17.354   0.1% |
    splines:                                 0.001     0.001   0.0% |
  vbar:                                      0.331     0.331   0.0% |
 Orthonormalize:                            79.664     0.003   0.0% |
  calc_s_matrix:                             5.821     5.821   0.1% |
  inverse-cholesky:                         62.264    62.264   0.5% |
  projections:                               0.001     0.001   0.0% |
  rotate_psi_s:                             11.575    11.575   0.1% |
Set symmetry:                                0.002     0.002   0.0% |
Other:                                     845.492   845.492   7.3% |--|
-------------------------------------------------------------------
Total:                                             11592.760 100.0%

Memory usage: 1.65 GiB
Date: Thu Sep 28 02:16:44 2023
