
  ___ ___ ___ _ _ _  
 |   |   |_  | | | | 
 | | | | | . | | | | 
 |__ |  _|___|_____|  22.8.0
 |___|_|             

User:   s204775@c034.nifl.fysik.dtu.dk
Date:   Wed Sep 27 23:06:48 2023
Arch:   x86_64
Pid:    23647
CWD:    /home/cat/s204775/projects/Bachelor_project/O_missing_features
Python: 3.10.4
gpaw:   /home/modules/software/GPAW/22.8.0-intel-2022a/lib/python3.10/site-packages/gpaw
_gpaw:  /home/modules/software/GPAW/22.8.0-intel-2022a/lib/python3.10/site-packages/
        _gpaw.cpython-310-x86_64-linux-gnu.so
ase:    /home/modules/software/ASE/3.22.1-intel-2022a/lib/python3.10/site-packages/ase (version 3.22.1)
numpy:  /home/modules/software/SciPy-bundle/2022.05-intel-2022a/lib/python3.10/site-packages/numpy (version 1.22.3)
scipy:  /home/modules/software/SciPy-bundle/2022.05-intel-2022a/lib/python3.10/site-packages/scipy (version 1.8.1)
libxc:  5.2.3
units:  Angstrom and eV
cores: 40
OpenMP: False
OMP_NUM_THREADS: 1

Input parameters:
  basis: dzp
  h: 0.18
  kpts: {size: (4, 4, 1)}
  xc: BEEF-vdW

System changes: positions, numbers, cell, pbc, initial_charges, initial_magmoms 

Initialize ...

species:
  Sn:
    name: Tin
    id: d1329c6b410f1e0bd923643368775dcd
    Z: 50.0
    valence: 14
    core: 36
    charge: 0.0
    file: /home/modules/software/GPAW-setups/0.9.20000/Sn.PBE.gz
    compensation charges: {type: gauss,
                           rc: 0.38,
                           lmax: 2}
    cutoffs: {filter: 2.23,
              core: 2.35}
    valence states:
      #              energy  rcut
      - 5s(2.00)   -10.538   1.201
      - 5p(2.00)    -3.696   1.270
      - 4d(10.00)   -25.845   1.185
      -  s          16.674   1.201
      -  p          23.515   1.270
      -  d           1.367   1.185
  
    # LCAO basis set for Sn:
    #   Name: dzp
    #   File: /home/modules/software/GPAW-setups/0.9.20000/Sn.dzp.basis.gz
    #   Number of radial functions: 7
    #   Number of spherical harmonics: 23
    #     l=0, rc=7.1250 Bohr: 5s-sz confined orbital
    #     l=1, rc=9.5469 Bohr: 5p-sz confined orbital
    #     l=2, rc=4.0625 Bohr: 4d-sz confined orbital
    #     l=0, rc=4.1250 Bohr: 5s-dz split-valence wave
    #     l=1, rc=5.6719 Bohr: 5p-dz split-valence wave
    #     l=2, rc=2.5938 Bohr: 4d-dz split-valence wave
    #     l=2, rc=9.5469 Bohr: d-type Gaussian polarization
    #   Number of RI-basis functions 0

  O:
    name: Oxygen
    id: 32ecd46bf208036f09c70b0ec9a88b78
    Z: 8.0
    valence: 6
    core: 2
    charge: 0.0
    file: /home/modules/software/GPAW-setups/0.9.20000/O.PBE.gz
    compensation charges: {type: gauss,
                           rc: 0.21,
                           lmax: 2}
    cutoffs: {filter: 1.17,
              core: 0.83}
    valence states:
      #              energy  rcut
      - 2s(2.00)   -23.961   0.688
      - 2p(4.00)    -9.029   0.598
      -  s           3.251   0.688
      -  p          18.182   0.598
      -  d           0.000   0.619
  
    # LCAO basis set for O:
    #   Name: dzp
    #   File: /home/modules/software/GPAW-setups/0.9.20000/O.dzp.basis.gz
    #   Number of radial functions: 5
    #   Number of spherical harmonics: 13
    #     l=0, rc=4.3438 Bohr: 2s-sz confined orbital
    #     l=1, rc=5.3906 Bohr: 2p-sz confined orbital
    #     l=0, rc=2.2969 Bohr: 2s-dz split-valence wave
    #     l=1, rc=2.8906 Bohr: 2p-dz split-valence wave
    #     l=2, rc=5.3906 Bohr: d-type Gaussian polarization
    #   Number of RI-basis functions 0

Reference energy: -6050425.811357  # eV

Spin-paired calculation

Convergence criteria:
 Maximum [total energy] change in last 3 cyles: 0.0005 eV / electron
 Maximum integral of absolute [dens]ity change: 0.0001 electrons / valence electron
 Maximum integral of absolute [eigenst]ate change: 4e-08 eV^2 / valence electron
 Maximum number of scf [iter]ations: 333
 (Square brackets indicate name in SCF output, whereas a 'c' in
 the SCF output indicates the quantity has converged.)

Symmetries present (total): 2

  ( 1  0  0)  ( 0 -1  0)
  ( 0  1  0)  (-1  0  0)
  ( 0  0  1)  ( 0  0  1)

16 k-points: 4 x 4 x 1 Monkhorst-Pack grid
6 k-points in the irreducible part of the Brillouin zone
       k-points in crystal coordinates                weights
   0:     0.12500000   -0.12500000    0.00000000          2/16
   1:     0.12500000    0.12500000    0.00000000          2/16
   2:     0.37500000   -0.37500000    0.00000000          2/16
   3:     0.37500000   -0.12500000    0.00000000          4/16
   4:     0.37500000    0.12500000    0.00000000          4/16
   5:     0.37500000    0.37500000    0.00000000          2/16

Wave functions: Uniform real-space grid
  Kinetic energy operator: 8*3+1=25 point O(h^6) finite-difference Laplacian
  ScaLapack parameters: grid=1x1, blocksize=None
  Wavefunction extrapolation:
    Improved wavefunction reuse through dual PAW basis 

Occupation numbers: Fermi-Dirac:
  width: 0.1000  # eV
 

Eigensolver
   Davidson(niter=2) 

Densities:
  Coarse grid: 48*48*156 grid
  Fine grid: 96*96*312 grid
  Total Charge: 0.000000 

Density mixing:
  Method: separate
  Backend: pulay
  Linear mixing parameter: 0.05
  old densities: 5
  Damping of long wavelength oscillations: 50 

Hamiltonian:
  XC and Coulomb potentials evaluated on a 96*96*312 grid
  Using the BEEF-vdW Exchange-Correlation functional
  Interpolation: tri-quintic (5. degree polynomial)
  Poisson solver: FastPoissonSolver using
    Stencil: 8*3+1=25 point O(h^6) finite-difference Laplacian
    FFT axes: [0, 1]
    FST axes: [2]
 

XC parameters: BEEF-vdW with 2 nearest neighbor stencil

Memory estimate:
  Process memory now: 189.42 MiB
  Calculator: 373.46 MiB
    Density: 14.47 MiB
      Arrays: 3.54 MiB
      Localized functions: 9.57 MiB
      Mixer: 1.36 MiB
    Hamiltonian: 3.03 MiB
      Arrays: 2.32 MiB
      XC: 0.00 MiB
      Poisson: 0.00 MiB
      vbar: 0.71 MiB
    Wavefunctions: 355.96 MiB
      Arrays psit_nG: 253.39 MiB
      Eigensolver: 100.50 MiB
      Projections: 0.47 MiB
      Projectors: 1.60 MiB

Total number of cores used: 40
Parallelization over k-points: 2
Domain decomposition: 2 x 2 x 5

Number of atoms: 37
Number of atomic orbitals: 841
Number of bands in calculation: 310
Number of valence electrons: 510
Bands to converge: occupied

... initialized

Initializing position-dependent things.

Density initialized from atomic densities
Creating initial wave functions:
  310 bands from LCAO basis set

                                                  
                                                  
                                                  
                                                  
                                                  
                      O                           
           Sn      Sn      Sn                     
                                                  
            SSn     SSn     SnSn                  
               Sn       Sn      Sn                
              Sn      Sn       Sn                 
                 Sn      Sn      Sn               
               Sn       Sn      Sn                
                                                  
                  Sn      Sn      Sn              
                                                  
           Sn      SSn     SnSn      Sn           
                                                  
             Sn      Sn       Sn                  
               Sn       Sn      Sn                
                                                  
                                                  
                                                  
                                                  

Positions:
   0 Sn    -0.000000    0.000000   10.000000    ( 0.0000,  0.0000,  0.0000)
   1 Sn     1.710646    0.987642   12.793473    ( 0.0000,  0.0000,  0.0000)
   2 Sn     0.000000    1.975283   15.709250    ( 0.0000,  0.0000,  0.0000)
   3 Sn     0.000000    0.000000   18.391826    ( 0.0000,  0.0000,  0.0000)
   4 Sn    -1.710646    2.962925   10.000000    ( 0.0000,  0.0000,  0.0000)
   5 Sn    -0.000000    3.950567   12.793473    ( 0.0000,  0.0000,  0.0000)
   6 Sn    -1.710645    4.938209   15.709250    ( 0.0000,  0.0000,  0.0000)
   7 Sn    -1.710646    2.962925   18.391826    ( 0.0000,  0.0000,  0.0000)
   8 Sn    -3.421291    5.925850   10.000000    ( 0.0000,  0.0000,  0.0000)
   9 Sn    -1.710646    6.913492   12.793473    ( 0.0000,  0.0000,  0.0000)
  10 Sn    -3.421292    7.901134   15.709250    ( 0.0000,  0.0000,  0.0000)
  11 Sn    -3.421291    5.925850   18.391826    ( 0.0000,  0.0000,  0.0000)
  12 Sn     3.421291    0.000000   10.000000    ( 0.0000,  0.0000,  0.0000)
  13 Sn     5.131937    0.987642   12.793473    ( 0.0000,  0.0000,  0.0000)
  14 Sn     3.421292    1.975284   15.709250    ( 0.0000,  0.0000,  0.0000)
  15 Sn     3.421291    0.000000   18.391826    ( 0.0000,  0.0000,  0.0000)
  16 Sn     1.710646    2.962925   10.000000    ( 0.0000,  0.0000,  0.0000)
  17 Sn     3.421291    3.950567   12.793473    ( 0.0000,  0.0000,  0.0000)
  18 Sn     1.710645    4.938209   15.709250    ( 0.0000,  0.0000,  0.0000)
  19 Sn     1.710646    2.962925   18.391826    ( 0.0000,  0.0000,  0.0000)
  20 Sn    -0.000000    5.925850   10.000000    ( 0.0000,  0.0000,  0.0000)
  21 Sn     1.710646    6.913492   12.793473    ( 0.0000,  0.0000,  0.0000)
  22 Sn    -0.000000    7.901133   15.709250    ( 0.0000,  0.0000,  0.0000)
  23 Sn     0.000000    5.925850   18.391826    ( 0.0000,  0.0000,  0.0000)
  24 Sn     6.842582    0.000000   10.000000    ( 0.0000,  0.0000,  0.0000)
  25 Sn     8.553228    0.987642   12.793473    ( 0.0000,  0.0000,  0.0000)
  26 Sn     6.842582    1.975284   15.709250    ( 0.0000,  0.0000,  0.0000)
  27 Sn     6.842582    0.000000   18.391826    ( 0.0000,  0.0000,  0.0000)
  28 Sn     5.131937    2.962925   10.000000    ( 0.0000,  0.0000,  0.0000)
  29 Sn     6.842582    3.950567   12.793473    ( 0.0000,  0.0000,  0.0000)
  30 Sn     5.131937    4.938208   15.709250    ( 0.0000,  0.0000,  0.0000)
  31 Sn     5.131937    2.962925   18.391826    ( 0.0000,  0.0000,  0.0000)
  32 Sn     3.421291    5.925850   10.000000    ( 0.0000,  0.0000,  0.0000)
  33 Sn     5.131937    6.913492   12.793473    ( 0.0000,  0.0000,  0.0000)
  34 Sn     3.421292    7.901134   15.709250    ( 0.0000,  0.0000,  0.0000)
  35 Sn     3.421291    5.925850   18.391826    ( 0.0000,  0.0000,  0.0000)
  36 O      1.710646    4.938208   19.379468    ( 0.0000,  0.0000,  0.0000)

Unit cell:
           periodic     x           y           z      points  spacing
  1. axis:    yes   10.263874    0.000000    0.000000    48     0.1852
  2. axis:    yes   -5.131937    8.888775    0.000000    48     0.1852
  3. axis:    no     0.000000    0.000000   28.380418   156     0.1819

  Lengths:  10.263874  10.263874  28.380418
  Angles:   90.000000  90.000000 120.000000

Effective grid spacing dv^(1/3) = 0.1931

     iter     time        total  log10-change:
                         energy  eigst   dens
iter:   1 23:07:40 -5905.998386
iter:   2 23:08:09 -5905.731976  -0.92  -1.60
iter:   3 23:08:38 -5904.893358  -1.20  -1.61
iter:   4 23:09:07 -5905.392427  -1.81  -1.73
iter:   5 23:09:36 -5905.803294  -1.63  -1.69
iter:   6 23:10:05 -5905.196716  -1.77  -1.81
iter:   7 23:10:34 -5905.139620  -1.50  -2.12
iter:   8 23:11:03 -5905.032971c -2.01  -2.47
iter:   9 23:11:32 -5904.986957c -2.60  -2.56
iter:  10 23:12:00 -5904.986549c -2.75  -2.75
iter:  11 23:12:29 -5904.979709c -3.47  -2.82
iter:  12 23:12:58 -5904.976742c -3.57  -2.92
iter:  13 23:13:27 -5904.976410c -3.87  -3.00
iter:  14 23:13:56 -5904.976443c -3.96  -3.05
iter:  15 23:14:25 -5904.975404c -3.93  -3.16
iter:  16 23:14:54 -5904.975039c -4.70  -3.27
iter:  17 23:15:23 -5904.974766c -4.62  -3.31
iter:  18 23:15:52 -5904.974348c -4.63  -3.41
iter:  19 23:16:20 -5904.974199c -5.13  -3.55
iter:  20 23:16:49 -5904.974156c -5.49  -3.61
iter:  21 23:17:18 -5904.974105c -5.94  -3.69
iter:  22 23:17:47 -5904.974106c -5.80  -3.75
iter:  23 23:18:16 -5904.974104c -5.78  -3.83
iter:  24 23:18:45 -5904.974092c -5.98  -4.06c
iter:  25 23:19:14 -5904.974095c -6.04  -4.16c
iter:  26 23:19:43 -5904.974076c -6.65  -4.25c
iter:  27 23:20:12 -5904.974076c -6.88  -4.49c
iter:  28 23:20:40 -5904.974074c -6.79  -4.61c
iter:  29 23:21:09 -5904.974073c -7.43c -4.83c

Converged after 29 iterations.

Dipole moment: (-7.172235, -12.495789, -0.168877) |e|*Ang

Energy contributions relative to reference atoms: (reference = -6050425.811357)

Kinetic:       +935.717414
Potential:     -894.183792
External:        +0.000000
XC:            -5944.403561
Entropy (-ST):   -0.639365
Local:           -1.784452
--------------------------
Free energy:   -5905.293756
Extrapolated:  -5904.974073

Showing only first 2 kpts
 Kpt  Band  Eigenvalues  Occupancy
  0   253     -4.88123    1.99054
  0   254     -4.79221    1.97710
  0   255     -4.70880    1.94805
  0   256     -4.65653    1.91392

  1   253     -4.70029    1.94357
  1   254     -4.65272    1.91073
  1   255     -4.62125    1.87969
  1   256     -4.52099    1.70296


Fermi level: -4.34637

No gap

Forces in eV/Ang:
  0 Sn    0.01953   -0.01128    0.13587
  1 Sn    0.00637   -0.00253   -0.19692
  2 Sn   -0.07062   -0.05415   -0.14107
  3 Sn    0.03276   -0.01892   -0.03263
  4 Sn   -0.00885   -0.01031    0.13302
  5 Sn   -0.05311   -0.01188   -0.16484
  6 Sn   -0.06562   -0.05344   -0.13842
  7 Sn    0.00295    0.02197   -0.00512
  8 Sn   -0.01972    0.00382    0.14390
  9 Sn   -0.01912    0.01104   -0.20103
 10 Sn    0.00786   -0.00454    0.05726
 11 Sn    0.01325    0.03088   -0.01932
 12 Sn   -0.01317    0.01517    0.14390
 13 Sn   -0.01636    0.01139   -0.13520
 14 Sn    0.08643   -0.02981   -0.14713
 15 Sn   -0.02012   -0.02692   -0.01932
 16 Sn    0.01957   -0.03089    0.14540
 17 Sn    0.04912   -0.02836   -0.15175
 18 Sn    0.02024   -0.01169   -0.19227
 19 Sn   -0.00691   -0.04350    0.30088
 20 Sn   -0.00415    0.00239    0.16023
 21 Sn   -0.01627    0.05194   -0.16484
 22 Sn    0.01347    0.08354   -0.13842
 23 Sn   -0.07077    0.04086    0.31562
 24 Sn    0.00451    0.01282    0.13302
 25 Sn   -0.00573    0.00331   -0.13033
 26 Sn    0.01978   -0.01142    0.02444
 27 Sn   -0.01755   -0.01354   -0.00512
 28 Sn   -0.01092    0.00630    0.14262
 29 Sn   -0.01804    0.00847   -0.13520
 30 Sn    0.06903   -0.05995   -0.14713
 31 Sn   -0.02803    0.01618    0.00400
 32 Sn    0.03654   -0.00150    0.14540
 33 Sn    0.00538   -0.00425   -0.19692
 34 Sn    0.01159    0.08823   -0.14107
 35 Sn    0.03422    0.02773    0.30088
 36 O     0.01990   -0.01149   -0.27494

      Step     Time          Energy         fmax
BFGS:    0 23:21:20    -5904.974073        0.3260
System changes: positions 

Initializing position-dependent things.

Density initialized from wave functions
                                                  
                                                  
                                                  
                                                  
                                                  
                      O                           
           Sn      Sn      Sn                     
                                                  
            SSn     SSn     SnSn                  
               Sn       Sn      Sn                
              Sn      Sn       Sn                 
                 Sn      Sn      Sn               
               Sn       Sn      Sn                
                                                  
                  Sn      Sn      Sn              
                                                  
           Sn      SSn     SnSn      Sn           
                                                  
             Sn      Sn       Sn                  
               Sn       Sn      Sn                
                                                  
                                                  
                                                  
                                                  

Positions:
   0 Sn    -0.000000    0.000000   10.000000    ( 0.0000,  0.0000,  0.0000)
   1 Sn     1.710646    0.987642   12.793473    ( 0.0000,  0.0000,  0.0000)
   2 Sn    -0.001009    1.974509   15.707235    ( 0.0000,  0.0000,  0.0000)
   3 Sn     0.000468   -0.000270   18.391360    ( 0.0000,  0.0000,  0.0000)
   4 Sn    -1.710646    2.962925   10.000000    ( 0.0000,  0.0000,  0.0000)
   5 Sn    -0.000000    3.950567   12.793473    ( 0.0000,  0.0000,  0.0000)
   6 Sn    -1.711583    4.937445   15.707272    ( 0.0000,  0.0000,  0.0000)
   7 Sn    -1.710603    2.963239   18.391753    ( 0.0000,  0.0000,  0.0000)
   8 Sn    -3.421291    5.925850   10.000000    ( 0.0000,  0.0000,  0.0000)
   9 Sn    -1.710646    6.913492   12.793473    ( 0.0000,  0.0000,  0.0000)
  10 Sn    -3.421179    7.901069   15.710068    ( 0.0000,  0.0000,  0.0000)
  11 Sn    -3.421102    5.926291   18.391550    ( 0.0000,  0.0000,  0.0000)
  12 Sn     3.421291    0.000000   10.000000    ( 0.0000,  0.0000,  0.0000)
  13 Sn     5.131937    0.987642   12.793473    ( 0.0000,  0.0000,  0.0000)
  14 Sn     3.422526    1.974858   15.707148    ( 0.0000,  0.0000,  0.0000)
  15 Sn     3.421004   -0.000385   18.391550    ( 0.0000,  0.0000,  0.0000)
  16 Sn     1.710646    2.962925   10.000000    ( 0.0000,  0.0000,  0.0000)
  17 Sn     3.421291    3.950567   12.793473    ( 0.0000,  0.0000,  0.0000)
  18 Sn     1.710934    4.938042   15.706503    ( 0.0000,  0.0000,  0.0000)
  19 Sn     1.710547    2.962304   18.396124    ( 0.0000,  0.0000,  0.0000)
  20 Sn    -0.000000    5.925850   10.000000    ( 0.0000,  0.0000,  0.0000)
  21 Sn     1.710646    6.913492   12.793473    ( 0.0000,  0.0000,  0.0000)
  22 Sn     0.000192    7.902327   15.707272    ( 0.0000,  0.0000,  0.0000)
  23 Sn    -0.001011    5.926434   18.396335    ( 0.0000,  0.0000,  0.0000)
  24 Sn     6.842582    0.000000   10.000000    ( 0.0000,  0.0000,  0.0000)
  25 Sn     8.553228    0.987642   12.793473    ( 0.0000,  0.0000,  0.0000)
  26 Sn     6.842865    1.975120   15.709599    ( 0.0000,  0.0000,  0.0000)
  27 Sn     6.842332   -0.000193   18.391753    ( 0.0000,  0.0000,  0.0000)
  28 Sn     5.131937    2.962925   10.000000    ( 0.0000,  0.0000,  0.0000)
  29 Sn     6.842582    3.950567   12.793473    ( 0.0000,  0.0000,  0.0000)
  30 Sn     5.132923    4.937352   15.707148    ( 0.0000,  0.0000,  0.0000)
  31 Sn     5.131536    2.963156   18.391883    ( 0.0000,  0.0000,  0.0000)
  32 Sn     3.421291    5.925850   10.000000    ( 0.0000,  0.0000,  0.0000)
  33 Sn     5.131937    6.913492   12.793473    ( 0.0000,  0.0000,  0.0000)
  34 Sn     3.421457    7.902394   15.707235    ( 0.0000,  0.0000,  0.0000)
  35 Sn     3.421780    5.926246   18.396124    ( 0.0000,  0.0000,  0.0000)
  36 O      1.710930    4.938044   19.375540    ( 0.0000,  0.0000,  0.0000)

Unit cell:
           periodic     x           y           z      points  spacing
  1. axis:    yes   10.263874    0.000000    0.000000    48     0.1852
  2. axis:    yes   -5.131937    8.888775    0.000000    48     0.1852
  3. axis:    no     0.000000    0.000000   28.380418   156     0.1819

  Lengths:  10.263874  10.263874  28.380418
  Angles:   90.000000  90.000000 120.000000

Effective grid spacing dv^(1/3) = 0.1931

     iter     time        total  log10-change:
                         energy  eigst   dens
iter:   1 23:22:11 -5904.982782  -3.66
iter:   2 23:22:40 -5904.982574  -4.61  -3.56
iter:   3 23:23:09 -5904.982429c -5.34  -3.68
iter:   4 23:23:38 -5904.982298c -5.08  -3.91
iter:   5 23:24:07 -5904.982313c -5.77  -4.16c
iter:   6 23:24:36 -5904.982277c -5.98  -4.14c
iter:   7 23:25:05 -5904.982276c -5.87  -4.38c
iter:   8 23:25:34 -5904.982268c -6.69  -4.49c
iter:   9 23:26:03 -5904.982268c -7.14  -4.73c
iter:  10 23:26:32 -5904.982269c -7.57c -4.75c

Converged after 10 iterations.

Dipole moment: (-7.304053, -12.415490, -0.163960) |e|*Ang

Energy contributions relative to reference atoms: (reference = -6050425.811357)

Kinetic:       +936.209502
Potential:     -894.659862
External:        +0.000000
XC:            -5944.439479
Entropy (-ST):   -0.639167
Local:           -1.772846
--------------------------
Free energy:   -5905.301852
Extrapolated:  -5904.982269

Showing only first 2 kpts
 Kpt  Band  Eigenvalues  Occupancy
  0   253     -4.87814    1.99056
  0   254     -4.78965    1.97727
  0   255     -4.70606    1.94834
  0   256     -4.65345    1.91411

  1   253     -4.69711    1.94364
  1   254     -4.64905    1.91042
  1   255     -4.61760    1.87931
  1   256     -4.51824    1.70435


Fermi level: -4.34306

No gap

Forces in eV/Ang:
  0 Sn    0.01910   -0.01103    0.13159
  1 Sn    0.00620   -0.00356   -0.19787
  2 Sn   -0.05929   -0.04703   -0.12850
  3 Sn    0.03024   -0.01746   -0.03106
  4 Sn   -0.00774   -0.00955    0.12893
  5 Sn   -0.05088   -0.01073   -0.16690
  6 Sn   -0.05407   -0.04631   -0.12552
  7 Sn    0.00291    0.02149   -0.00398
  8 Sn   -0.01978    0.00315    0.13978
  9 Sn   -0.01936    0.01117   -0.20190
 10 Sn    0.00761   -0.00440    0.05538
 11 Sn    0.01153    0.02787   -0.01898
 12 Sn   -0.01262    0.01556    0.13978
 13 Sn   -0.01471    0.01199   -0.13673
 14 Sn    0.07509   -0.02437   -0.13386
 15 Sn   -0.01837   -0.02392   -0.01898
 16 Sn    0.01956   -0.02989    0.14337
 17 Sn    0.04684   -0.02704   -0.15430
 18 Sn    0.01857   -0.01072   -0.18558
 19 Sn   -0.00621   -0.05810    0.27284
 20 Sn   -0.00338    0.00195    0.15804
 21 Sn   -0.01615    0.04942   -0.16690
 22 Sn    0.01307    0.06998   -0.12552
 23 Sn   -0.07936    0.04582    0.28753
 24 Sn    0.00441    0.01148    0.12893
 25 Sn   -0.00726    0.00419   -0.13165
 26 Sn    0.01856   -0.01072    0.02345
 27 Sn   -0.01716   -0.01326   -0.00398
 28 Sn   -0.01202    0.00694    0.13881
 29 Sn   -0.01774    0.00675   -0.13673
 30 Sn    0.05865   -0.05284   -0.13386
 31 Sn   -0.02589    0.01495    0.00391
 32 Sn    0.03567   -0.00199    0.14337
 33 Sn    0.00618   -0.00359   -0.19787
 34 Sn    0.01109    0.07487   -0.12850
 35 Sn    0.04721    0.03442    0.27284
 36 O     0.01493   -0.00862   -0.24896

BFGS:    1 23:26:43    -5904.982269        0.3018
System changes: positions 

Initializing position-dependent things.

Density initialized from wave functions
                                                  
                                                  
                                                  
                                                  
                                                  
                      O                           
           Sn      Sn      Sn                     
                                                  
            SSn     SSn     SnSn                  
               Sn       Sn      Sn                
              Sn      Sn       Sn                 
                 Sn      Sn      Sn               
               Sn       Sn      Sn                
                                                  
                  Sn      Sn      Sn              
                    Sn       Sn      Sn           
           Sn      Sn      Sn                     
                                                  
             Sn      Sn       Sn                  
               Sn       Sn      Sn                
                                                  
                                                  
                                                  
                                                  

Positions:
   0 Sn    -0.000000    0.000000   10.000000    ( 0.0000,  0.0000,  0.0000)
   1 Sn     1.710646    0.987642   12.793473    ( 0.0000,  0.0000,  0.0000)
   2 Sn    -0.011044    1.966557   15.685538    ( 0.0000,  0.0000,  0.0000)
   3 Sn     0.005572   -0.003217   18.386122    ( 0.0000,  0.0000,  0.0000)
   4 Sn    -1.710646    2.962925   10.000000    ( 0.0000,  0.0000,  0.0000)
   5 Sn    -0.000000    3.950567   12.793473    ( 0.0000,  0.0000,  0.0000)
   6 Sn    -1.720739    4.929615   15.686077    ( 0.0000,  0.0000,  0.0000)
   7 Sn    -1.710114    2.966860   18.391078    ( 0.0000,  0.0000,  0.0000)
   8 Sn    -3.421291    5.925850   10.000000    ( 0.0000,  0.0000,  0.0000)
   9 Sn    -1.710646    6.913492   12.793473    ( 0.0000,  0.0000,  0.0000)
  10 Sn    -3.419896    7.900328   15.719404    ( 0.0000,  0.0000,  0.0000)
  11 Sn    -3.419153    5.930998   18.388351    ( 0.0000,  0.0000,  0.0000)
  12 Sn     3.421291    0.000000   10.000000    ( 0.0000,  0.0000,  0.0000)
  13 Sn     5.131937    0.987642   12.793473    ( 0.0000,  0.0000,  0.0000)
  14 Sn     3.435221    1.970731   15.684546    ( 0.0000,  0.0000,  0.0000)
  15 Sn     3.417902   -0.004425   18.388351    ( 0.0000,  0.0000,  0.0000)
  16 Sn     1.710646    2.962925   10.000000    ( 0.0000,  0.0000,  0.0000)
  17 Sn     3.421291    3.950567   12.793473    ( 0.0000,  0.0000,  0.0000)
  18 Sn     1.714069    4.936232   15.675217    ( 0.0000,  0.0000,  0.0000)
  19 Sn     1.709499    2.952579   18.442198    ( 0.0000,  0.0000,  0.0000)
  20 Sn    -0.000000    5.925850   10.000000    ( 0.0000,  0.0000,  0.0000)
  21 Sn     1.710646    6.913492   12.793473    ( 0.0000,  0.0000,  0.0000)
  22 Sn     0.002396    7.914171   15.686077    ( 0.0000,  0.0000,  0.0000)
  23 Sn    -0.014341    5.934130   18.444882    ( 0.0000,  0.0000,  0.0000)
  24 Sn     6.842582    0.000000   10.000000    ( 0.0000,  0.0000,  0.0000)
  25 Sn     8.553228    0.987642   12.793473    ( 0.0000,  0.0000,  0.0000)
  26 Sn     6.845997    1.973312   15.713554    ( 0.0000,  0.0000,  0.0000)
  27 Sn     6.839440   -0.002428   18.391078    ( 0.0000,  0.0000,  0.0000)
  28 Sn     5.131937    2.962925   10.000000    ( 0.0000,  0.0000,  0.0000)
  29 Sn     6.842582    3.950567   12.793473    ( 0.0000,  0.0000,  0.0000)
  30 Sn     5.142845    4.928421   15.684546    ( 0.0000,  0.0000,  0.0000)
  31 Sn     5.127166    2.965679   18.392543    ( 0.0000,  0.0000,  0.0000)
  32 Sn     3.421291    5.925850   10.000000    ( 0.0000,  0.0000,  0.0000)
  33 Sn     5.131937    6.913492   12.793473    ( 0.0000,  0.0000,  0.0000)
  34 Sn     3.423326    7.915061   15.685538    ( 0.0000,  0.0000,  0.0000)
  35 Sn     3.429677    5.932016   18.442198    ( 0.0000,  0.0000,  0.0000)
  36 O      1.713465    4.936580   19.333497    ( 0.0000,  0.0000,  0.0000)

Unit cell:
           periodic     x           y           z      points  spacing
  1. axis:    yes   10.263874    0.000000    0.000000    48     0.1852
  2. axis:    yes   -5.131937    8.888775    0.000000    48     0.1852
  3. axis:    no     0.000000    0.000000   28.380418   156     0.1819

  Lengths:  10.263874  10.263874  28.380418
  Angles:   90.000000  90.000000 120.000000

Effective grid spacing dv^(1/3) = 0.1931

     iter     time        total  log10-change:
                         energy  eigst   dens
iter:   1 23:27:33 -5905.127886  -1.61
iter:   2 23:28:02 -5905.092324  -2.55  -2.40
iter:   3 23:28:31 -5905.050110c -3.30  -2.53
iter:   4 23:29:00 -5905.036123c -3.06  -2.88
iter:   5 23:29:29 -5905.036161c -4.09  -3.15
iter:   6 23:29:59 -5905.034611c -4.12  -3.21
iter:   7 23:30:28 -5905.034593c -4.00  -3.36
iter:   8 23:30:57 -5905.034206c -4.72  -3.51
iter:   9 23:31:26 -5905.034263c -5.25  -3.73
iter:  10 23:31:55 -5905.034355c -5.41  -3.82
iter:  11 23:32:24 -5905.034338c -5.91  -3.92
iter:  12 23:32:53 -5905.034336c -6.12  -4.03c
iter:  13 23:33:22 -5905.034356c -6.36  -4.13c
iter:  14 23:33:51 -5905.034356c -6.65  -4.28c
iter:  15 23:34:20 -5905.034355c -6.63  -4.36c
iter:  16 23:34:49 -5905.034360c -7.13  -4.53c
iter:  17 23:35:18 -5905.034363c -7.27  -4.64c
iter:  18 23:35:47 -5905.034362c -7.92c -4.73c

Converged after 18 iterations.

Dipole moment: (-8.701579, -11.565805, -0.120960) |e|*Ang

Energy contributions relative to reference atoms: (reference = -6050425.811357)

Kinetic:       +936.376335
Potential:     -894.892266
External:        +0.000000
XC:            -5944.414430
Entropy (-ST):   -0.637462
Local:           -1.785270
--------------------------
Free energy:   -5905.353094
Extrapolated:  -5905.034362

Showing only first 2 kpts
 Kpt  Band  Eigenvalues  Occupancy
  0   253     -4.84872    1.99057
  0   254     -4.76653    1.97867
  0   255     -4.68213    1.95108
  0   256     -4.62419    1.91432

  1   253     -4.66967    1.94476
  1   254     -4.61485    1.90632
  1   255     -4.58302    1.87343
  1   256     -4.49285    1.71460


Fermi level: -4.31355

No gap

Forces in eV/Ang:
  0 Sn    0.01644   -0.00949    0.13415
  1 Sn    0.00575   -0.01166   -0.20002
  2 Sn    0.00404   -0.00609   -0.04910
  3 Sn    0.01039   -0.00600   -0.02880
  4 Sn   -0.01107   -0.00894    0.12448
  5 Sn   -0.04179   -0.00566   -0.16404
  6 Sn    0.00963   -0.00409   -0.04317
  7 Sn    0.00975    0.01892   -0.01462
  8 Sn   -0.01944   -0.00421    0.14218
  9 Sn   -0.02433    0.01404   -0.20453
 10 Sn    0.00708   -0.00409    0.02847
 11 Sn    0.00006    0.00616   -0.02321
 12 Sn   -0.00608    0.01894    0.14218
 13 Sn   -0.01348    0.01301   -0.15308
 14 Sn    0.01071   -0.00004   -0.05186
 15 Sn   -0.00530   -0.00313   -0.02321
 16 Sn    0.02083   -0.03052    0.14808
 17 Sn    0.03828   -0.02210   -0.15397
 18 Sn    0.00938   -0.00541   -0.06683
 19 Sn   -0.00552   -0.20498    0.07505
 20 Sn   -0.00533    0.00308    0.16197
 21 Sn   -0.01599    0.03902   -0.16404
 22 Sn    0.00835   -0.00629   -0.04317
 23 Sn   -0.18748    0.10824    0.09715
 24 Sn    0.00221    0.01405    0.12448
 25 Sn   -0.01003    0.00579   -0.14554
 26 Sn    0.01201   -0.00693    0.01902
 27 Sn   -0.01151   -0.01791   -0.01462
 28 Sn   -0.01010    0.00583    0.13724
 29 Sn   -0.01801    0.00517   -0.15308
 30 Sn    0.00538   -0.00926   -0.05186
 31 Sn   -0.01841    0.01063   -0.01444
 32 Sn    0.03685   -0.00278    0.14808
 33 Sn    0.01297    0.00085   -0.20002
 34 Sn    0.00729   -0.00045   -0.04910
 35 Sn    0.17476    0.10727    0.07505
 36 O    -0.01072    0.00619    0.04366

BFGS:    2 23:35:57    -5905.034362        0.2373
System changes: positions 

Initializing position-dependent things.

Density initialized from wave functions
                                                  
                                                  
                                                  
                                                  
                                                  
                      O                           
           Sn      Sn      Sn                     
                                                  
            SSn     SSn     SnSn                  
               Sn       Sn      Sn                
              Sn      Sn       Sn                 
                 Sn      Sn      Sn               
               Sn       Sn      Sn                
                                                  
                  Sn      Sn      Sn              
                    Sn       Sn      Sn           
           Sn      Sn      Sn                     
                                                  
             Sn      Sn       Sn                  
               Sn       Sn      Sn                
                                                  
                                                  
                                                  
                                                  

Positions:
   0 Sn    -0.000000    0.000000   10.000000    ( 0.0000,  0.0000,  0.0000)
   1 Sn     1.710646    0.987642   12.793473    ( 0.0000,  0.0000,  0.0000)
   2 Sn    -0.015869    1.962546   15.673939    ( 0.0000,  0.0000,  0.0000)
   3 Sn     0.008274   -0.004777   18.382970    ( 0.0000,  0.0000,  0.0000)
   4 Sn    -1.710646    2.962925   10.000000    ( 0.0000,  0.0000,  0.0000)
   5 Sn    -0.000000    3.950567   12.793473    ( 0.0000,  0.0000,  0.0000)
   6 Sn    -1.725022    4.925705   15.674844    ( 0.0000,  0.0000,  0.0000)
   7 Sn    -1.709670    2.969016   18.390437    ( 0.0000,  0.0000,  0.0000)
   8 Sn    -3.421291    5.925850   10.000000    ( 0.0000,  0.0000,  0.0000)
   9 Sn    -1.710646    6.913492   12.793473    ( 0.0000,  0.0000,  0.0000)
  10 Sn    -3.419124    7.899882   15.724534    ( 0.0000,  0.0000,  0.0000)
  11 Sn    -3.418201    5.933421   18.386311    ( 0.0000,  0.0000,  0.0000)
  12 Sn     3.421291    0.000000   10.000000    ( 0.0000,  0.0000,  0.0000)
  13 Sn     5.131937    0.987642   12.793473    ( 0.0000,  0.0000,  0.0000)
  14 Sn     3.441646    1.968706   15.672447    ( 0.0000,  0.0000,  0.0000)
  15 Sn     3.416280   -0.006462   18.386311    ( 0.0000,  0.0000,  0.0000)
  16 Sn     1.710646    2.962925   10.000000    ( 0.0000,  0.0000,  0.0000)
  17 Sn     3.421291    3.950567   12.793473    ( 0.0000,  0.0000,  0.0000)
  18 Sn     1.715792    4.935237   15.658629    ( 0.0000,  0.0000,  0.0000)
  19 Sn     1.708871    2.943608   18.466219    ( 0.0000,  0.0000,  0.0000)
  20 Sn    -0.000000    5.925850   10.000000    ( 0.0000,  0.0000,  0.0000)
  21 Sn     1.710646    6.913492   12.793473    ( 0.0000,  0.0000,  0.0000)
  22 Sn     0.003640    7.919835   15.674844    ( 0.0000,  0.0000,  0.0000)
  23 Sn    -0.024716    5.940120   18.470568    ( 0.0000,  0.0000,  0.0000)
  24 Sn     6.842582    0.000000   10.000000    ( 0.0000,  0.0000,  0.0000)
  25 Sn     8.553228    0.987642   12.793473    ( 0.0000,  0.0000,  0.0000)
  26 Sn     6.847772    1.972287   15.715874    ( 0.0000,  0.0000,  0.0000)
  27 Sn     6.837795   -0.003890   18.390437    ( 0.0000,  0.0000,  0.0000)
  28 Sn     5.131937    2.962925   10.000000    ( 0.0000,  0.0000,  0.0000)
  29 Sn     6.842582    3.950567   12.793473    ( 0.0000,  0.0000,  0.0000)
  30 Sn     5.147810    4.923869   15.672447    ( 0.0000,  0.0000,  0.0000)
  31 Sn     5.124651    2.967131   18.392557    ( 0.0000,  0.0000,  0.0000)
  32 Sn     3.421291    5.925850   10.000000    ( 0.0000,  0.0000,  0.0000)
  33 Sn     5.131937    6.913492   12.793473    ( 0.0000,  0.0000,  0.0000)
  34 Sn     3.424388    7.921246   15.673939    ( 0.0000,  0.0000,  0.0000)
  35 Sn     3.437133    5.937046   18.466219    ( 0.0000,  0.0000,  0.0000)
  36 O      1.714490    4.935989   19.313947    ( 0.0000,  0.0000,  0.0000)

Unit cell:
           periodic     x           y           z      points  spacing
  1. axis:    yes   10.263874    0.000000    0.000000    48     0.1852
  2. axis:    yes   -5.131937    8.888775    0.000000    48     0.1852
  3. axis:    no     0.000000    0.000000   28.380418   156     0.1819

  Lengths:  10.263874  10.263874  28.380418
  Angles:   90.000000  90.000000 120.000000

Effective grid spacing dv^(1/3) = 0.1931

     iter     time        total  log10-change:
                         energy  eigst   dens
iter:   1 23:36:48 -5905.068259  -2.16
iter:   2 23:37:17 -5905.058312  -3.10  -2.67
iter:   3 23:37:47 -5905.045652c -3.85  -2.80
iter:   4 23:38:16 -5905.042928c -3.72  -3.19
iter:   5 23:38:45 -5905.042776c -4.87  -3.45
iter:   6 23:39:14 -5905.042591c -4.99  -3.55
iter:   7 23:39:43 -5905.042677c -4.71  -3.69
iter:   8 23:40:13 -5905.042629c -5.31  -3.85
iter:   9 23:40:42 -5905.042640c -5.87  -3.98
iter:  10 23:41:11 -5905.042640c -6.23  -4.01c
iter:  11 23:41:40 -5905.042654c -6.29  -4.13c
iter:  12 23:42:10 -5905.042646c -6.71  -4.23c
iter:  13 23:42:39 -5905.042649c -6.58  -4.35c
iter:  14 23:43:08 -5905.042652c -7.39  -4.51c
iter:  15 23:43:37 -5905.042662c -7.00  -4.55c
iter:  16 23:44:06 -5905.042661c -7.32  -4.79c
iter:  17 23:44:36 -5905.042661c -8.01c -4.94c

Converged after 17 iterations.

Dipole moment: (-9.438227, -11.118668, -0.102410) |e|*Ang

Energy contributions relative to reference atoms: (reference = -6050425.811357)

Kinetic:       +936.199393
Potential:     -894.773657
External:        +0.000000
XC:            -5944.358513
Entropy (-ST):   -0.636776
Local:           -1.791495
--------------------------
Free energy:   -5905.361049
Extrapolated:  -5905.042661

Showing only first 2 kpts
 Kpt  Band  Eigenvalues  Occupancy
  0   253     -4.83419    1.99044
  0   254     -4.75486    1.97899
  0   255     -4.67132    1.95222
  0   256     -4.60932    1.91296

  1   253     -4.65832    1.94576
  1   254     -4.59918    1.90412
  1   255     -4.56592    1.86876
  1   256     -4.48028    1.71620


Fermi level: -4.30032

No gap

Forces in eV/Ang:
  0 Sn    0.01382   -0.00798    0.13728
  1 Sn    0.00570   -0.01939   -0.20449
  2 Sn    0.03641    0.01656   -0.00118
  3 Sn   -0.00434    0.00251   -0.02261
  4 Sn   -0.01331   -0.00852    0.12462
  5 Sn   -0.03875   -0.00422   -0.17185
  6 Sn    0.04396    0.01529    0.00513
  7 Sn    0.01500    0.01669   -0.01819
  8 Sn   -0.01918   -0.00904    0.14492
  9 Sn   -0.02992    0.01727   -0.20905
 10 Sn    0.00817   -0.00471    0.01145
 11 Sn   -0.00834   -0.01005   -0.02089
 12 Sn   -0.00176    0.02113    0.14492
 13 Sn   -0.00968    0.01493   -0.16854
 14 Sn   -0.02045    0.01392   -0.00219
 15 Sn    0.00454    0.01225   -0.02089
 16 Sn    0.02136   -0.03047    0.15310
 17 Sn    0.03554   -0.02052   -0.16373
 18 Sn    0.00913   -0.00527   -0.00259
 19 Sn   -0.00685   -0.26613   -0.02571
 20 Sn   -0.00592    0.00342    0.16676
 21 Sn   -0.01572    0.03567   -0.17185
 22 Sn    0.00874   -0.04571    0.00513
 23 Sn   -0.21873    0.12628   -0.00781
 24 Sn    0.00073    0.01578    0.12462
 25 Sn   -0.01410    0.00814   -0.16007
 26 Sn    0.00919   -0.00531    0.01502
 27 Sn   -0.00696   -0.02134   -0.01819
 28 Sn   -0.00842    0.00486    0.13932
 29 Sn   -0.01777    0.00092   -0.16854
 30 Sn   -0.02228    0.01075   -0.00219
 31 Sn   -0.01554    0.00897   -0.02291
 32 Sn    0.03706   -0.00326    0.15310
 33 Sn    0.01964    0.00476   -0.20449
 34 Sn    0.00387   -0.03982   -0.00118
 35 Sn    0.22706    0.13900   -0.02571
 36 O    -0.00092    0.00053    0.16965

BFGS:    3 23:44:46    -5905.042661        0.2675
System changes: positions 

Initializing position-dependent things.

Density initialized from wave functions
                                                  
                                                  
                                                  
                                                  
                                                  
                      O                           
           Sn      Sn      Sn                     
                                                  
            SSn     SSn     SnSn                  
               Sn       Sn      Sn                
              Sn      Sn       Sn                 
                 Sn      Sn      Sn               
               Sn       Sn      Sn                
                                                  
                  Sn      Sn      Sn              
                    Sn       Sn      Sn           
           Sn      Sn      Sn                     
                                                  
             Sn      Sn       Sn                  
               Sn       Sn      Sn                
                                                  
                                                  
                                                  
                                                  

Positions:
   0 Sn    -0.000000    0.000000   10.000000    ( 0.0000,  0.0000,  0.0000)
   1 Sn     1.710646    0.987642   12.793473    ( 0.0000,  0.0000,  0.0000)
   2 Sn    -0.016427    1.961873   15.671247    ( 0.0000,  0.0000,  0.0000)
   3 Sn     0.008824   -0.005094   18.381890    ( 0.0000,  0.0000,  0.0000)
   4 Sn    -1.710646    2.962925   10.000000    ( 0.0000,  0.0000,  0.0000)
   5 Sn    -0.000000    3.950567   12.793473    ( 0.0000,  0.0000,  0.0000)
   6 Sn    -1.725336    4.925034   15.672333    ( 0.0000,  0.0000,  0.0000)
   7 Sn    -1.709329    2.969772   18.389995    ( 0.0000,  0.0000,  0.0000)
   8 Sn    -3.421291    5.925850   10.000000    ( 0.0000,  0.0000,  0.0000)
   9 Sn    -1.710646    6.913492   12.793473    ( 0.0000,  0.0000,  0.0000)
  10 Sn    -3.418817    7.899705   15.725882    ( 0.0000,  0.0000,  0.0000)
  11 Sn    -3.418112    5.933818   18.385515    ( 0.0000,  0.0000,  0.0000)
  12 Sn     3.421291    0.000000   10.000000    ( 0.0000,  0.0000,  0.0000)
  13 Sn     5.131937    0.987642   12.793473    ( 0.0000,  0.0000,  0.0000)
  14 Sn     3.442822    1.968448   15.669622    ( 0.0000,  0.0000,  0.0000)
  15 Sn     3.415980   -0.006737   18.385515    ( 0.0000,  0.0000,  0.0000)
  16 Sn     1.710646    2.962925   10.000000    ( 0.0000,  0.0000,  0.0000)
  17 Sn     3.421291    3.950567   12.793473    ( 0.0000,  0.0000,  0.0000)
  18 Sn     1.716337    4.934922   15.654818    ( 0.0000,  0.0000,  0.0000)
  19 Sn     1.708616    2.937383   18.471357    ( 0.0000,  0.0000,  0.0000)
  20 Sn    -0.000000    5.925850   10.000000    ( 0.0000,  0.0000,  0.0000)
  21 Sn     1.710646    6.913492   12.793473    ( 0.0000,  0.0000,  0.0000)
  22 Sn     0.004064    7.920444   15.672333    ( 0.0000,  0.0000,  0.0000)
  23 Sn    -0.030521    5.943472   18.476367    ( 0.0000,  0.0000,  0.0000)
  24 Sn     6.842582    0.000000   10.000000    ( 0.0000,  0.0000,  0.0000)
  25 Sn     8.553228    0.987642   12.793473    ( 0.0000,  0.0000,  0.0000)
  26 Sn     6.848326    1.971967   15.716643    ( 0.0000,  0.0000,  0.0000)
  27 Sn     6.837311   -0.004564   18.389995    ( 0.0000,  0.0000,  0.0000)
  28 Sn     5.131937    2.962925   10.000000    ( 0.0000,  0.0000,  0.0000)
  29 Sn     6.842582    3.950567   12.793473    ( 0.0000,  0.0000,  0.0000)
  30 Sn     5.148622    4.922980   15.669622    ( 0.0000,  0.0000,  0.0000)
  31 Sn     5.123824    2.967609   18.392193    ( 0.0000,  0.0000,  0.0000)
  32 Sn     3.421291    5.925850   10.000000    ( 0.0000,  0.0000,  0.0000)
  33 Sn     5.131937    6.913492   12.793473    ( 0.0000,  0.0000,  0.0000)
  34 Sn     3.424691    7.922065   15.671247    ( 0.0000,  0.0000,  0.0000)
  35 Sn     3.442397    5.940379   18.471357    ( 0.0000,  0.0000,  0.0000)
  36 O      1.714737    4.935846   19.312135    ( 0.0000,  0.0000,  0.0000)

Unit cell:
           periodic     x           y           z      points  spacing
  1. axis:    yes   10.263874    0.000000    0.000000    48     0.1852
  2. axis:    yes   -5.131937    8.888775    0.000000    48     0.1852
  3. axis:    no     0.000000    0.000000   28.380418   156     0.1819

  Lengths:  10.263874  10.263874  28.380418
  Angles:   90.000000  90.000000 120.000000

Effective grid spacing dv^(1/3) = 0.1931

     iter     time        total  log10-change:
                         energy  eigst   dens
iter:   1 23:45:37 -5905.048537  -3.32
iter:   2 23:46:06 -5905.047735  -4.25  -3.26
iter:   3 23:46:36 -5905.046807c -4.97  -3.36
iter:   4 23:47:05 -5905.046672c -5.19  -3.79
iter:   5 23:47:34 -5905.046645c -5.56  -4.00c
iter:   6 23:48:03 -5905.046647c -5.89  -4.17c
iter:   7 23:48:32 -5905.046653c -6.42  -4.29c
iter:   8 23:49:02 -5905.046663c -6.69  -4.44c
iter:   9 23:49:31 -5905.046664c -7.10  -4.55c
iter:  10 23:50:01 -5905.046664c -7.44c -4.67c

Converged after 10 iterations.

Dipole moment: (-9.589396, -11.028620, -0.101542) |e|*Ang

Energy contributions relative to reference atoms: (reference = -6050425.811357)

Kinetic:       +935.724513
Potential:     -894.381017
External:        +0.000000
XC:            -5944.280653
Entropy (-ST):   -0.636549
Local:           -1.791232
--------------------------
Free energy:   -5905.364939
Extrapolated:  -5905.046664

Showing only first 2 kpts
 Kpt  Band  Eigenvalues  Occupancy
  0   253     -4.83366    1.99048
  0   254     -4.75307    1.97882
  0   255     -4.67079    1.95241
  0   256     -4.60762    1.91233

  1   253     -4.65841    1.94631
  1   254     -4.59852    1.90439
  1   255     -4.56357    1.86704
  1   256     -4.47915    1.71577


Fermi level: -4.29936

No gap

Forces in eV/Ang:
  0 Sn    0.01217   -0.00703    0.13488
  1 Sn    0.00543   -0.02128   -0.20457
  2 Sn    0.04601    0.02349    0.01260
  3 Sn   -0.00835    0.00482   -0.01891
  4 Sn   -0.01383   -0.00829    0.12275
  5 Sn   -0.03605   -0.00350   -0.17756
  6 Sn    0.05344    0.02085    0.01892
  7 Sn    0.01032    0.01135   -0.01668
  8 Sn   -0.01907   -0.01134    0.14245
  9 Sn   -0.03143    0.01815   -0.20930
 10 Sn    0.00906   -0.00523    0.00514
 11 Sn   -0.01188   -0.01362   -0.01908
 12 Sn    0.00028    0.02219    0.14245
 13 Sn   -0.00642    0.01671   -0.17149
 14 Sn   -0.02997    0.01764    0.01281
 15 Sn    0.00585    0.01710   -0.01908
 16 Sn    0.02149   -0.02992    0.15526
 17 Sn    0.03310   -0.01911   -0.17017
 18 Sn    0.00865   -0.00499    0.01564
 19 Sn   -0.00634   -0.22602   -0.03244
 20 Sn   -0.00531    0.00307    0.16875
 21 Sn   -0.01500    0.03297   -0.17756
 22 Sn    0.00866   -0.05670    0.01892
 23 Sn   -0.17222    0.09943   -0.01969
 24 Sn    0.00026    0.01612    0.12275
 25 Sn   -0.01700    0.00981   -0.16277
 26 Sn    0.00821   -0.00474    0.01119
 27 Sn   -0.00467   -0.01461   -0.01668
 28 Sn   -0.00801    0.00462    0.13834
 29 Sn   -0.01768   -0.00279   -0.17149
 30 Sn   -0.03026    0.01713    0.01281
 31 Sn   -0.00888    0.00513   -0.02318
 32 Sn    0.03666   -0.00365    0.15526
 33 Sn    0.02115    0.00594   -0.20457
 34 Sn    0.00266   -0.05159    0.01260
 35 Sn    0.19257    0.11850   -0.03244
 36 O    -0.00361    0.00209    0.12908

BFGS:    4 23:50:12    -5905.046664        0.2284
System changes: positions 

Initializing position-dependent things.

Density initialized from wave functions
                                                  
                                                  
                                                  
                                                  
                                                  
                      O                           
           Sn      Sn      Sn                     
                                                  
            SSn     SSn     SnSn                  
               Sn       Sn      Sn                
              Sn       Sn      Sn                 
                 Sn      Sn      Sn               
               Sn       Sn      Sn                
                                                  
                  Sn      Sn      Sn              
                    Sn       Sn      Sn           
           Sn      Sn      Sn                     
                                                  
             Sn      Sn       Sn                  
               Sn       Sn      Sn                
                                                  
                                                  
                                                  
                                                  

Positions:
   0 Sn    -0.000000    0.000000   10.000000    ( 0.0000,  0.0000,  0.0000)
   1 Sn     1.710646    0.987642   12.793473    ( 0.0000,  0.0000,  0.0000)
   2 Sn    -0.015133    1.962013   15.668195    ( 0.0000,  0.0000,  0.0000)
   3 Sn     0.009190   -0.005306   18.379582    ( 0.0000,  0.0000,  0.0000)
   4 Sn    -1.710646    2.962925   10.000000    ( 0.0000,  0.0000,  0.0000)
   5 Sn    -0.000000    3.950567   12.793473    ( 0.0000,  0.0000,  0.0000)
   6 Sn    -1.723394    4.925068   15.669812    ( 0.0000,  0.0000,  0.0000)
   7 Sn    -1.708419    2.971279   18.388628    ( 0.0000,  0.0000,  0.0000)
   8 Sn    -3.421291    5.925850   10.000000    ( 0.0000,  0.0000,  0.0000)
   9 Sn    -1.710646    6.913492   12.793473    ( 0.0000,  0.0000,  0.0000)
  10 Sn    -3.418002    7.899235   15.727888    ( 0.0000,  0.0000,  0.0000)
  11 Sn    -3.418523    5.933751   18.383580    ( 0.0000,  0.0000,  0.0000)
  12 Sn     3.421291    0.000000   10.000000    ( 0.0000,  0.0000,  0.0000)
  13 Sn     5.131937    0.987642   12.793473    ( 0.0000,  0.0000,  0.0000)
  14 Sn     3.443062    1.968866   15.666402    ( 0.0000,  0.0000,  0.0000)
  15 Sn     3.415833   -0.006348   18.383580    ( 0.0000,  0.0000,  0.0000)
  16 Sn     1.710646    2.962925   10.000000    ( 0.0000,  0.0000,  0.0000)
  17 Sn     3.421291    3.950567   12.793473    ( 0.0000,  0.0000,  0.0000)
  18 Sn     1.717442    4.934285   15.650563    ( 0.0000,  0.0000,  0.0000)
  19 Sn     1.707991    2.918998   18.476790    ( 0.0000,  0.0000,  0.0000)
  20 Sn    -0.000000    5.925850   10.000000    ( 0.0000,  0.0000,  0.0000)
  21 Sn     1.710646    6.913492   12.793473    ( 0.0000,  0.0000,  0.0000)
  22 Sn     0.005006    7.918744   15.669812    ( 0.0000,  0.0000,  0.0000)
  23 Sn    -0.045974    5.952393   18.483275    ( 0.0000,  0.0000,  0.0000)
  24 Sn     6.842582    0.000000   10.000000    ( 0.0000,  0.0000,  0.0000)
  25 Sn     8.553228    0.987642   12.793473    ( 0.0000,  0.0000,  0.0000)
  26 Sn     6.849433    1.971328   15.718170    ( 0.0000,  0.0000,  0.0000)
  27 Sn     6.836461   -0.006105   18.388628    ( 0.0000,  0.0000,  0.0000)
  28 Sn     5.131937    2.962925   10.000000    ( 0.0000,  0.0000,  0.0000)
  29 Sn     6.842582    3.950567   12.793473    ( 0.0000,  0.0000,  0.0000)
  30 Sn     5.148379    4.922563   15.666402    ( 0.0000,  0.0000,  0.0000)
  31 Sn     5.122330    2.968472   18.390641    ( 0.0000,  0.0000,  0.0000)
  32 Sn     3.421291    5.925850   10.000000    ( 0.0000,  0.0000,  0.0000)
  33 Sn     5.131937    6.913492   12.793473    ( 0.0000,  0.0000,  0.0000)
  34 Sn     3.425217    7.920874   15.668195    ( 0.0000,  0.0000,  0.0000)
  35 Sn     3.458006    5.950113   18.476790    ( 0.0000,  0.0000,  0.0000)
  36 O      1.714846    4.935783   19.315572    ( 0.0000,  0.0000,  0.0000)

Unit cell:
           periodic     x           y           z      points  spacing
  1. axis:    yes   10.263874    0.000000    0.000000    48     0.1852
  2. axis:    yes   -5.131937    8.888775    0.000000    48     0.1852
  3. axis:    no     0.000000    0.000000   28.380418   156     0.1819

  Lengths:  10.263874  10.263874  28.380418
  Angles:   90.000000  90.000000 120.000000

Effective grid spacing dv^(1/3) = 0.1931

     iter     time        total  log10-change:
                         energy  eigst   dens
iter:   1 23:51:02 -5905.060330  -2.68
iter:   2 23:51:32 -5905.057949  -3.62  -3.10
iter:   3 23:52:01 -5905.055769c -4.28  -3.14
iter:   4 23:52:30 -5905.054552c -4.36  -3.48
iter:   5 23:52:59 -5905.054453c -5.08  -3.70
iter:   6 23:53:28 -5905.054308c -4.95  -3.78
iter:   7 23:53:58 -5905.054327c -5.38  -3.92
iter:   8 23:54:27 -5905.054349c -5.94  -4.07c
iter:   9 23:54:56 -5905.054354c -6.00  -4.22c
iter:  10 23:55:25 -5905.054354c -6.80  -4.32c
iter:  11 23:55:55 -5905.054352c -7.00  -4.42c
iter:  12 23:56:24 -5905.054351c -6.98  -4.47c
iter:  13 23:56:53 -5905.054351c -7.44c -4.63c

Converged after 13 iterations.

Dipole moment: (-9.651837, -10.997608, -0.107930) |e|*Ang

Energy contributions relative to reference atoms: (reference = -6050425.811357)

Kinetic:       +934.534101
Potential:     -893.419300
External:        +0.000000
XC:            -5944.060485
Entropy (-ST):   -0.636064
Local:           -1.790635
--------------------------
Free energy:   -5905.372383
Extrapolated:  -5905.054351

Showing only first 2 kpts
 Kpt  Band  Eigenvalues  Occupancy
  0   253     -4.84010    1.99074
  0   254     -4.75271    1.97796
  0   255     -4.67451    1.95243
  0   256     -4.60967    1.91096

  1   253     -4.66477    1.94770
  1   254     -4.60470    1.90664
  1   255     -4.56406    1.86304
  1   256     -4.48218    1.71420


Fermi level: -4.30304

No gap

Forces in eV/Ang:
  0 Sn    0.01161   -0.00670    0.13311
  1 Sn    0.00578   -0.02695   -0.20336
  2 Sn    0.04731    0.02706    0.01806
  3 Sn   -0.01208    0.00698   -0.00357
  4 Sn   -0.01837   -0.01054    0.11818
  5 Sn   -0.03536   -0.00383   -0.16913
  6 Sn    0.05679    0.02177    0.02507
  7 Sn   -0.00245    0.00199   -0.01246
  8 Sn   -0.01939   -0.01208    0.14133
  9 Sn   -0.03622    0.02091   -0.20843
 10 Sn    0.00961   -0.00555   -0.00338
 11 Sn   -0.01083   -0.01734   -0.00322
 12 Sn    0.00076    0.02283    0.14133
 13 Sn   -0.00825    0.01586   -0.17473
 14 Sn   -0.03330    0.02082    0.01777
 15 Sn    0.00960    0.01805   -0.00322
 16 Sn    0.02174   -0.03453    0.15022
 17 Sn    0.03329   -0.01922   -0.16156
 18 Sn    0.01039   -0.00600    0.00555
 19 Sn   -0.00065   -0.04399    0.00032
 20 Sn   -0.00844    0.00487    0.16395
 21 Sn   -0.01437    0.03254   -0.16913
 22 Sn    0.00954   -0.06007    0.02507
 23 Sn   -0.02142    0.01237    0.01379
 24 Sn   -0.00006    0.02118    0.11818
 25 Sn   -0.01483    0.00856   -0.16561
 26 Sn    0.00954   -0.00551    0.01371
 27 Sn   -0.00295    0.00112   -0.01246
 28 Sn   -0.00382    0.00221    0.13436
 29 Sn   -0.01786   -0.00079   -0.17473
 30 Sn   -0.03468    0.01843    0.01777
 31 Sn    0.00496   -0.00286   -0.01838
 32 Sn    0.04077   -0.00156    0.15022
 33 Sn    0.02623    0.00847   -0.20336
 34 Sn    0.00022   -0.05450    0.01806
 35 Sn    0.03777    0.02256    0.00032
 36 O     0.00223   -0.00129   -0.00045

BFGS:    5 23:57:04    -5905.054351        0.0658
System changes: positions 

Initializing position-dependent things.

Density initialized from wave functions
                                                  
                                                  
                                                  
                                                  
                                                  
                      O                           
           Sn      Sn      Sn                     
                                                  
            SSn     SSn     SnSn                  
               Sn       Sn      Sn                
              Sn       Sn      Sn                 
                 Sn      Sn      Sn               
               Sn       Sn      Sn                
                                                  
                  Sn      Sn      Sn              
                    Sn       Sn      Sn           
           Sn      Sn      Sn                     
                                                  
             Sn      Sn       Sn                  
               Sn       Sn      Sn                
                                                  
                                                  
                                                  
                                                  

Positions:
   0 Sn    -0.000000    0.000000   10.000000    ( 0.0000,  0.0000,  0.0000)
   1 Sn     1.710646    0.987642   12.793473    ( 0.0000,  0.0000,  0.0000)
   2 Sn    -0.013762    1.962763   15.668674    ( 0.0000,  0.0000,  0.0000)
   3 Sn     0.008880   -0.005127   18.379278    ( 0.0000,  0.0000,  0.0000)
   4 Sn    -1.710646    2.962925   10.000000    ( 0.0000,  0.0000,  0.0000)
   5 Sn    -0.000000    3.950567   12.793473    ( 0.0000,  0.0000,  0.0000)
   6 Sn    -1.721772    4.925707   15.670490    ( 0.0000,  0.0000,  0.0000)
   7 Sn    -1.708301    2.971473   18.388181    ( 0.0000,  0.0000,  0.0000)
   8 Sn    -3.421291    5.925850   10.000000    ( 0.0000,  0.0000,  0.0000)
   9 Sn    -1.710646    6.913492   12.793473    ( 0.0000,  0.0000,  0.0000)
  10 Sn    -3.417737    7.899081   15.727878    ( 0.0000,  0.0000,  0.0000)
  11 Sn    -3.418841    5.933285   18.383284    ( 0.0000,  0.0000,  0.0000)
  12 Sn     3.421291    0.000000   10.000000    ( 0.0000,  0.0000,  0.0000)
  13 Sn     5.131937    0.987642   12.793473    ( 0.0000,  0.0000,  0.0000)
  14 Sn     3.442115    1.969433   15.666872    ( 0.0000,  0.0000,  0.0000)
  15 Sn     3.416078   -0.005840   18.383284    ( 0.0000,  0.0000,  0.0000)
  16 Sn     1.710646    2.962925   10.000000    ( 0.0000,  0.0000,  0.0000)
  17 Sn     3.421291    3.950567   12.793473    ( 0.0000,  0.0000,  0.0000)
  18 Sn     1.717713    4.934128   15.650944    ( 0.0000,  0.0000,  0.0000)
  19 Sn     1.707903    2.915166   18.476186    ( 0.0000,  0.0000,  0.0000)
  20 Sn    -0.000000    5.925850   10.000000    ( 0.0000,  0.0000,  0.0000)
  21 Sn     1.710646    6.913492   12.793473    ( 0.0000,  0.0000,  0.0000)
  22 Sn     0.005263    7.917020   15.670490    ( 0.0000,  0.0000,  0.0000)
  23 Sn    -0.048788    5.954018   18.483102    ( 0.0000,  0.0000,  0.0000)
  24 Sn     6.842582    0.000000   10.000000    ( 0.0000,  0.0000,  0.0000)
  25 Sn     8.553228    0.987642   12.793473    ( 0.0000,  0.0000,  0.0000)
  26 Sn     6.849692    1.971179   15.718557    ( 0.0000,  0.0000,  0.0000)
  27 Sn     6.836352   -0.006305   18.388181    ( 0.0000,  0.0000,  0.0000)
  28 Sn     5.131937    2.962925   10.000000    ( 0.0000,  0.0000,  0.0000)
  29 Sn     6.842582    3.950567   12.793473    ( 0.0000,  0.0000,  0.0000)
  30 Sn     5.147415    4.923100   15.666872    ( 0.0000,  0.0000,  0.0000)
  31 Sn     5.122280    2.968501   18.390018    ( 0.0000,  0.0000,  0.0000)
  32 Sn     3.421291    5.925850   10.000000    ( 0.0000,  0.0000,  0.0000)
  33 Sn     5.131937    6.913492   12.793473    ( 0.0000,  0.0000,  0.0000)
  34 Sn     3.425253    7.919312   15.668674    ( 0.0000,  0.0000,  0.0000)
  35 Sn     3.461280    5.952105   18.476186    ( 0.0000,  0.0000,  0.0000)
  36 O      1.714826    4.935795   19.317785    ( 0.0000,  0.0000,  0.0000)

Unit cell:
           periodic     x           y           z      points  spacing
  1. axis:    yes   10.263874    0.000000    0.000000    48     0.1852
  2. axis:    yes   -5.131937    8.888775    0.000000    48     0.1852
  3. axis:    no     0.000000    0.000000   28.380418   156     0.1819

  Lengths:  10.263874  10.263874  28.380418
  Angles:   90.000000  90.000000 120.000000

Effective grid spacing dv^(1/3) = 0.1931

     iter     time        total  log10-change:
                         energy  eigst   dens
iter:   1 23:57:54 -5905.055397  -3.93
iter:   2 23:58:23 -5905.055314  -4.87  -3.87
iter:   3 23:58:52 -5905.055246c -5.38  -3.88
iter:   4 23:59:22 -5905.055140c -5.48  -3.98
iter:   5 23:59:51 -5905.055175c -6.02  -4.28c
iter:   6 00:00:20 -5905.055130c -5.95  -4.25c
iter:   7 00:00:49 -5905.055123c -6.19  -4.58c
iter:   8 00:01:18 -5905.055130c -7.00  -4.64c
iter:   9 00:01:47 -5905.055129c -7.34  -4.83c
iter:  10 00:02:16 -5905.055128c -7.92c -4.91c

Converged after 10 iterations.

Dipole moment: (-9.530838, -11.073625, -0.111240) |e|*Ang

Energy contributions relative to reference atoms: (reference = -6050425.811357)

Kinetic:       +934.337103
Potential:     -893.263062
External:        +0.000000
XC:            -5944.018142
Entropy (-ST):   -0.635985
Local:           -1.793034
--------------------------
Free energy:   -5905.373121
Extrapolated:  -5905.055128

Showing only first 2 kpts
 Kpt  Band  Eigenvalues  Occupancy
  0   253     -4.84267    1.99082
  0   254     -4.75312    1.97767
  0   255     -4.67597    1.95233
  0   256     -4.61115    1.91078

  1   253     -4.66712    1.94803
  1   254     -4.60739    1.90752
  1   255     -4.56535    1.86252
  1   256     -4.48366    1.71367


Fermi level: -4.30473

No gap

Forces in eV/Ang:
  0 Sn    0.01077   -0.00622    0.13450
  1 Sn    0.00580   -0.02447   -0.20424
  2 Sn    0.04232    0.02387    0.01639
  3 Sn   -0.01105    0.00638   -0.00485
  4 Sn   -0.01728   -0.01023    0.12100
  5 Sn   -0.03382   -0.00303   -0.17350
  6 Sn    0.05113    0.01993    0.02323
  7 Sn   -0.00137    0.00178   -0.01127
  8 Sn   -0.01948   -0.01275    0.14303
  9 Sn   -0.03407    0.01967   -0.20924
 10 Sn    0.01005   -0.00580   -0.00005
 11 Sn   -0.00937   -0.01532   -0.00439
 12 Sn    0.00130    0.02324    0.14303
 13 Sn   -0.00849    0.01566   -0.17445
 14 Sn   -0.02874    0.01748    0.01588
 15 Sn    0.00858    0.01578   -0.00439
 16 Sn    0.02156   -0.03226    0.15430
 17 Sn    0.03158   -0.01823   -0.16593
 18 Sn    0.01074   -0.00620    0.01661
 19 Sn    0.00050    0.00766    0.01519
 20 Sn   -0.00624    0.00360    0.16800
 21 Sn   -0.01429    0.03080   -0.17350
 22 Sn    0.00831   -0.05424    0.02323
 23 Sn    0.02063   -0.01191    0.02660
 24 Sn    0.00022    0.02008    0.12100
 25 Sn   -0.01446    0.00835   -0.16561
 26 Sn    0.01000   -0.00577    0.01465
 27 Sn   -0.00223    0.00029   -0.01127
 28 Sn   -0.00469    0.00271    0.13715
 29 Sn   -0.01780   -0.00048   -0.17445
 30 Sn   -0.02951    0.01614    0.01588
 31 Sn    0.00364   -0.00210   -0.01650
 32 Sn    0.03872   -0.00254    0.15430
 33 Sn    0.02409    0.00721   -0.20424
 34 Sn    0.00049   -0.04859    0.01639
 35 Sn   -0.00639   -0.00427    0.01519
 36 O     0.00149   -0.00086   -0.01927

BFGS:    6 00:02:27    -5905.055128        0.0596
System changes: positions 

Initializing position-dependent things.

Density initialized from wave functions
                                                  
                                                  
                                                  
                                                  
                                                  
                      O                           
           Sn      Sn      Sn                     
                                                  
            SSn     SSn     SnSn                  
               Sn       Sn      Sn                
              Sn       Sn      Sn                 
                 Sn      Sn      Sn               
               Sn       Sn      Sn                
                                                  
                  Sn      Sn      Sn              
                    Sn       Sn      Sn           
           Sn      Sn      Sn                     
                                                  
             Sn      Sn       Sn                  
               Sn       Sn      Sn                
                                                  
                                                  
                                                  
                                                  

Positions:
   0 Sn    -0.000000    0.000000   10.000000    ( 0.0000,  0.0000,  0.0000)
   1 Sn     1.710646    0.987642   12.793473    ( 0.0000,  0.0000,  0.0000)
   2 Sn    -0.011572    1.964134   15.670614    ( 0.0000,  0.0000,  0.0000)
   3 Sn     0.008169   -0.004716   18.379377    ( 0.0000,  0.0000,  0.0000)
   4 Sn    -1.710646    2.962925   10.000000    ( 0.0000,  0.0000,  0.0000)
   5 Sn    -0.000000    3.950567   12.793473    ( 0.0000,  0.0000,  0.0000)
   6 Sn    -1.719323    4.926929   15.672643    ( 0.0000,  0.0000,  0.0000)
   7 Sn    -1.708313    2.971373   18.387770    ( 0.0000,  0.0000,  0.0000)
   8 Sn    -3.421291    5.925850   10.000000    ( 0.0000,  0.0000,  0.0000)
   9 Sn    -1.710646    6.913492   12.793473    ( 0.0000,  0.0000,  0.0000)
  10 Sn    -3.417474    7.898930   15.727281    ( 0.0000,  0.0000,  0.0000)
  11 Sn    -3.419310    5.932431   18.383273    ( 0.0000,  0.0000,  0.0000)
  12 Sn     3.421291    0.000000   10.000000    ( 0.0000,  0.0000,  0.0000)
  13 Sn     5.131937    0.987642   12.793473    ( 0.0000,  0.0000,  0.0000)
  14 Sn     3.440252    1.970342   15.668850    ( 0.0000,  0.0000,  0.0000)
  15 Sn     3.416583   -0.005006   18.383273    ( 0.0000,  0.0000,  0.0000)
  16 Sn     1.710646    2.962925   10.000000    ( 0.0000,  0.0000,  0.0000)
  17 Sn     3.421291    3.950567   12.793473    ( 0.0000,  0.0000,  0.0000)
  18 Sn     1.717883    4.934030   15.653412    ( 0.0000,  0.0000,  0.0000)
  19 Sn     1.707945    2.914314   18.473372    ( 0.0000,  0.0000,  0.0000)
  20 Sn    -0.000000    5.925850   10.000000    ( 0.0000,  0.0000,  0.0000)
  21 Sn     1.710646    6.913492   12.793473    ( 0.0000,  0.0000,  0.0000)
  22 Sn     0.005430    7.914288   15.672643    ( 0.0000,  0.0000,  0.0000)
  23 Sn    -0.048707    5.953971   18.480596    ( 0.0000,  0.0000,  0.0000)
  24 Sn     6.842582    0.000000   10.000000    ( 0.0000,  0.0000,  0.0000)
  25 Sn     8.553228    0.987642   12.793473    ( 0.0000,  0.0000,  0.0000)
  26 Sn     6.849839    1.971094   15.718823    ( 0.0000,  0.0000,  0.0000)
  27 Sn     6.836433   -0.006244   18.387770    ( 0.0000,  0.0000,  0.0000)
  28 Sn     5.131937    2.962925   10.000000    ( 0.0000,  0.0000,  0.0000)
  29 Sn     6.842582    3.950567   12.793473    ( 0.0000,  0.0000,  0.0000)
  30 Sn     5.145697    4.924258   15.668850    ( 0.0000,  0.0000,  0.0000)
  31 Sn     5.122617    2.968306   18.389328    ( 0.0000,  0.0000,  0.0000)
  32 Sn     3.421291    5.925850   10.000000    ( 0.0000,  0.0000,  0.0000)
  33 Sn     5.131937    6.913492   12.793473    ( 0.0000,  0.0000,  0.0000)
  34 Sn     3.425161    7.916730   15.670614    ( 0.0000,  0.0000,  0.0000)
  35 Sn     3.462039    5.952494   18.473372    ( 0.0000,  0.0000,  0.0000)
  36 O      1.714716    4.935859   19.320982    ( 0.0000,  0.0000,  0.0000)

Unit cell:
           periodic     x           y           z      points  spacing
  1. axis:    yes   10.263874    0.000000    0.000000    48     0.1852
  2. axis:    yes   -5.131937    8.888775    0.000000    48     0.1852
  3. axis:    no     0.000000    0.000000   28.380418   156     0.1819

  Lengths:  10.263874  10.263874  28.380418
  Angles:   90.000000  90.000000 120.000000

Effective grid spacing dv^(1/3) = 0.1931

     iter     time        total  log10-change:
                         energy  eigst   dens
iter:   1 00:03:18 -5905.056027  -3.73
iter:   2 00:03:47 -5905.055947  -4.71  -3.73
iter:   3 00:04:16 -5905.055862c -5.37  -3.81
iter:   4 00:04:45 -5905.055734c -5.29  -3.92
iter:   5 00:05:15 -5905.055746c -6.34  -4.16c
iter:   6 00:05:44 -5905.055724c -5.90  -4.24c
iter:   7 00:06:13 -5905.055724c -6.51  -4.53c
iter:   8 00:06:42 -5905.055725c -7.14  -4.60c
iter:   9 00:07:11 -5905.055724c -7.33  -4.70c
iter:  10 00:07:40 -5905.055725c -7.67c -4.79c

Converged after 10 iterations.

Dipole moment: (-9.288612, -11.223399, -0.114548) |e|*Ang

Energy contributions relative to reference atoms: (reference = -6050425.811357)

Kinetic:       +934.275928
Potential:     -893.210847
External:        +0.000000
XC:            -5944.007880
Entropy (-ST):   -0.636028
Local:           -1.794913
--------------------------
Free energy:   -5905.373739
Extrapolated:  -5905.055725

Showing only first 2 kpts
 Kpt  Band  Eigenvalues  Occupancy
  0   253     -4.84578    1.99088
  0   254     -4.75443    1.97743
  0   255     -4.67784    1.95207
  0   256     -4.61367    1.91086

  1   253     -4.66978    1.94815
  1   254     -4.61072    1.90832
  1   255     -4.56812    1.86296
  1   256     -4.48591    1.71326


Fermi level: -4.30716

No gap

Forces in eV/Ang:
  0 Sn    0.01073   -0.00620    0.13459
  1 Sn    0.00592   -0.02381   -0.20450
  2 Sn    0.03507    0.01875    0.00913
  3 Sn   -0.00843    0.00486   -0.00499
  4 Sn   -0.01746   -0.01063    0.12177
  5 Sn   -0.03491   -0.00372   -0.17464
  6 Sn    0.04295    0.01663    0.01577
  7 Sn   -0.00136    0.00173   -0.00895
  8 Sn   -0.01958   -0.01249    0.14345
  9 Sn   -0.03367    0.01944   -0.20969
 10 Sn    0.00993   -0.00573    0.00092
 11 Sn   -0.00678   -0.01169   -0.00370
 12 Sn    0.00102    0.02320    0.14345
 13 Sn   -0.00911    0.01543   -0.17301
 14 Sn   -0.02176    0.01311    0.00793
 15 Sn    0.00674    0.01172   -0.00370
 16 Sn    0.02152   -0.03198    0.15366
 17 Sn    0.03266   -0.01886   -0.16698
 18 Sn    0.01114   -0.00643    0.01442
 19 Sn    0.00060    0.03010    0.03796
 20 Sn   -0.00584    0.00337    0.16743
 21 Sn   -0.01423    0.03209   -0.17464
 22 Sn    0.00708   -0.04551    0.01577
 23 Sn    0.03465   -0.02001    0.04753
 24 Sn    0.00047    0.02044    0.12177
 25 Sn   -0.01363    0.00787   -0.16426
 26 Sn    0.01067   -0.00616    0.01381
 27 Sn   -0.00218    0.00031   -0.00895
 28 Sn   -0.00440    0.00254    0.13775
 29 Sn   -0.01792    0.00017   -0.17301
 30 Sn   -0.02223    0.01229    0.00793
 31 Sn    0.00243   -0.00140   -0.01303
 32 Sn    0.03846   -0.00264    0.15366
 33 Sn    0.02358    0.00678   -0.20450
 34 Sn    0.00130   -0.03975    0.00913
 35 Sn   -0.02577   -0.01557    0.03796
 36 O    -0.00236    0.00136   -0.02302

BFGS:    7 00:07:51    -5905.055725        0.0621
System changes: positions 

Initializing position-dependent things.

Density initialized from wave functions
                                                  
                                                  
                                                  
                                                  
                                                  
                      O                           
           Sn      Sn      Sn                     
                                                  
            SSn     SSn     SnSn                  
               Sn       Sn      Sn                
              Sn       Sn      Sn                 
                 Sn      Sn      Sn               
               Sn       Sn      Sn                
                                                  
                  Sn      Sn      Sn              
                    Sn       Sn      Sn           
           Sn      Sn      Sn                     
                                                  
             Sn      Sn       Sn                  
               Sn       Sn      Sn                
                                                  
                                                  
                                                  
                                                  

Positions:
   0 Sn    -0.000000    0.000000   10.000000    ( 0.0000,  0.0000,  0.0000)
   1 Sn     1.710646    0.987642   12.793473    ( 0.0000,  0.0000,  0.0000)
   2 Sn    -0.008874    1.965733   15.672357    ( 0.0000,  0.0000,  0.0000)
   3 Sn     0.007381   -0.004262   18.379315    ( 0.0000,  0.0000,  0.0000)
   4 Sn    -1.710646    2.962925   10.000000    ( 0.0000,  0.0000,  0.0000)
   5 Sn    -0.000000    3.950567   12.793473    ( 0.0000,  0.0000,  0.0000)
   6 Sn    -1.716196    4.928340   15.674737    ( 0.0000,  0.0000,  0.0000)
   7 Sn    -1.708362    2.971355   18.387185    ( 0.0000,  0.0000,  0.0000)
   8 Sn    -3.421291    5.925850   10.000000    ( 0.0000,  0.0000,  0.0000)
   9 Sn    -1.710646    6.913492   12.793473    ( 0.0000,  0.0000,  0.0000)
  10 Sn    -3.416996    7.898654   15.726838    ( 0.0000,  0.0000,  0.0000)
  11 Sn    -3.419873    5.931430   18.383163    ( 0.0000,  0.0000,  0.0000)
  12 Sn     3.421291    0.000000   10.000000    ( 0.0000,  0.0000,  0.0000)
  13 Sn     5.131937    0.987642   12.793473    ( 0.0000,  0.0000,  0.0000)
  14 Sn     3.438184    1.971435   15.670591    ( 0.0000,  0.0000,  0.0000)
  15 Sn     3.417168   -0.004018   18.383163    ( 0.0000,  0.0000,  0.0000)
  16 Sn     1.710646    2.962925   10.000000    ( 0.0000,  0.0000,  0.0000)
  17 Sn     3.421291    3.950567   12.793473    ( 0.0000,  0.0000,  0.0000)
  18 Sn     1.718325    4.933775   15.655590    ( 0.0000,  0.0000,  0.0000)
  19 Sn     1.707985    2.914040   18.472154    ( 0.0000,  0.0000,  0.0000)
  20 Sn    -0.000000    5.925850   10.000000    ( 0.0000,  0.0000,  0.0000)
  21 Sn     1.710646    6.913492   12.793473    ( 0.0000,  0.0000,  0.0000)
  22 Sn     0.005771    7.910875   15.674737    ( 0.0000,  0.0000,  0.0000)
  23 Sn    -0.048056    5.953595   18.479910    ( 0.0000,  0.0000,  0.0000)
  24 Sn     6.842582    0.000000   10.000000    ( 0.0000,  0.0000,  0.0000)
  25 Sn     8.553228    0.987642   12.793473    ( 0.0000,  0.0000,  0.0000)
  26 Sn     6.850249    1.970857   15.719418    ( 0.0000,  0.0000,  0.0000)
  27 Sn     6.836423   -0.006192   18.387185    ( 0.0000,  0.0000,  0.0000)
  28 Sn     5.131937    2.962925   10.000000    ( 0.0000,  0.0000,  0.0000)
  29 Sn     6.842582    3.950567   12.793473    ( 0.0000,  0.0000,  0.0000)
  30 Sn     5.143716    4.925503   15.670591    ( 0.0000,  0.0000,  0.0000)
  31 Sn     5.122946    2.968116   18.388412    ( 0.0000,  0.0000,  0.0000)
  32 Sn     3.421291    5.925850   10.000000    ( 0.0000,  0.0000,  0.0000)
  33 Sn     5.131937    6.913492   12.793473    ( 0.0000,  0.0000,  0.0000)
  34 Sn     3.425125    7.913594   15.672357    ( 0.0000,  0.0000,  0.0000)
  35 Sn     3.462297    5.952597   18.472154    ( 0.0000,  0.0000,  0.0000)
  36 O      1.714591    4.935931   19.322920    ( 0.0000,  0.0000,  0.0000)

Unit cell:
           periodic     x           y           z      points  spacing
  1. axis:    yes   10.263874    0.000000    0.000000    48     0.1852
  2. axis:    yes   -5.131937    8.888775    0.000000    48     0.1852
  3. axis:    no     0.000000    0.000000   28.380418   156     0.1819

  Lengths:  10.263874  10.263874  28.380418
  Angles:   90.000000  90.000000 120.000000

Effective grid spacing dv^(1/3) = 0.1931

     iter     time        total  log10-change:
                         energy  eigst   dens
iter:   1 00:08:42 -5905.056739  -3.81
iter:   2 00:09:11 -5905.056620  -4.77  -3.62
iter:   3 00:09:40 -5905.056482c -5.48  -3.72
iter:   4 00:10:10 -5905.056353c -5.31  -3.95
iter:   5 00:10:39 -5905.056370c -6.41  -4.23c
iter:   6 00:11:08 -5905.056361c -6.39  -4.32c
iter:   7 00:11:37 -5905.056358c -6.36  -4.51c
iter:   8 00:12:06 -5905.056364c -6.88  -4.66c
iter:   9 00:12:36 -5905.056357c -7.06  -4.76c
iter:  10 00:13:05 -5905.056358c -8.08c -4.89c

Converged after 10 iterations.

Dipole moment: (-8.999858, -11.402171, -0.116129) |e|*Ang

Energy contributions relative to reference atoms: (reference = -6050425.811357)

Kinetic:       +934.257277
Potential:     -893.194278
External:        +0.000000
XC:            -5944.007707
Entropy (-ST):   -0.636095
Local:           -1.793603
--------------------------
Free energy:   -5905.374405
Extrapolated:  -5905.056358

Showing only first 2 kpts
 Kpt  Band  Eigenvalues  Occupancy
  0   253     -4.84757    1.99091
  0   254     -4.75482    1.97719
  0   255     -4.67865    1.95176
  0   256     -4.61508    1.91082

  1   253     -4.67147    1.94826
  1   254     -4.61282    1.90887
  1   255     -4.56985    1.86330
  1   256     -4.48722    1.71289


Fermi level: -4.30862

No gap

Forces in eV/Ang:
  0 Sn    0.01068   -0.00617    0.13364
  1 Sn    0.00593   -0.02371   -0.20337
  2 Sn    0.02710    0.01278    0.00335
  3 Sn   -0.00440    0.00254   -0.00483
  4 Sn   -0.01707   -0.01064    0.12099
  5 Sn   -0.03517   -0.00392   -0.17523
  6 Sn    0.03312    0.01306    0.00961
  7 Sn   -0.00037    0.00201   -0.00515
  8 Sn   -0.01960   -0.01219    0.14275
  9 Sn   -0.03362    0.01941   -0.20891
 10 Sn    0.00988   -0.00570    0.00123
 11 Sn   -0.00381   -0.00620   -0.00269
 12 Sn    0.00076    0.02307    0.14275
 13 Sn   -0.00974    0.01510   -0.16851
 14 Sn   -0.01442    0.00764    0.00175
 15 Sn    0.00347    0.00640   -0.00269
 16 Sn    0.02148   -0.03138    0.15253
 17 Sn    0.03269   -0.01887   -0.16754
 18 Sn    0.01147   -0.00662    0.00880
 19 Sn    0.00078    0.03652    0.05102
 20 Sn   -0.00529    0.00306    0.16642
 21 Sn   -0.01419    0.03242   -0.17523
 22 Sn    0.00525   -0.03521    0.00961
 23 Sn    0.03375   -0.01948    0.05865
 24 Sn    0.00068    0.02010    0.12099
 25 Sn   -0.01274    0.00735   -0.15986
 26 Sn    0.01135   -0.00655    0.00987
 27 Sn   -0.00192   -0.00068   -0.00515
 28 Sn   -0.00461    0.00266    0.13686
 29 Sn   -0.01795    0.00088   -0.16851
 30 Sn   -0.01383    0.00867    0.00175
 31 Sn    0.00064   -0.00037   -0.00810
 32 Sn    0.03792   -0.00291    0.15253
 33 Sn    0.02350    0.00671   -0.20337
 34 Sn    0.00248   -0.02986    0.00335
 35 Sn   -0.03124   -0.01893    0.05102
 36 O    -0.00433    0.00250   -0.02846

BFGS:    8 00:13:15    -5905.056358        0.0704
System changes: positions 

Initializing position-dependent things.

Density initialized from wave functions
                                                  
                                                  
                                                  
                                                  
                                                  
                       O                          
           Sn      Sn      Sn                     
                                                  
            SSn     SSn     SnSn                  
               Sn       Sn      Sn                
              Sn       Sn      Sn                 
                 Sn      Sn      Sn               
               Sn       Sn      Sn                
                                                  
                  Sn      Sn      Sn              
                    Sn       Sn      Sn           
           Sn      Sn      Sn                     
                                                  
             Sn      Sn       Sn                  
               Sn       Sn      Sn                
                                                  
                                                  
                                                  
                                                  

Positions:
   0 Sn    -0.000000    0.000000   10.000000    ( 0.0000,  0.0000,  0.0000)
   1 Sn     1.710646    0.987642   12.793473    ( 0.0000,  0.0000,  0.0000)
   2 Sn    -0.003507    1.968694   15.674455    ( 0.0000,  0.0000,  0.0000)
   3 Sn     0.006063   -0.003500   18.378705    ( 0.0000,  0.0000,  0.0000)
   4 Sn    -1.710646    2.962925   10.000000    ( 0.0000,  0.0000,  0.0000)
   5 Sn    -0.000000    3.950567   12.793473    ( 0.0000,  0.0000,  0.0000)
   6 Sn    -1.709777    4.930942   15.677718    ( 0.0000,  0.0000,  0.0000)
   7 Sn    -1.708421    2.971627   18.385850    ( 0.0000,  0.0000,  0.0000)
   8 Sn    -3.421291    5.925850   10.000000    ( 0.0000,  0.0000,  0.0000)
   9 Sn    -1.710646    6.913492   12.793473    ( 0.0000,  0.0000,  0.0000)
  10 Sn    -3.415722    7.897918   15.726614    ( 0.0000,  0.0000,  0.0000)
  11 Sn    -3.420964    5.929616   18.382645    ( 0.0000,  0.0000,  0.0000)
  12 Sn     3.421291    0.000000   10.000000    ( 0.0000,  0.0000,  0.0000)
  13 Sn     5.131937    0.987642   12.793473    ( 0.0000,  0.0000,  0.0000)
  14 Sn     3.434557    1.973524   15.672591    ( 0.0000,  0.0000,  0.0000)
  15 Sn     3.418193   -0.002166   18.382645    ( 0.0000,  0.0000,  0.0000)
  16 Sn     1.710646    2.962925   10.000000    ( 0.0000,  0.0000,  0.0000)
  17 Sn     3.421291    3.950567   12.793473    ( 0.0000,  0.0000,  0.0000)
  18 Sn     1.719690    4.932987   15.657949    ( 0.0000,  0.0000,  0.0000)
  19 Sn     1.708001    2.913132   18.473881    ( 0.0000,  0.0000,  0.0000)
  20 Sn    -0.000000    5.925850   10.000000    ( 0.0000,  0.0000,  0.0000)
  21 Sn     1.710646    6.913492   12.793473    ( 0.0000,  0.0000,  0.0000)
  22 Sn     0.006727    7.904015   15.677718    ( 0.0000,  0.0000,  0.0000)
  23 Sn    -0.047328    5.953175   18.483056    ( 0.0000,  0.0000,  0.0000)
  24 Sn     6.842582    0.000000   10.000000    ( 0.0000,  0.0000,  0.0000)
  25 Sn     8.553228    0.987642   12.793473    ( 0.0000,  0.0000,  0.0000)
  26 Sn     6.851547    1.970107   15.721077    ( 0.0000,  0.0000,  0.0000)
  27 Sn     6.836159   -0.006277   18.385850    ( 0.0000,  0.0000,  0.0000)
  28 Sn     5.131937    2.962925   10.000000    ( 0.0000,  0.0000,  0.0000)
  29 Sn     6.842582    3.950567   12.793473    ( 0.0000,  0.0000,  0.0000)
  30 Sn     5.140093    4.927600   15.672591    ( 0.0000,  0.0000,  0.0000)
  31 Sn     5.123308    2.967907   18.386428    ( 0.0000,  0.0000,  0.0000)
  32 Sn     3.421291    5.925850   10.000000    ( 0.0000,  0.0000,  0.0000)
  33 Sn     5.131937    6.913492   12.793473    ( 0.0000,  0.0000,  0.0000)
  34 Sn     3.425244    7.907465   15.674455    ( 0.0000,  0.0000,  0.0000)
  35 Sn     3.463091    5.953037   18.473881    ( 0.0000,  0.0000,  0.0000)
  36 O      1.714427    4.936025   19.323376    ( 0.0000,  0.0000,  0.0000)

Unit cell:
           periodic     x           y           z      points  spacing
  1. axis:    yes   10.263874    0.000000    0.000000    48     0.1852
  2. axis:    yes   -5.131937    8.888775    0.000000    48     0.1852
  3. axis:    no     0.000000    0.000000   28.380418   156     0.1819

  Lengths:  10.263874  10.263874  28.380418
  Angles:   90.000000  90.000000 120.000000

Effective grid spacing dv^(1/3) = 0.1931

     iter     time        total  log10-change:
                         energy  eigst   dens
iter:   1 00:14:06 -5905.058748  -3.32
iter:   2 00:14:36 -5905.058359  -4.27  -3.38
iter:   3 00:15:05 -5905.057916c -4.98  -3.47
iter:   4 00:15:34 -5905.057665c -5.01  -3.77
iter:   5 00:16:03 -5905.057666c -5.72  -4.02c
iter:   6 00:16:32 -5905.057657c -5.90  -4.17c
iter:   7 00:17:02 -5905.057661c -6.30  -4.31c
iter:   8 00:17:31 -5905.057671c -6.64  -4.46c
iter:   9 00:18:00 -5905.057667c -7.29  -4.59c
iter:  10 00:18:29 -5905.057667c -7.70c -4.69c

Converged after 10 iterations.

Dipole moment: (-8.468516, -11.732445, -0.115776) |e|*Ang

Energy contributions relative to reference atoms: (reference = -6050425.811357)

Kinetic:       +934.290187
Potential:     -893.223325
External:        +0.000000
XC:            -5944.014660
Entropy (-ST):   -0.636185
Local:           -1.791776
--------------------------
Free energy:   -5905.375759
Extrapolated:  -5905.057667

Showing only first 2 kpts
 Kpt  Band  Eigenvalues  Occupancy
  0   253     -4.84813    1.99092
  0   254     -4.75340    1.97674
  0   255     -4.67799    1.95120
  0   256     -4.61517    1.91045

  1   253     -4.67252    1.94853
  1   254     -4.61401    1.90945
  1   255     -4.57024    1.86313
  1   256     -4.48754    1.71238


Fermi level: -4.30914

No gap

Forces in eV/Ang:
  0 Sn    0.01014   -0.00585    0.13269
  1 Sn    0.00590   -0.02381   -0.20246
  2 Sn    0.01290    0.00258   -0.00120
  3 Sn    0.00181   -0.00105   -0.00526
  4 Sn   -0.01689   -0.01096    0.11938
  5 Sn   -0.03319   -0.00293   -0.17597
  6 Sn    0.01532    0.00430    0.00353
  7 Sn    0.00408    0.00306    0.00267
  8 Sn   -0.01962   -0.01218    0.14220
  9 Sn   -0.03355    0.01937   -0.20897
 10 Sn    0.00943   -0.00545    0.00145
 11 Sn    0.00207    0.00347   -0.00116
 12 Sn    0.00074    0.02308    0.14220
 13 Sn   -0.01205    0.01368   -0.16223
 14 Sn   -0.00284   -0.00040   -0.00318
 15 Sn   -0.00197   -0.00353   -0.00116
 16 Sn    0.02141   -0.03037    0.15143
 17 Sn    0.03010   -0.01738   -0.16852
 18 Sn    0.01208   -0.00698    0.00037
 19 Sn    0.00172    0.03572    0.05487
 20 Sn   -0.00448    0.00259    0.16556
 21 Sn   -0.01406    0.03021   -0.17597
 22 Sn    0.00394   -0.01541    0.00353
 23 Sn    0.02045   -0.01181    0.05885
 24 Sn    0.00104    0.02011    0.11938
 25 Sn   -0.00979    0.00565   -0.15389
 26 Sn    0.01258   -0.00726    0.00300
 27 Sn   -0.00060   -0.00507    0.00267
 28 Sn   -0.00440    0.00254    0.13519
 29 Sn   -0.01788    0.00360   -0.16223
 30 Sn   -0.00108    0.00266   -0.00318
 31 Sn   -0.00439    0.00253    0.00132
 32 Sn    0.03701   -0.00335    0.15143
 33 Sn    0.02357    0.00680   -0.20246
 34 Sn    0.00422   -0.01246   -0.00120
 35 Sn   -0.03007   -0.01935    0.05487
 36 O     0.00008   -0.00004   -0.02917

BFGS:    9 00:18:40    -5905.057667        0.0655
System changes: positions 

Initializing position-dependent things.

Density initialized from wave functions
                                                  
                                                  
                                                  
                                                  
                                                  
                       O                          
           Sn      Sn      Sn                     
                                                  
            SSn     SSn     SnSn                  
               Sn       Sn      Sn                
              Sn       Sn      Sn                 
                 Sn      Sn      Sn               
               Sn       Sn      Sn                
                                                  
                  Sn      Sn      Sn              
                    Sn       Sn      Sn           
           Sn      Sn      Sn                     
                                                  
             Sn      Sn       Sn                  
               Sn       Sn      Sn                
                                                  
                                                  
                                                  
                                                  

Positions:
   0 Sn    -0.000000    0.000000   10.000000    ( 0.0000,  0.0000,  0.0000)
   1 Sn     1.710646    0.987642   12.793473    ( 0.0000,  0.0000,  0.0000)
   2 Sn     0.002421    1.971693   15.675330    ( 0.0000,  0.0000,  0.0000)
   3 Sn     0.004905   -0.002832   18.377441    ( 0.0000,  0.0000,  0.0000)
   4 Sn    -1.710646    2.962925   10.000000    ( 0.0000,  0.0000,  0.0000)
   5 Sn    -0.000000    3.950567   12.793473    ( 0.0000,  0.0000,  0.0000)
   6 Sn    -1.702480    4.933524   15.679773    ( 0.0000,  0.0000,  0.0000)
   7 Sn    -1.708344    2.972304   18.384250    ( 0.0000,  0.0000,  0.0000)
   8 Sn    -3.421291    5.925850   10.000000    ( 0.0000,  0.0000,  0.0000)
   9 Sn    -1.710646    6.913492   12.793473    ( 0.0000,  0.0000,  0.0000)
  10 Sn    -3.413915    7.896875   15.727102    ( 0.0000,  0.0000,  0.0000)
  11 Sn    -3.422089    5.927871   18.381727    ( 0.0000,  0.0000,  0.0000)
  12 Sn     3.421291    0.000000   10.000000    ( 0.0000,  0.0000,  0.0000)
  13 Sn     5.131937    0.987642   12.793473    ( 0.0000,  0.0000,  0.0000)
  14 Sn     3.431107    1.975724   15.673248    ( 0.0000,  0.0000,  0.0000)
  15 Sn     3.419142   -0.000319   18.381727    ( 0.0000,  0.0000,  0.0000)
  16 Sn     1.710646    2.962925   10.000000    ( 0.0000,  0.0000,  0.0000)
  17 Sn     3.421291    3.950567   12.793473    ( 0.0000,  0.0000,  0.0000)
  18 Sn     1.721797    4.931770   15.658368    ( 0.0000,  0.0000,  0.0000)
  19 Sn     1.707969    2.911553   18.480301    ( 0.0000,  0.0000,  0.0000)
  20 Sn    -0.000000    5.925850   10.000000    ( 0.0000,  0.0000,  0.0000)
  21 Sn     1.710646    6.913492   12.793473    ( 0.0000,  0.0000,  0.0000)
  22 Sn     0.008140    7.896404   15.679773    ( 0.0000,  0.0000,  0.0000)
  23 Sn    -0.047433    5.953236   18.491444    ( 0.0000,  0.0000,  0.0000)
  24 Sn     6.842582    0.000000   10.000000    ( 0.0000,  0.0000,  0.0000)
  25 Sn     8.553228    0.987642   12.793473    ( 0.0000,  0.0000,  0.0000)
  26 Sn     6.853583    1.968932   15.723419    ( 0.0000,  0.0000,  0.0000)
  27 Sn     6.835611   -0.006683   18.384250    ( 0.0000,  0.0000,  0.0000)
  28 Sn     5.131937    2.962925   10.000000    ( 0.0000,  0.0000,  0.0000)
  29 Sn     6.842582    3.950567   12.793473    ( 0.0000,  0.0000,  0.0000)
  30 Sn     5.136463    4.929488   15.673248    ( 0.0000,  0.0000,  0.0000)
  31 Sn     5.123297    2.967913   18.384119    ( 0.0000,  0.0000,  0.0000)
  32 Sn     3.421291    5.925850   10.000000    ( 0.0000,  0.0000,  0.0000)
  33 Sn     5.131937    6.913492   12.793473    ( 0.0000,  0.0000,  0.0000)
  34 Sn     3.425611    7.900832   15.675330    ( 0.0000,  0.0000,  0.0000)
  35 Sn     3.464442    5.953854   18.480301    ( 0.0000,  0.0000,  0.0000)
  36 O      1.714497    4.935985   19.320234    ( 0.0000,  0.0000,  0.0000)

Unit cell:
           periodic     x           y           z      points  spacing
  1. axis:    yes   10.263874    0.000000    0.000000    48     0.1852
  2. axis:    yes   -5.131937    8.888775    0.000000    48     0.1852
  3. axis:    no     0.000000    0.000000   28.380418   156     0.1819

  Lengths:  10.263874  10.263874  28.380418
  Angles:   90.000000  90.000000 120.000000

Effective grid spacing dv^(1/3) = 0.1931

     iter     time        total  log10-change:
                         energy  eigst   dens
iter:   1 00:19:31 -5905.059642  -3.09
iter:   2 00:20:00 -5905.059466  -4.05  -3.45
iter:   3 00:20:29 -5905.059189c -4.74  -3.50
iter:   4 00:20:58 -5905.058967c -4.88  -3.73
iter:   5 00:21:27 -5905.058981c -5.70  -3.95
iter:   6 00:21:57 -5905.058969c -5.78  -4.06c
iter:   7 00:22:26 -5905.058969c -6.04  -4.22c
iter:   8 00:22:55 -5905.058974c -6.77  -4.37c
iter:   9 00:23:24 -5905.058974c -6.81  -4.48c
iter:  10 00:23:53 -5905.058977c -7.39  -4.60c
iter:  11 00:24:23 -5905.058977c -7.91c -4.69c

Converged after 11 iterations.

Dipole moment: (-7.949874, -12.056931, -0.111581) |e|*Ang

Energy contributions relative to reference atoms: (reference = -6050425.811357)

Kinetic:       +934.382044
Potential:     -893.305960
External:        +0.000000
XC:            -5944.028249
Entropy (-ST):   -0.636239
Local:           -1.788693
--------------------------
Free energy:   -5905.377096
Extrapolated:  -5905.058977

Showing only first 2 kpts
 Kpt  Band  Eigenvalues  Occupancy
  0   253     -4.84542    1.99087
  0   254     -4.74914    1.97626
  0   255     -4.67457    1.95061
  0   256     -4.61220    1.90977

  1   253     -4.67097    1.94885
  1   254     -4.61200    1.90960
  1   255     -4.56711    1.86192
  1   256     -4.48525    1.71213


Fermi level: -4.30695

No gap

Forces in eV/Ang:
  0 Sn    0.00845   -0.00488    0.13470
  1 Sn    0.00610   -0.02539   -0.20270
  2 Sn    0.00062   -0.00799    0.00382
  3 Sn    0.00682   -0.00394   -0.00697
  4 Sn   -0.01819   -0.01180    0.12106
  5 Sn   -0.03192   -0.00277   -0.17902
  6 Sn   -0.00044   -0.00705    0.00677
  7 Sn    0.00753    0.00253    0.00894
  8 Sn   -0.01960   -0.01382    0.14441
  9 Sn   -0.03450    0.01992   -0.21006
 10 Sn    0.00930   -0.00537    0.00025
 11 Sn    0.00607    0.01097   -0.00194
 12 Sn    0.00217    0.02388    0.14441
 13 Sn   -0.01169    0.01341   -0.16224
 14 Sn    0.00501   -0.00738    0.00274
 15 Sn   -0.00647   -0.01074   -0.00194
 16 Sn    0.02139   -0.02974    0.15230
 17 Sn    0.02877   -0.01661   -0.17269
 18 Sn    0.01169   -0.00675    0.00443
 19 Sn    0.00221    0.01176    0.03229
 20 Sn   -0.00413    0.00239    0.16649
 21 Sn   -0.01356    0.02903   -0.17902
 22 Sn    0.00589    0.00390    0.00677
 23 Sn   -0.00948    0.00547    0.03523
 24 Sn    0.00112    0.02166    0.12106
 25 Sn   -0.00920    0.00531   -0.15379
 26 Sn    0.01433   -0.00828   -0.00081
 27 Sn    0.00157   -0.00779    0.00894
 28 Sn   -0.00280    0.00161    0.13711
 29 Sn   -0.01746    0.00342   -0.16224
 30 Sn    0.00889   -0.00065    0.00274
 31 Sn   -0.00674    0.00389    0.00824
 32 Sn    0.03645   -0.00365    0.15230
 33 Sn    0.02504    0.00741   -0.20270
 34 Sn    0.00723    0.00346    0.00382
 35 Sn   -0.00908   -0.00779    0.03229
 36 O     0.01245   -0.00719   -0.01054

BFGS:   10 00:24:33    -5905.058977        0.0369
Timing:                                      incl.     excl.
-------------------------------------------------------------------
Density initialized from wave functions:     1.301     0.841   0.0% |
 Symmetrize density:                         0.461     0.461   0.0% |
Forces:                                    118.467   118.467   2.5% ||
Hamiltonian:                                46.251     0.002   0.0% |
 Atomic:                                     0.003     0.003   0.0% |
  XC Correction:                             0.000     0.000   0.0% |
 Calculate atomic Hamiltonians:              0.004     0.004   0.0% |
 Communicate:                                1.790     1.790   0.0% |
 Hartree integrate/restrict:                 0.044     0.044   0.0% |
 Initialize Hamiltonian:                     0.001     0.001   0.0% |
 Poisson:                                    0.912     0.026   0.0% |
  Communicate from 1D:                       0.156     0.156   0.0% |
  Communicate from 2D:                       0.137     0.137   0.0% |
  Communicate to 1D:                         0.132     0.132   0.0% |
  Communicate to 2D:                         0.174     0.174   0.0% |
  FFT 1D:                                    0.137     0.137   0.0% |
  FFT 2D:                                    0.150     0.150   0.0% |
 XC 3D grid:                                43.351     3.730   0.1% |
  VdW-DF integral:                          39.621     0.431   0.0% |
   Convolution:                              4.698     4.698   0.1% |
   FFT:                                      2.573     2.573   0.1% |
   gather:                                  10.549    10.549   0.2% |
   hmm1:                                     0.762     0.762   0.0% |
   hmm2:                                     1.525     1.525   0.0% |
   iFFT:                                     2.641     2.641   0.1% |
   potential:                               12.046     0.183   0.0% |
    collect:                                 1.153     1.153   0.0% |
    p1:                                      6.978     6.978   0.1% |
    p2:                                      2.343     2.343   0.1% |
    sum:                                     1.388     1.388   0.0% |
   splines:                                  4.395     4.395   0.1% |
 vbar:                                       0.144     0.144   0.0% |
LCAO initialization:                        14.115     0.908   0.0% |
 LCAO eigensolver:                           2.761     0.009   0.0% |
  Calculate projections:                     0.000     0.000   0.0% |
  DenseAtomicCorrection:                     0.000     0.000   0.0% |
  Distribute overlap matrix:                 1.335     1.335   0.0% |
  Orbital Layouts:                           1.381     1.381   0.0% |
  Potential matrix:                          0.002     0.002   0.0% |
  Sum over cells:                            0.033     0.033   0.0% |
 LCAO to grid:                               9.762     9.762   0.2% |
 Set positions (LCAO WFS):                   0.684     0.569   0.0% |
  Basic WFS set positions:                   0.003     0.003   0.0% |
  Basis functions set positions:             0.000     0.000   0.0% |
  P tci:                                     0.001     0.001   0.0% |
  ST tci:                                    0.073     0.073   0.0% |
  mktci:                                     0.038     0.038   0.0% |
Redistribute:                                0.008     0.008   0.0% |
SCF-cycle:                                4298.173    23.570   0.5% |
 Davidson:                                3706.776   809.172  17.3% |------|
  Apply hamiltonian:                       122.768   122.768   2.6% ||
  Subspace diag:                           521.511     0.060   0.0% |
   calc_h_matrix:                          257.049   134.865   2.9% ||
    Apply hamiltonian:                     122.184   122.184   2.6% ||
   diagonalize:                             14.810    14.810   0.3% |
   rotate_psi:                             249.592   249.592   5.3% |-|
  calc. matrices:                         1597.079   912.301  19.6% |-------|
   Apply hamiltonian:                      684.777   684.777  14.7% |-----|
  diagonalize:                             158.645   158.645   3.4% ||
  rotate_psi:                              497.601   497.601  10.7% |---|
 Density:                                   14.291     0.003   0.0% |
  Atomic density matrices:                   0.825     0.825   0.0% |
  Mix:                                       0.904     0.904   0.0% |
  Multipole moments:                         0.026     0.026   0.0% |
  Pseudo density:                           12.532     6.368   0.1% |
   Symmetrize density:                       6.165     6.165   0.1% |
 Hamiltonian:                              521.258     0.016   0.0% |
  Atomic:                                    0.035     0.035   0.0% |
   XC Correction:                            0.001     0.001   0.0% |
  Calculate atomic Hamiltonians:             0.045     0.045   0.0% |
  Communicate:                              22.218    22.218   0.5% |
  Hartree integrate/restrict:                0.556     0.556   0.0% |
  Poisson:                                  11.338     0.323   0.0% |
   Communicate from 1D:                      1.943     1.943   0.0% |
   Communicate from 2D:                      1.719     1.719   0.0% |
   Communicate to 1D:                        1.624     1.624   0.0% |
   Communicate to 2D:                        2.165     2.165   0.0% |
   FFT 1D:                                   1.706     1.706   0.0% |
   FFT 2D:                                   1.859     1.859   0.0% |
  XC 3D grid:                              486.944    46.037   1.0% |
   VdW-DF integral:                        440.907     5.520   0.1% |
    Convolution:                            59.330    59.330   1.3% ||
    FFT:                                    32.000    32.000   0.7% |
    gather:                                132.831   132.831   2.8% ||
    hmm1:                                    9.344     9.344   0.2% |
    hmm2:                                   19.318    19.318   0.4% |
    iFFT:                                   32.950    32.950   0.7% |
    potential:                             149.612     2.217   0.0% |
     collect:                               14.142    14.142   0.3% |
     p1:                                    86.573    86.573   1.9% ||
     p2:                                    29.403    29.403   0.6% |
     sum:                                   17.277    17.277   0.4% |
    splines:                                 0.001     0.001   0.0% |
  vbar:                                      0.107     0.107   0.0% |
 Orthonormalize:                            32.278     0.006   0.0% |
  calc_s_matrix:                             4.656     4.656   0.1% |
  inverse-cholesky:                         17.893    17.893   0.4% |
  projections:                               0.002     0.002   0.0% |
  rotate_psi_s:                              9.720     9.720   0.2% |
Set symmetry:                                0.002     0.002   0.0% |
Other:                                     187.269   187.269   4.0% |-|
-------------------------------------------------------------------
Total:                                              4665.586 100.0%

Memory usage: 1.79 GiB
Date: Thu Sep 28 00:24:34 2023
