
  ___ ___ ___ _ _ _  
 |   |   |_  | | | | 
 | | | | | . | | | | 
 |__ |  _|___|_____|  22.8.0
 |___|_|             

User:   s204775@c115.nifl.fysik.dtu.dk
Date:   Wed Sep 27 23:07:09 2023
Arch:   x86_64
Pid:    44749
CWD:    /home/cat/s204775/projects/Bachelor_project/O_missing_features
Python: 3.10.4
gpaw:   /home/modules/software/GPAW/22.8.0-intel-2022a/lib/python3.10/site-packages/gpaw
_gpaw:  /home/modules/software/GPAW/22.8.0-intel-2022a/lib/python3.10/site-packages/
        _gpaw.cpython-310-x86_64-linux-gnu.so
ase:    /home/modules/software/ASE/3.22.1-intel-2022a/lib/python3.10/site-packages/ase (version 3.22.1)
numpy:  /home/modules/software/SciPy-bundle/2022.05-intel-2022a/lib/python3.10/site-packages/numpy (version 1.22.3)
scipy:  /home/modules/software/SciPy-bundle/2022.05-intel-2022a/lib/python3.10/site-packages/scipy (version 1.8.1)
libxc:  5.2.3
units:  Angstrom and eV
cores: 40
OpenMP: False
OMP_NUM_THREADS: 1

Input parameters:
  basis: dzp
  h: 0.18
  kpts: {size: (4, 4, 1)}
  xc: BEEF-vdW

System changes: positions, numbers, cell, pbc, initial_charges, initial_magmoms 

Initialize ...

species:
  Ti:
    name: Titanium
    id: d282db07e62ae71292040bf25b25ccdd
    Z: 22.0
    valence: 12
    core: 10
    charge: 0.0
    file: /home/modules/software/GPAW-setups/0.9.20000/Ti.PBE.gz
    compensation charges: {type: gauss,
                           rc: 0.38,
                           lmax: 2}
    cutoffs: {filter: 2.23,
              core: 1.02}
    valence states:
      #              energy  rcut
      - 3s(2.00)   -62.623   1.270
      - 4s(2.00)    -4.466   1.270
      - 3p(6.00)   -38.862   1.058
      - 4p(0.00)    -1.466   1.058
      - 3d(2.00)    -4.258   1.058
      -  d          22.953   1.058
  
    # LCAO basis set for Ti:
    #   Name: dzp
    #   File: /home/modules/software/GPAW-setups/0.9.20000/Ti.dzp.basis.gz
    #   Number of radial functions: 11
    #   Number of spherical harmonics: 29
    #     l=0, rc=3.4375 Bohr: 3s-sz confined orbital
    #     l=0, rc=9.9062 Bohr: 4s-sz confined orbital
    #     l=1, rc=3.8906 Bohr: 3p-sz confined orbital
    #     l=1, rc=13.1094 Bohr: 4p-sz confined orbital
    #     l=2, rc=6.6250 Bohr: 3d-sz confined orbital
    #     l=0, rc=2.1406 Bohr: 3s-dz split-valence wave
    #     l=0, rc=6.0156 Bohr: 4s-dz split-valence wave
    #     l=1, rc=2.3125 Bohr: 3p-dz split-valence wave
    #     l=1, rc=8.1094 Bohr: 4p-dz split-valence wave
    #     l=2, rc=3.8594 Bohr: 3d-dz split-valence wave
    #     l=1, rc=9.9062 Bohr: p-type Gaussian polarization
    #   Number of RI-basis functions 0

  O:
    name: Oxygen
    id: 32ecd46bf208036f09c70b0ec9a88b78
    Z: 8.0
    valence: 6
    core: 2
    charge: 0.0
    file: /home/modules/software/GPAW-setups/0.9.20000/O.PBE.gz
    compensation charges: {type: gauss,
                           rc: 0.21,
                           lmax: 2}
    cutoffs: {filter: 1.17,
              core: 0.83}
    valence states:
      #              energy  rcut
      - 2s(2.00)   -23.961   0.688
      - 2p(4.00)    -9.029   0.598
      -  s           3.251   0.688
      -  p          18.182   0.598
      -  d           0.000   0.619
  
    # LCAO basis set for O:
    #   Name: dzp
    #   File: /home/modules/software/GPAW-setups/0.9.20000/O.dzp.basis.gz
    #   Number of radial functions: 5
    #   Number of spherical harmonics: 13
    #     l=0, rc=4.3438 Bohr: 2s-sz confined orbital
    #     l=1, rc=5.3906 Bohr: 2p-sz confined orbital
    #     l=0, rc=2.2969 Bohr: 2s-dz split-valence wave
    #     l=1, rc=2.8906 Bohr: 2p-dz split-valence wave
    #     l=2, rc=5.3906 Bohr: d-type Gaussian polarization
    #   Number of RI-basis functions 0

Reference energy: -838105.366441  # eV

Spin-paired calculation

Convergence criteria:
 Maximum [total energy] change in last 3 cyles: 0.0005 eV / electron
 Maximum integral of absolute [dens]ity change: 0.0001 electrons / valence electron
 Maximum integral of absolute [eigenst]ate change: 4e-08 eV^2 / valence electron
 Maximum number of scf [iter]ations: 333
 (Square brackets indicate name in SCF output, whereas a 'c' in
 the SCF output indicates the quantity has converged.)

Symmetries present (total): 1

  ( 1  0  0)
  ( 0  1  0)
  ( 0  0  1)

16 k-points: 4 x 4 x 1 Monkhorst-Pack grid
8 k-points in the irreducible part of the Brillouin zone
       k-points in crystal coordinates                weights
   0:     0.12500000   -0.37500000    0.00000000          2/16
   1:     0.12500000   -0.12500000    0.00000000          2/16
   2:     0.12500000    0.12500000    0.00000000          2/16
   3:     0.12500000    0.37500000    0.00000000          2/16
   4:     0.37500000   -0.37500000    0.00000000          2/16
   5:     0.37500000   -0.12500000    0.00000000          2/16
   6:     0.37500000    0.12500000    0.00000000          2/16
   7:     0.37500000    0.37500000    0.00000000          2/16

Wave functions: Uniform real-space grid
  Kinetic energy operator: 8*3+1=25 point O(h^6) finite-difference Laplacian
  ScaLapack parameters: grid=1x1, blocksize=None
  Wavefunction extrapolation:
    Improved wavefunction reuse through dual PAW basis 

Occupation numbers: Fermi-Dirac:
  width: 0.1000  # eV
 

Eigensolver
   Davidson(niter=2) 

Densities:
  Coarse grid: 40*40*152 grid
  Fine grid: 80*80*304 grid
  Total Charge: 0.000000 

Density mixing:
  Method: separate
  Backend: pulay
  Linear mixing parameter: 0.05
  old densities: 5
  Damping of long wavelength oscillations: 50 

Hamiltonian:
  XC and Coulomb potentials evaluated on a 80*80*304 grid
  Using the BEEF-vdW Exchange-Correlation functional
  Interpolation: tri-quintic (5. degree polynomial)
  Poisson solver: FastPoissonSolver using
    Stencil: 8*3+1=25 point O(h^6) finite-difference Laplacian
    FFT axes: [0, 1]
    FST axes: [2]
 

XC parameters: BEEF-vdW with 2 nearest neighbor stencil

Memory estimate:
  Process memory now: 214.98 MiB
  Calculator: 472.05 MiB
    Density: 50.51 MiB
      Arrays: 9.52 MiB
      Localized functions: 37.33 MiB
      Mixer: 3.66 MiB
    Hamiltonian: 9.03 MiB
      Arrays: 6.23 MiB
      XC: 0.00 MiB
      Poisson: 0.00 MiB
      vbar: 2.81 MiB
    Wavefunctions: 412.51 MiB
      Arrays psit_nG: 195.56 MiB
      Eigensolver: 210.10 MiB
      Projections: 0.54 MiB
      Projectors: 6.31 MiB

Total number of cores used: 40
Parallelization over k-points: 8
Domain decomposition: 1 x 1 x 5

Number of atoms: 37
Number of atomic orbitals: 1057
Number of bands in calculation: 267
Number of valence electrons: 438
Bands to converge: occupied

... initialized

Initializing position-dependent things.

Density initialized from atomic densities
Creating initial wave functions:
  267 bands from LCAO basis set

                                              
                                              
                                              
                                              
                                              
                     O                        
           Ti     Ti     Ti                   
                                              
            Ti     TTi    TTi                 
              Ti     TTi    TTi               
                                              
               TTi    TTi    TTi              
                                              
                 Ti     Ti     Ti             
                                              
           Ti     TTi    TTi     Ti           
                                              
            Ti      Ti     Ti                 
              Ti      Ti     Ti               
                                              
                                              
                                              
                                              

Positions:
   0 Ti     0.000000    0.000000   10.000000    ( 0.0000,  0.0000,  0.0000)
   1 Ti     1.450615    0.837513   12.368845    ( 0.0000,  0.0000,  0.0000)
   2 Ti    -0.000000    1.683540   14.802718    ( 0.0000,  0.0000,  0.0000)
   3 Ti    -0.000000   -0.000000   17.052536    ( 0.0000,  0.0000,  0.0000)
   4 Ti    -1.450615    2.512539   10.000000    ( 0.0000,  0.0000,  0.0000)
   5 Ti    -0.000000    3.350052   12.368845    ( 0.0000,  0.0000,  0.0000)
   6 Ti    -1.460491    4.181864   14.810195    ( 0.0000,  0.0000,  0.0000)
   7 Ti    -1.445663    2.504765   17.063618    ( 0.0000,  0.0000,  0.0000)
   8 Ti    -2.901231    5.025079   10.000000    ( 0.0000,  0.0000,  0.0000)
   9 Ti    -1.450615    5.862592   12.368845    ( 0.0000,  0.0000,  0.0000)
  10 Ti    -2.893857    6.695848   14.802718    ( 0.0000,  0.0000,  0.0000)
  11 Ti    -2.905487    5.033254   17.063618    ( 0.0000,  0.0000,  0.0000)
  12 Ti     2.901231    0.000000   10.000000    ( 0.0000,  0.0000,  0.0000)
  13 Ti     4.351846    0.837513   12.368845    ( 0.0000,  0.0000,  0.0000)
  14 Ti     2.888236    1.667524   14.807912    ( 0.0000,  0.0000,  0.0000)
  15 Ti     2.892022   -0.000402   17.063618    ( 0.0000,  0.0000,  0.0000)
  16 Ti     1.450615    2.512539   10.000000    ( 0.0000,  0.0000,  0.0000)
  17 Ti     2.901231    3.350052   12.368845    ( 0.0000,  0.0000,  0.0000)
  18 Ti     1.460491    4.181864   14.810195    ( 0.0000,  0.0000,  0.0000)
  19 Ti     1.445663    2.504765   17.063618    ( 0.0000,  0.0000,  0.0000)
  20 Ti    -0.000000    5.025079   10.000000    ( 0.0000,  0.0000,  0.0000)
  21 Ti     1.450615    5.862592   12.368845    ( 0.0000,  0.0000,  0.0000)
  22 Ti    -0.000000    6.711509   14.810195    ( 0.0000,  0.0000,  0.0000)
  23 Ti    -0.000000    5.025079   17.031043    ( 0.0000,  0.0000,  0.0000)
  24 Ti     5.802461    0.000000   10.000000    ( 0.0000,  0.0000,  0.0000)
  25 Ti     7.253076    0.837513   12.368845    ( 0.0000,  0.0000,  0.0000)
  26 Ti     5.815456    1.667524   14.807912    ( 0.0000,  0.0000,  0.0000)
  27 Ti     5.811670   -0.000402   17.063618    ( 0.0000,  0.0000,  0.0000)
  28 Ti     4.351846    2.512539   10.000000    ( 0.0000,  0.0000,  0.0000)
  29 Ti     5.802461    3.350052   12.368845    ( 0.0000,  0.0000,  0.0000)
  30 Ti     4.351846    4.202570   14.807912    ( 0.0000,  0.0000,  0.0000)
  31 Ti     4.351846    2.512539   17.027545    ( 0.0000,  0.0000,  0.0000)
  32 Ti     2.901231    5.025079   10.000000    ( 0.0000,  0.0000,  0.0000)
  33 Ti     4.351846    5.862592   12.368845    ( 0.0000,  0.0000,  0.0000)
  34 Ti     2.893857    6.695848   14.802718    ( 0.0000,  0.0000,  0.0000)
  35 Ti     2.905487    5.033254   17.063618    ( 0.0000,  0.0000,  0.0000)
  36 O      1.445663    4.182361   17.902416    ( 0.0000,  0.0000,  0.0000)

Unit cell:
           periodic     x           y           z      points  spacing
  1. axis:    yes    8.703692    0.000000    0.000000    40     0.1884
  2. axis:    yes   -4.351846    7.537618    0.000000    40     0.1884
  3. axis:    no     0.000000    0.000000   27.106534   152     0.1783

  Lengths:   8.703692   8.703692  27.106534
  Angles:   90.000000  90.000000 120.000000

Effective grid spacing dv^(1/3) = 0.1941

     iter     time        total  log10-change:
                         energy  eigst   dens
iter:   1 23:08:39 -1996.315311
iter:   2 23:09:07 -1994.900940  -0.03  -1.10
iter:   3 23:09:35 -1992.369120  -0.76  -1.14
iter:   4 23:10:03 -1987.174452  -1.08  -1.17
iter:   5 23:10:31 -1979.958831  -0.44  -1.22
iter:   6 23:10:59 -1978.625808  -0.24  -1.40
iter:   7 23:11:27 -1978.312150  -1.04  -1.61
iter:   8 23:11:55 -1978.545038  -0.72  -1.66
iter:   9 23:12:23 -1979.936636  -1.12  -1.63
iter:  10 23:12:51 -1988.405814  -0.98  -1.61
iter:  11 23:13:19 -1978.316060  -1.54  -1.27
iter:  12 23:13:47 -1978.371054  -1.73  -2.08
iter:  13 23:14:15 -1978.324440c -2.19  -2.16
iter:  14 23:14:43 -1977.951022  -1.87  -2.16
iter:  15 23:15:10 -1977.999926  -2.38  -2.31
iter:  16 23:15:38 -1978.112934c -2.11  -2.29
iter:  17 23:16:06 -1978.024841c -2.44  -2.16
iter:  18 23:16:34 -1978.072392c -2.43  -2.35
iter:  19 23:17:02 -1978.065853c -2.88  -2.50
iter:  20 23:17:30 -1978.080785c -2.41  -2.53
iter:  21 23:17:58 -1978.075191c -3.02  -2.72
iter:  22 23:18:26 -1978.053084c -3.14  -2.67
iter:  23 23:18:54 -1978.056748c -3.40  -2.81
iter:  24 23:19:22 -1978.054367c -3.59  -2.85
iter:  25 23:19:49 -1978.051874c -3.83  -3.12
iter:  26 23:20:17 -1978.050285c -3.98  -3.18
iter:  27 23:20:45 -1978.048778c -3.81  -3.25
iter:  28 23:21:13 -1978.050094c -4.09  -3.33
iter:  29 23:21:41 -1978.050067c -4.22  -3.61
iter:  30 23:22:09 -1978.050172c -4.46  -3.64
iter:  31 23:22:37 -1978.050581c -4.53  -3.67
iter:  32 23:23:05 -1978.050341c -4.59  -3.73
iter:  33 23:23:33 -1978.050516c -4.77  -3.76
iter:  34 23:24:01 -1978.050452c -4.83  -3.88
iter:  35 23:24:29 -1978.050655c -4.95  -3.90
iter:  36 23:24:57 -1978.050550c -4.90  -3.78
iter:  37 23:25:25 -1978.050611c -5.07  -3.84
iter:  38 23:25:52 -1978.050687c -5.19  -4.35c
iter:  39 23:26:20 -1978.050657c -5.28  -4.58c
iter:  40 23:26:48 -1978.050703c -5.27  -4.60c
iter:  41 23:27:16 -1978.050691c -5.35  -4.68c
iter:  42 23:27:44 -1978.050683c -5.47  -4.68c
iter:  43 23:28:12 -1978.050689c -5.51  -4.57c
iter:  44 23:28:40 -1978.050690c -5.66  -4.93c
iter:  45 23:29:08 -1978.050708c -5.75  -5.01c
iter:  46 23:29:36 -1978.050700c -5.81  -5.06c
iter:  47 23:30:04 -1978.050718c -5.89  -5.09c
iter:  48 23:30:32 -1978.050719c -5.91  -5.10c
iter:  49 23:30:59 -1978.050714c -6.00  -4.71c
iter:  50 23:31:27 -1978.050715c -6.06  -5.22c
iter:  51 23:31:55 -1978.050701c -6.13  -5.25c
iter:  52 23:32:23 -1978.050703c -6.21  -5.42c
iter:  53 23:32:51 -1978.050703c -6.28  -5.41c
iter:  54 23:33:19 -1978.050705c -6.36  -5.73c
iter:  55 23:33:47 -1978.050703c -6.42  -5.68c
iter:  56 23:34:15 -1978.050705c -6.46  -5.66c
iter:  57 23:34:43 -1978.050703c -6.48  -5.72c
iter:  58 23:35:11 -1978.050707c -6.55  -5.66c
iter:  59 23:35:38 -1978.050708c -6.66  -5.89c
iter:  60 23:36:06 -1978.050707c -6.70  -5.94c
iter:  61 23:36:34 -1978.050704c -6.70  -5.98c
iter:  62 23:37:02 -1978.050703c -6.73  -5.97c
iter:  63 23:37:30 -1978.050701c -6.83  -6.04c
iter:  64 23:37:58 -1978.050704c -6.84  -6.18c
iter:  65 23:38:26 -1978.050704c -6.93  -5.96c
iter:  66 23:38:54 -1978.050704c -6.98  -6.12c
iter:  67 23:39:22 -1978.050703c -7.02  -6.23c
iter:  68 23:39:49 -1978.050703c -7.06  -6.48c
iter:  69 23:40:17 -1978.050703c -7.09  -6.46c
iter:  70 23:40:45 -1978.050702c -7.16  -6.45c
iter:  71 23:41:13 -1978.050702c -7.17  -6.33c
iter:  72 23:41:41 -1978.050702c -7.23  -6.34c
iter:  73 23:42:09 -1978.050702c -7.32  -6.39c
iter:  74 23:42:37 -1978.050702c -7.34  -6.37c
iter:  75 23:43:05 -1978.050702c -7.41c -6.50c

Converged after 75 iterations.

Dipole moment: (-4.980060, -7.983142, 0.098795) |e|*Ang

Energy contributions relative to reference atoms: (reference = -838105.366441)

Kinetic:       +648.972103
Potential:     -595.943987
External:        +0.000000
XC:            -2025.199928
Entropy (-ST):   -2.431660
Local:           -4.663060
--------------------------
Free energy:   -1979.266532
Extrapolated:  -1978.050702

Showing only first 2 kpts
 Kpt  Band  Eigenvalues  Occupancy
  0   217     -4.56465    1.09111
  0   218     -4.53774    0.95686
  0   219     -4.52914    0.91403
  0   220     -4.51167    0.82818

  1   217     -4.49351    0.74165
  1   218     -4.48155    0.68674
  1   219     -4.46834    0.62850
  1   220     -4.44670    0.53914


Fermi level: -4.54638

No gap

Forces in eV/Ang:
  0 Ti   -0.00203    0.00108    0.47033
  1 Ti    0.03923    0.01725   -0.32686
  2 Ti   -0.05238   -0.05782   -0.10986
  3 Ti    0.02150   -0.01918    0.08094
  4 Ti    0.01445   -0.03009    0.35013
  5 Ti    0.04369   -0.10494   -0.37141
  6 Ti   -0.10430   -0.02718   -0.11217
  7 Ti   -0.40278   -0.23808   -0.16897
  8 Ti   -0.01539    0.02360    0.35246
  9 Ti   -0.12050    0.06959   -0.40650
 10 Ti    0.00429   -0.00335    0.04023
 11 Ti   -0.00195    0.03761    0.07478
 12 Ti   -0.02803    0.00152    0.35248
 13 Ti   -0.00850   -0.10087   -0.31414
 14 Ti    0.05901   -0.06496   -0.11555
 15 Ti   -0.03105   -0.02246    0.07164
 16 Ti   -0.01569   -0.02200    0.34348
 17 Ti   -0.13288    0.07706   -0.29032
 18 Ti    0.00769   -0.00126   -0.94480
 19 Ti    0.01717   -1.25090    0.08830
 20 Ti    0.00651   -0.00373    0.32135
 21 Ti    0.11308    0.01432   -0.37130
 22 Ti   -0.02814    0.10474   -0.11234
 23 Ti   -1.00303    0.58794    0.10422
 24 Ti    0.03337    0.00252    0.35021
 25 Ti   -0.03526    0.02057   -0.31305
 26 Ti    0.00772   -0.00520   -0.10000
 27 Ti    0.00576    0.46013   -0.16693
 28 Ti    0.00457   -0.00255    0.32763
 29 Ti    0.08331    0.05769   -0.31462
 30 Ti    0.08327   -0.01545   -0.11283
 31 Ti    0.37622   -0.21579   -0.15942
 32 Ti    0.01138    0.02471    0.34346
 33 Ti    0.00420   -0.04282   -0.32678
 34 Ti    0.02473    0.07123   -0.10708
 35 Ti    1.00687    0.56995    0.12463
 36 O     0.05724    0.07199    1.77267

      Step     Time          Energy         fmax
BFGS:    0 23:43:19    -1978.050702        1.7751
System changes: positions 

Initializing position-dependent things.

Density initialized from wave functions
                                              
                                              
                                              
                                              
                                              
                     O                        
           Ti     Ti     Ti                   
                                              
            Ti     TTi    TTi                 
              Ti     TTi    TTi               
                                              
               TTi    TTi    TTi              
                                              
                 Ti     Ti     Ti             
                                              
           Ti     TTi    TTi     Ti           
                                              
            Ti      Ti     Ti                 
              Ti      Ti     Ti               
                                              
                                              
                                              
                                              

Positions:
   0 Ti     0.000000    0.000000   10.000000    ( 0.0000,  0.0000,  0.0000)
   1 Ti     1.450615    0.837513   12.368845    ( 0.0000,  0.0000,  0.0000)
   2 Ti    -0.000748    1.682714   14.801148    ( 0.0000,  0.0000,  0.0000)
   3 Ti     0.000307   -0.000274   17.053692    ( 0.0000,  0.0000,  0.0000)
   4 Ti    -1.450615    2.512539   10.000000    ( 0.0000,  0.0000,  0.0000)
   5 Ti    -0.000000    3.350052   12.368845    ( 0.0000,  0.0000,  0.0000)
   6 Ti    -1.461981    4.181476   14.808593    ( 0.0000,  0.0000,  0.0000)
   7 Ti    -1.451417    2.501364   17.061204    ( 0.0000,  0.0000,  0.0000)
   8 Ti    -2.901231    5.025079   10.000000    ( 0.0000,  0.0000,  0.0000)
   9 Ti    -1.450615    5.862592   12.368845    ( 0.0000,  0.0000,  0.0000)
  10 Ti    -2.893796    6.695800   14.803293    ( 0.0000,  0.0000,  0.0000)
  11 Ti    -2.905515    5.033792   17.064686    ( 0.0000,  0.0000,  0.0000)
  12 Ti     2.901231    0.000000   10.000000    ( 0.0000,  0.0000,  0.0000)
  13 Ti     4.351846    0.837513   12.368845    ( 0.0000,  0.0000,  0.0000)
  14 Ti     2.889079    1.666596   14.806261    ( 0.0000,  0.0000,  0.0000)
  15 Ti     2.891579   -0.000723   17.064641    ( 0.0000,  0.0000,  0.0000)
  16 Ti     1.450615    2.512539   10.000000    ( 0.0000,  0.0000,  0.0000)
  17 Ti     2.901231    3.350052   12.368845    ( 0.0000,  0.0000,  0.0000)
  18 Ti     1.460601    4.181846   14.796698    ( 0.0000,  0.0000,  0.0000)
  19 Ti     1.445908    2.486895   17.064879    ( 0.0000,  0.0000,  0.0000)
  20 Ti    -0.000000    5.025079   10.000000    ( 0.0000,  0.0000,  0.0000)
  21 Ti     1.450615    5.862592   12.368845    ( 0.0000,  0.0000,  0.0000)
  22 Ti    -0.000402    6.713005   14.808590    ( 0.0000,  0.0000,  0.0000)
  23 Ti    -0.014329    5.033478   17.032532    ( 0.0000,  0.0000,  0.0000)
  24 Ti     5.802461    0.000000   10.000000    ( 0.0000,  0.0000,  0.0000)
  25 Ti     7.253076    0.837513   12.368845    ( 0.0000,  0.0000,  0.0000)
  26 Ti     5.815566    1.667450   14.806484    ( 0.0000,  0.0000,  0.0000)
  27 Ti     5.811752    0.006171   17.061233    ( 0.0000,  0.0000,  0.0000)
  28 Ti     4.351846    2.512539   10.000000    ( 0.0000,  0.0000,  0.0000)
  29 Ti     5.802461    3.350052   12.368845    ( 0.0000,  0.0000,  0.0000)
  30 Ti     4.353035    4.202350   14.806300    ( 0.0000,  0.0000,  0.0000)
  31 Ti     4.357220    2.509457   17.025268    ( 0.0000,  0.0000,  0.0000)
  32 Ti     2.901231    5.025079   10.000000    ( 0.0000,  0.0000,  0.0000)
  33 Ti     4.351846    5.862592   12.368845    ( 0.0000,  0.0000,  0.0000)
  34 Ti     2.894210    6.696865   14.801188    ( 0.0000,  0.0000,  0.0000)
  35 Ti     2.919871    5.041396   17.065398    ( 0.0000,  0.0000,  0.0000)
  36 O      1.446481    4.183390   17.927740    ( 0.0000,  0.0000,  0.0000)

Unit cell:
           periodic     x           y           z      points  spacing
  1. axis:    yes    8.703692    0.000000    0.000000    40     0.1884
  2. axis:    yes   -4.351846    7.537618    0.000000    40     0.1884
  3. axis:    no     0.000000    0.000000   27.106534   152     0.1783

  Lengths:   8.703692   8.703692  27.106534
  Angles:   90.000000  90.000000 120.000000

Effective grid spacing dv^(1/3) = 0.1941

     iter     time        total  log10-change:
                         energy  eigst   dens
iter:   1 23:44:38 -1978.590888  -1.73
iter:   2 23:45:06 -1989.207651  -1.19  -2.00
iter:   3 23:45:34 -1978.225205  -2.02  -1.28
iter:   4 23:46:03 -1978.172161  -2.41  -2.40
iter:   5 23:46:31 -1978.163560c -2.88  -2.62
iter:   6 23:46:59 -1978.160929c -3.11  -3.01
iter:   7 23:47:27 -1978.155058c -2.99  -2.99
iter:   8 23:47:56 -1978.156158c -3.35  -3.29
iter:   9 23:48:24 -1978.156601c -3.71  -3.47
iter:  10 23:48:52 -1978.156883c -3.91  -3.57
iter:  11 23:49:21 -1978.158277c -4.05  -3.27
iter:  12 23:49:49 -1978.157510c -4.01  -3.45
iter:  13 23:50:17 -1978.157152c -4.41  -3.16
iter:  14 23:50:46 -1978.157298c -4.57  -3.84
iter:  15 23:51:14 -1978.157297c -4.66  -3.87
iter:  16 23:51:42 -1978.157365c -4.88  -4.04c
iter:  17 23:52:11 -1978.157277c -4.94  -4.11c
iter:  18 23:52:39 -1978.157507c -5.20  -4.27c
iter:  19 23:53:07 -1978.157271c -5.10  -4.08c
iter:  20 23:53:36 -1978.157258c -5.42  -3.98
iter:  21 23:54:04 -1978.157353c -5.54  -4.33c
iter:  22 23:54:32 -1978.157408c -5.65  -4.38c
iter:  23 23:55:00 -1978.157417c -5.80  -4.60c
iter:  24 23:55:29 -1978.157418c -5.95  -4.64c
iter:  25 23:55:57 -1978.157379c -5.93  -4.77c
iter:  26 23:56:25 -1978.157409c -6.19  -4.50c
iter:  27 23:56:54 -1978.157434c -6.25  -5.01c
iter:  28 23:57:22 -1978.157412c -6.37  -4.94c
iter:  29 23:57:50 -1978.157429c -6.52  -5.07c
iter:  30 23:58:19 -1978.157430c -6.58  -5.16c
iter:  31 23:58:47 -1978.157430c -6.70  -5.26c
iter:  32 23:59:15 -1978.157421c -6.78  -5.33c
iter:  33 23:59:44 -1978.157433c -6.91  -5.18c
iter:  34 00:00:12 -1978.157427c -6.98  -5.39c
iter:  35 00:00:40 -1978.157435c -7.01  -5.56c
iter:  36 00:01:08 -1978.157433c -7.16  -5.56c
iter:  37 00:01:37 -1978.157432c -7.23  -5.83c
iter:  38 00:02:05 -1978.157432c -7.32  -5.85c
iter:  39 00:02:33 -1978.157433c -7.37  -5.86c
iter:  40 00:03:02 -1978.157434c -7.46c -5.88c

Converged after 40 iterations.

Dipole moment: (-4.604278, -8.187040, 0.090730) |e|*Ang

Energy contributions relative to reference atoms: (reference = -838105.366441)

Kinetic:       +646.108231
Potential:     -593.665841
External:        +0.000000
XC:            -2024.723813
Entropy (-ST):   -2.431578
Local:           -4.660222
--------------------------
Free energy:   -1979.373223
Extrapolated:  -1978.157434

Showing only first 2 kpts
 Kpt  Band  Eigenvalues  Occupancy
  0   217     -4.57118    1.09119
  0   218     -4.54328    0.95198
  0   219     -4.53542    0.91287
  0   220     -4.51858    0.83013

  1   217     -4.50014    0.74222
  1   218     -4.48857    0.68904
  1   219     -4.47755    0.64017
  1   220     -4.45319    0.53907


Fermi level: -4.55289

No gap

Forces in eV/Ang:
  0 Ti   -0.00229    0.00127    0.47062
  1 Ti    0.03926    0.01792   -0.32564
  2 Ti   -0.04974   -0.04497   -0.10051
  3 Ti    0.02524   -0.02173    0.08520
  4 Ti    0.01276   -0.03114    0.34675
  5 Ti    0.04385   -0.10480   -0.37460
  6 Ti   -0.07949   -0.01947   -0.10825
  7 Ti   -0.36460   -0.21185   -0.15916
  8 Ti   -0.01541    0.02328    0.35286
  9 Ti   -0.12019    0.06935   -0.40539
 10 Ti    0.00343   -0.00211    0.03866
 11 Ti    0.00138    0.03805    0.07878
 12 Ti   -0.02779    0.00171    0.35287
 13 Ti   -0.00875   -0.10097   -0.32119
 14 Ti    0.05411   -0.06047   -0.11644
 15 Ti   -0.02956   -0.02500    0.07703
 16 Ti   -0.01572   -0.02184    0.34102
 17 Ti   -0.13223    0.07664   -0.29455
 18 Ti    0.00045    0.00111   -0.79951
 19 Ti    0.07287   -0.62353    0.27005
 20 Ti    0.00671   -0.00385    0.31889
 21 Ti    0.11298    0.01430   -0.37449
 22 Ti   -0.02244    0.07900   -0.10904
 23 Ti   -0.61348    0.35744    0.26082
 24 Ti    0.03342    0.00454    0.34681
 25 Ti   -0.03495    0.02028   -0.31945
 26 Ti    0.00647   -0.00433   -0.12838
 27 Ti    0.00167    0.41661   -0.15770
 28 Ti    0.00631   -0.00357    0.32418
 29 Ti    0.08317    0.05801   -0.32125
 30 Ti    0.07682   -0.01410   -0.11299
 31 Ti    0.36633   -0.21058   -0.14197
 32 Ti    0.01120    0.02464    0.34104
 33 Ti    0.00373   -0.04319   -0.32551
 34 Ti    0.01495    0.06232   -0.09788
 35 Ti    0.53649    0.23547    0.28470
 36 O     0.03727    0.06920    1.06886

BFGS:    1 00:03:17    -1978.157434        1.0717
System changes: positions 

Initializing position-dependent things.

Density initialized from wave functions
                                              
                                              
                                              
                                              
                                              
                     O                        
           Ti     Ti     Ti                   
                                              
            Ti     TTi    TTi                 
              Ti     TTi    TTi               
                                              
               TTi    TTi    TTi              
                                              
                 Ti     Ti     Ti             
                                              
           Ti     TTi    TTi     Ti           
                                              
            Ti      Ti     Ti                 
              Ti      Ti     Ti               
                                              
                                              
                                              
                                              

Positions:
   0 Ti     0.000000    0.000000   10.000000    ( 0.0000,  0.0000,  0.0000)
   1 Ti     1.450615    0.837513   12.368845    ( 0.0000,  0.0000,  0.0000)
   2 Ti    -0.002874    1.680755   14.796838    ( 0.0000,  0.0000,  0.0000)
   3 Ti     0.001368   -0.001189   17.057302    ( 0.0000,  0.0000,  0.0000)
   4 Ti    -1.450615    2.512539   10.000000    ( 0.0000,  0.0000,  0.0000)
   5 Ti    -0.000000    3.350052   12.368845    ( 0.0000,  0.0000,  0.0000)
   6 Ti    -1.465452    4.180619   14.803973    ( 0.0000,  0.0000,  0.0000)
   7 Ti    -1.467067    2.492256   17.054397    ( 0.0000,  0.0000,  0.0000)
   8 Ti    -2.901231    5.025079   10.000000    ( 0.0000,  0.0000,  0.0000)
   9 Ti    -1.450615    5.862592   12.368845    ( 0.0000,  0.0000,  0.0000)
  10 Ti    -2.893647    6.695706   14.804943    ( 0.0000,  0.0000,  0.0000)
  11 Ti    -2.905468    5.035409   17.068024    ( 0.0000,  0.0000,  0.0000)
  12 Ti     2.901231    0.000000   10.000000    ( 0.0000,  0.0000,  0.0000)
  13 Ti     4.351846    0.837513   12.368845    ( 0.0000,  0.0000,  0.0000)
  14 Ti     2.891399    1.664007   14.801310    ( 0.0000,  0.0000,  0.0000)
  15 Ti     2.890316   -0.001777   17.067900    ( 0.0000,  0.0000,  0.0000)
  16 Ti     1.450615    2.512539   10.000000    ( 0.0000,  0.0000,  0.0000)
  17 Ti     2.901231    3.350052   12.368845    ( 0.0000,  0.0000,  0.0000)
  18 Ti     1.460646    4.181885   14.762160    ( 0.0000,  0.0000,  0.0000)
  19 Ti     1.448810    2.458126   17.075722    ( 0.0000,  0.0000,  0.0000)
  20 Ti    -0.000000    5.025079   10.000000    ( 0.0000,  0.0000,  0.0000)
  21 Ti     1.450615    5.862592   12.368845    ( 0.0000,  0.0000,  0.0000)
  22 Ti    -0.001377    6.716458   14.803939    ( 0.0000,  0.0000,  0.0000)
  23 Ti    -0.041823    5.049510   17.043072    ( 0.0000,  0.0000,  0.0000)
  24 Ti     5.802461    0.000000   10.000000    ( 0.0000,  0.0000,  0.0000)
  25 Ti     7.253076    0.837513   12.368845    ( 0.0000,  0.0000,  0.0000)
  26 Ti     5.815846    1.667262   14.801122    ( 0.0000,  0.0000,  0.0000)
  27 Ti     5.811837    0.024054   17.054490    ( 0.0000,  0.0000,  0.0000)
  28 Ti     4.351846    2.512539   10.000000    ( 0.0000,  0.0000,  0.0000)
  29 Ti     5.802461    3.350052   12.368845    ( 0.0000,  0.0000,  0.0000)
  30 Ti     4.356327    4.201745   14.801493    ( 0.0000,  0.0000,  0.0000)
  31 Ti     4.372843    2.500478   17.019165    ( 0.0000,  0.0000,  0.0000)
  32 Ti     2.901231    5.025079   10.000000    ( 0.0000,  0.0000,  0.0000)
  33 Ti     4.351846    5.862592   12.368845    ( 0.0000,  0.0000,  0.0000)
  34 Ti     2.894882    6.699549   14.796991    ( 0.0000,  0.0000,  0.0000)
  35 Ti     2.944377    5.052609   17.076942    ( 0.0000,  0.0000,  0.0000)
  36 O      1.448138    4.186344   17.975731    ( 0.0000,  0.0000,  0.0000)

Unit cell:
           periodic     x           y           z      points  spacing
  1. axis:    yes    8.703692    0.000000    0.000000    40     0.1884
  2. axis:    yes   -4.351846    7.537618    0.000000    40     0.1884
  3. axis:    no     0.000000    0.000000   27.106534   152     0.1783

  Lengths:   8.703692   8.703692  27.106534
  Angles:   90.000000  90.000000 120.000000

Effective grid spacing dv^(1/3) = 0.1941

     iter     time        total  log10-change:
                         energy  eigst   dens
iter:   1 00:04:34 -1980.581365  -1.09
iter:   2 00:05:02 -2033.356973  -0.34  -1.63
iter:   3 00:05:31 -1978.811308  -1.35  -0.99
iter:   4 00:05:59 -1978.286067  -1.66  -1.91
iter:   5 00:06:28 -1978.292271  -2.06  -2.49
iter:   6 00:06:56 -1978.282517c -2.39  -2.55
iter:   7 00:07:25 -1978.267767c -2.39  -2.59
iter:   8 00:07:53 -1978.261824c -2.54  -2.81
iter:   9 00:08:21 -1978.263948c -2.84  -3.12
iter:  10 00:08:50 -1978.267483c -3.20  -3.25
iter:  11 00:09:18 -1978.266260c -3.19  -3.10
iter:  12 00:09:47 -1978.268504c -3.39  -3.36
iter:  13 00:10:15 -1978.268970c -3.72  -3.28
iter:  14 00:10:43 -1978.268130c -3.65  -3.08
iter:  15 00:11:12 -1978.268617c -3.97  -3.50
iter:  16 00:11:40 -1978.268665c -3.87  -3.50
iter:  17 00:12:09 -1978.269095c -4.30  -3.69
iter:  18 00:12:37 -1978.268952c -4.04  -3.56
iter:  19 00:13:06 -1978.268944c -4.45  -3.73
iter:  20 00:13:34 -1978.269006c -4.51  -3.82
iter:  21 00:14:02 -1978.268906c -4.70  -3.88
iter:  22 00:14:31 -1978.269189c -4.93  -3.94
iter:  23 00:14:59 -1978.269075c -4.89  -3.92
iter:  24 00:15:28 -1978.269068c -5.07  -4.12c
iter:  25 00:15:56 -1978.269038c -5.10  -4.18c
iter:  26 00:16:24 -1978.269096c -5.27  -4.29c
iter:  27 00:16:53 -1978.269165c -5.51  -4.19c
iter:  28 00:17:21 -1978.269053c -5.50  -4.13c
iter:  29 00:17:50 -1978.269163c -5.64  -4.41c
iter:  30 00:18:18 -1978.269125c -5.73  -4.51c
iter:  31 00:18:47 -1978.269126c -5.86  -4.76c
iter:  32 00:19:15 -1978.269142c -6.01  -4.82c
iter:  33 00:19:43 -1978.269116c -6.01  -4.77c
iter:  34 00:20:12 -1978.269153c -6.17  -4.47c
iter:  35 00:20:40 -1978.269145c -6.25  -4.99c
iter:  36 00:21:09 -1978.269164c -6.36  -5.04c
iter:  37 00:21:37 -1978.269153c -6.43  -5.11c
iter:  38 00:22:05 -1978.269165c -6.53  -5.11c
iter:  39 00:22:34 -1978.269170c -6.66  -5.40c
iter:  40 00:23:02 -1978.269162c -6.70  -5.17c
iter:  41 00:23:31 -1978.269166c -6.84  -5.38c
iter:  42 00:23:59 -1978.269160c -6.89  -5.46c
iter:  43 00:24:28 -1978.269167c -6.96  -5.59c
iter:  44 00:24:56 -1978.269163c -7.04  -5.68c
iter:  45 00:25:24 -1978.269166c -7.14  -5.76c
iter:  46 00:25:53 -1978.269163c -7.09  -5.82c
iter:  47 00:26:21 -1978.269167c -7.27  -5.62c
iter:  48 00:26:49 -1978.269167c -7.32  -5.88c
iter:  49 00:27:18 -1978.269166c -7.37  -6.06c
iter:  50 00:27:46 -1978.269167c -7.46c -6.09c

Converged after 50 iterations.

Dipole moment: (-3.588932, -8.725674, 0.075322) |e|*Ang

Energy contributions relative to reference atoms: (reference = -838105.366441)

Kinetic:       +641.547214
Potential:     -590.025495
External:        +0.000000
XC:            -2023.921140
Entropy (-ST):   -2.431754
Local:           -4.653869
--------------------------
Free energy:   -1979.485044
Extrapolated:  -1978.269167

Showing only first 2 kpts
 Kpt  Band  Eigenvalues  Occupancy
  0   217     -4.58367    1.09101
  0   218     -4.55614    0.95367
  0   219     -4.54657    0.90606
  0   220     -4.53338    0.84117

  1   217     -4.51733    0.76411
  1   218     -4.50322    0.69866
  1   219     -4.49065    0.64265
  1   220     -4.46735    0.54553


Fermi level: -4.56542

No gap

Forces in eV/Ang:
  0 Ti   -0.00240    0.00140    0.47005
  1 Ti    0.03888    0.02253   -0.32192
  2 Ti   -0.03002   -0.01570   -0.05253
  3 Ti    0.03676   -0.02787    0.08421
  4 Ti    0.00839   -0.03387    0.33713
  5 Ti    0.04075   -0.10628   -0.38522
  6 Ti   -0.01875    0.00572   -0.08645
  7 Ti   -0.24859   -0.14195   -0.14085
  8 Ti   -0.01548    0.02327    0.35254
  9 Ti   -0.11711    0.06753   -0.40172
 10 Ti    0.00180    0.00006    0.02409
 11 Ti    0.00437    0.03237    0.08271
 12 Ti   -0.02785    0.00181    0.35250
 13 Ti   -0.00918   -0.10116   -0.33716
 14 Ti    0.03518   -0.04877   -0.09955
 15 Ti   -0.02426   -0.02272    0.08323
 16 Ti   -0.01588   -0.02285    0.33526
 17 Ti   -0.12673    0.07338   -0.30808
 18 Ti    0.02915   -0.01872   -0.42695
 19 Ti    0.17514    0.09259    0.40086
 20 Ti    0.00609   -0.00347    0.31312
 21 Ti    0.11258    0.01808   -0.38526
 22 Ti   -0.01383    0.01295   -0.08806
 23 Ti    0.01660   -0.01331    0.45206
 24 Ti    0.03356    0.00973    0.33710
 25 Ti   -0.03411    0.01957   -0.33276
 26 Ti    0.00311   -0.00219   -0.21882
 27 Ti   -0.00220    0.28623   -0.13996
 28 Ti    0.01085   -0.00622    0.31466
 29 Ti    0.08290    0.05853   -0.33643
 30 Ti    0.05723   -0.00558   -0.09564
 31 Ti    0.30682   -0.17757   -0.09127
 32 Ti    0.01193    0.02525    0.33536
 33 Ti   -0.00022   -0.04517   -0.32167
 34 Ti   -0.00089    0.03126   -0.05162
 35 Ti    0.00335   -0.19760    0.38835
 36 O    -0.01587    0.01496    0.12333

BFGS:    2 00:28:02    -1978.269167        0.4526
System changes: positions 

Initializing position-dependent things.

Density initialized from wave functions
                                              
                                              
                                              
                                              
                                              
                     O                        
           Ti     Ti     Ti                   
                                              
            Ti     TTi    TTi                 
              Ti      Ti    TTi               
                     Ti                       
               TTi    TTi    TTi              
                                              
                 Ti     Ti     Ti             
                                              
           Ti     TTi    TTi     Ti           
                                              
            Ti      Ti     Ti                 
              Ti      Ti     Ti               
                                              
                                              
                                              
                                              

Positions:
   0 Ti     0.000000    0.000000   10.000000    ( 0.0000,  0.0000,  0.0000)
   1 Ti     1.450615    0.837513   12.368845    ( 0.0000,  0.0000,  0.0000)
   2 Ti    -0.004307    1.679646   14.794090    ( 0.0000,  0.0000,  0.0000)
   3 Ti     0.002514   -0.002101   17.060390    ( 0.0000,  0.0000,  0.0000)
   4 Ti    -1.450615    2.512539   10.000000    ( 0.0000,  0.0000,  0.0000)
   5 Ti    -0.000000    3.350052   12.368845    ( 0.0000,  0.0000,  0.0000)
   6 Ti    -1.467237    4.180386   14.800428    ( 0.0000,  0.0000,  0.0000)
   7 Ti    -1.478245    2.485794   17.048885    ( 0.0000,  0.0000,  0.0000)
   8 Ti    -2.901231    5.025079   10.000000    ( 0.0000,  0.0000,  0.0000)
   9 Ti    -1.450615    5.862592   12.368845    ( 0.0000,  0.0000,  0.0000)
  10 Ti    -2.893551    6.695667   14.806071    ( 0.0000,  0.0000,  0.0000)
  11 Ti    -2.905371    5.036687   17.070978    ( 0.0000,  0.0000,  0.0000)
  12 Ti     2.901231    0.000000   10.000000    ( 0.0000,  0.0000,  0.0000)
  13 Ti     4.351846    0.837513   12.368845    ( 0.0000,  0.0000,  0.0000)
  14 Ti     2.893019    1.662006   14.797386    ( 0.0000,  0.0000,  0.0000)
  15 Ti     2.889333   -0.002637   17.070830    ( 0.0000,  0.0000,  0.0000)
  16 Ti     1.450615    2.512539   10.000000    ( 0.0000,  0.0000,  0.0000)
  17 Ti     2.901231    3.350052   12.368845    ( 0.0000,  0.0000,  0.0000)
  18 Ti     1.461284    4.181508   14.739792    ( 0.0000,  0.0000,  0.0000)
  19 Ti     1.453329    2.447066   17.087489    ( 0.0000,  0.0000,  0.0000)
  20 Ti    -0.000000    5.025079   10.000000    ( 0.0000,  0.0000,  0.0000)
  21 Ti     1.450615    5.862592   12.368845    ( 0.0000,  0.0000,  0.0000)
  22 Ti    -0.002050    6.718120   14.800351    ( 0.0000,  0.0000,  0.0000)
  23 Ti    -0.053194    5.056076   17.055854    ( 0.0000,  0.0000,  0.0000)
  24 Ti     5.802461    0.000000   10.000000    ( 0.0000,  0.0000,  0.0000)
  25 Ti     7.253076    0.837513   12.368845    ( 0.0000,  0.0000,  0.0000)
  26 Ti     5.816020    1.667143   14.794684    ( 0.0000,  0.0000,  0.0000)
  27 Ti     5.811838    0.036871   17.049023    ( 0.0000,  0.0000,  0.0000)
  28 Ti     4.351846    2.512539   10.000000    ( 0.0000,  0.0000,  0.0000)
  29 Ti     5.802461    3.350052   12.368845    ( 0.0000,  0.0000,  0.0000)
  30 Ti     4.358774    4.201396   14.797702    ( 0.0000,  0.0000,  0.0000)
  31 Ti     4.385114    2.493401   17.014914    ( 0.0000,  0.0000,  0.0000)
  32 Ti     2.901231    5.025079   10.000000    ( 0.0000,  0.0000,  0.0000)
  33 Ti     4.351846    5.862592   12.368845    ( 0.0000,  0.0000,  0.0000)
  34 Ti     2.895150    6.701240   14.794305    ( 0.0000,  0.0000,  0.0000)
  35 Ti     2.955279    5.053894   17.088788    ( 0.0000,  0.0000,  0.0000)
  36 O      1.448507    4.187785   17.998780    ( 0.0000,  0.0000,  0.0000)

Unit cell:
           periodic     x           y           z      points  spacing
  1. axis:    yes    8.703692    0.000000    0.000000    40     0.1884
  2. axis:    yes   -4.351846    7.537618    0.000000    40     0.1884
  3. axis:    no     0.000000    0.000000   27.106534   152     0.1783

  Lengths:   8.703692   8.703692  27.106534
  Angles:   90.000000  90.000000 120.000000

Effective grid spacing dv^(1/3) = 0.1941

     iter     time        total  log10-change:
                         energy  eigst   dens
iter:   1 00:29:19 -1979.190745  -1.61
iter:   2 00:29:48 -2005.142900  -0.76  -1.80
iter:   3 00:30:16 -1978.452153  -1.69  -1.10
iter:   4 00:30:45 -1978.300179  -2.07  -2.17
iter:   5 00:31:14 -1978.311750c -2.42  -2.62
iter:   6 00:31:42 -1978.302178c -2.76  -2.68
iter:   7 00:32:11 -1978.300025c -2.86  -3.03
iter:   8 00:32:39 -1978.300354c -3.00  -3.19
iter:   9 00:33:08 -1978.301006c -3.28  -3.41
iter:  10 00:33:36 -1978.302562c -3.60  -3.46
iter:  11 00:34:05 -1978.301974c -3.72  -3.44
iter:  12 00:34:34 -1978.302860c -3.81  -3.52
iter:  13 00:35:02 -1978.302698c -4.05  -3.53
iter:  14 00:35:31 -1978.302680c -4.14  -3.59
iter:  15 00:35:59 -1978.303122c -4.33  -3.75
iter:  16 00:36:28 -1978.302974c -4.32  -3.73
iter:  17 00:36:56 -1978.303115c -4.55  -3.84
iter:  18 00:37:25 -1978.303370c -4.66  -4.04c
iter:  19 00:37:54 -1978.303183c -4.84  -3.97
iter:  20 00:38:22 -1978.303360c -4.88  -4.10c
iter:  21 00:38:51 -1978.303605c -5.24  -3.96
iter:  22 00:39:19 -1978.303376c -5.19  -3.97
iter:  23 00:39:48 -1978.303349c -5.36  -4.28c
iter:  24 00:40:16 -1978.303358c -5.46  -4.41c
iter:  25 00:40:45 -1978.303363c -5.58  -4.54c
iter:  26 00:41:14 -1978.303462c -5.68  -4.54c
iter:  27 00:41:42 -1978.303456c -5.87  -4.63c
iter:  28 00:42:11 -1978.303414c -5.94  -4.79c
iter:  29 00:42:39 -1978.303412c -6.06  -4.63c
iter:  30 00:43:08 -1978.303418c -6.18  -4.85c
iter:  31 00:43:36 -1978.303453c -6.22  -4.87c
iter:  32 00:44:05 -1978.303440c -6.41  -5.10c
iter:  33 00:44:33 -1978.303439c -6.49  -5.15c
iter:  34 00:45:02 -1978.303430c -6.55  -5.20c
iter:  35 00:45:31 -1978.303442c -6.68  -5.08c
iter:  36 00:45:59 -1978.303443c -6.78  -5.16c
iter:  37 00:46:28 -1978.303436c -6.80  -5.16c
iter:  38 00:46:56 -1978.303434c -6.93  -5.12c
iter:  39 00:47:25 -1978.303443c -6.96  -5.05c
iter:  40 00:47:53 -1978.303439c -7.06  -5.08c
iter:  41 00:48:22 -1978.303449c -7.17  -5.16c
iter:  42 00:48:50 -1978.303448c -7.24  -5.30c
iter:  43 00:49:19 -1978.303447c -7.31  -5.36c
iter:  44 00:49:48 -1978.303448c -7.38  -5.59c
iter:  45 00:50:16 -1978.303448c -7.50c -5.40c

Converged after 45 iterations.

Dipole moment: (-2.871786, -9.096108, 0.068558) |e|*Ang

Energy contributions relative to reference atoms: (reference = -838105.366441)

Kinetic:       +639.721846
Potential:     -588.589213
External:        +0.000000
XC:            -2023.565906
Entropy (-ST):   -2.431804
Local:           -4.654272
--------------------------
Free energy:   -1979.519350
Extrapolated:  -1978.303448

Showing only first 2 kpts
 Kpt  Band  Eigenvalues  Occupancy
  0   217     -4.58907    1.09015
  0   218     -4.56271    0.95864
  0   219     -4.55155    0.90310
  0   220     -4.54084    0.85041

  1   217     -4.52694    0.78325
  1   218     -4.51022    0.70520
  1   219     -4.49456    0.63546
  1   220     -4.47519    0.55457


Fermi level: -4.57099

No gap

Forces in eV/Ang:
  0 Ti   -0.00193    0.00113    0.46878
  1 Ti    0.03842    0.02722   -0.31907
  2 Ti   -0.01064   -0.00068   -0.00975
  3 Ti    0.04810   -0.03472    0.07396
  4 Ti    0.00561   -0.03574    0.33027
  5 Ti    0.03587   -0.10872   -0.39281
  6 Ti    0.01656    0.02396   -0.06133
  7 Ti   -0.16075   -0.09875   -0.13390
  8 Ti   -0.01566    0.02400    0.35130
  9 Ti   -0.11425    0.06591   -0.39878
 10 Ti   -0.00040    0.00176    0.00817
 11 Ti    0.00628    0.02387    0.08002
 12 Ti   -0.02858    0.00159    0.35121
 13 Ti   -0.00990   -0.10210   -0.34720
 14 Ti    0.02337   -0.04048   -0.07708
 15 Ti   -0.01693   -0.01930    0.08133
 16 Ti   -0.01609   -0.02445    0.33202
 17 Ti   -0.11978    0.06931   -0.31853
 18 Ti   -0.01110    0.00318   -0.25114
 19 Ti    0.17268    0.27574    0.36593
 20 Ti    0.00507   -0.00288    0.31005
 21 Ti    0.11218    0.02365   -0.39296
 22 Ti   -0.01178   -0.02719   -0.06304
 23 Ti    0.23032   -0.13824    0.49120
 24 Ti    0.03379    0.01307    0.33020
 25 Ti   -0.03273    0.01866   -0.34058
 26 Ti   -0.00143    0.00044   -0.28759
 27 Ti    0.00382    0.19081   -0.13325
 28 Ti    0.01376   -0.00789    0.30803
 29 Ti    0.08324    0.05961   -0.34612
 30 Ti    0.04453   -0.00040   -0.07342
 31 Ti    0.23340   -0.13587   -0.09290
 32 Ti    0.01318    0.02623    0.33215
 33 Ti   -0.00438   -0.04711   -0.31874
 34 Ti   -0.00449    0.00756   -0.01009
 35 Ti   -0.13525   -0.29418    0.35271
 36 O    -0.03139    0.00998   -0.19659

BFGS:    3 00:50:32    -1978.303448        0.5599
System changes: positions 

Initializing position-dependent things.

Density initialized from wave functions
                                              
                                              
                                              
                                              
                                              
                     O                        
           Ti     Ti     Ti                   
                                              
            Ti     TTi    TTi                 
              Ti      Ti    TTi               
                     Ti                       
               TTi    TTi    TTi              
                                              
                 Ti     Ti     Ti             
                                              
           Ti     TTi    TTi     Ti           
                                              
            Ti      Ti     Ti                 
              Ti      Ti     Ti               
                                              
                                              
                                              
                                              

Positions:
   0 Ti     0.000000    0.000000   10.000000    ( 0.0000,  0.0000,  0.0000)
   1 Ti     1.450615    0.837513   12.368845    ( 0.0000,  0.0000,  0.0000)
   2 Ti    -0.005962    1.678467   14.791154    ( 0.0000,  0.0000,  0.0000)
   3 Ti     0.004804   -0.003840   17.065161    ( 0.0000,  0.0000,  0.0000)
   4 Ti    -1.450615    2.512539   10.000000    ( 0.0000,  0.0000,  0.0000)
   5 Ti    -0.000000    3.350052   12.368845    ( 0.0000,  0.0000,  0.0000)
   6 Ti    -1.468716    4.180710   14.795485    ( 0.0000,  0.0000,  0.0000)
   7 Ti    -1.493245    2.476926   17.040163    ( 0.0000,  0.0000,  0.0000)
   8 Ti    -2.901231    5.025079   10.000000    ( 0.0000,  0.0000,  0.0000)
   9 Ti    -1.450615    5.862592   12.368845    ( 0.0000,  0.0000,  0.0000)
  10 Ti    -2.893467    6.695668   14.807359    ( 0.0000,  0.0000,  0.0000)
  11 Ti    -2.905137    5.038501   17.075782    ( 0.0000,  0.0000,  0.0000)
  12 Ti     2.901231    0.000000   10.000000    ( 0.0000,  0.0000,  0.0000)
  13 Ti     4.351846    0.837513   12.368845    ( 0.0000,  0.0000,  0.0000)
  14 Ti     2.895204    1.659043   14.791710    ( 0.0000,  0.0000,  0.0000)
  15 Ti     2.887966   -0.003932   17.075633    ( 0.0000,  0.0000,  0.0000)
  16 Ti     1.450615    2.512539   10.000000    ( 0.0000,  0.0000,  0.0000)
  17 Ti     2.901231    3.350052   12.368845    ( 0.0000,  0.0000,  0.0000)
  18 Ti     1.461407    4.181362   14.710804    ( 0.0000,  0.0000,  0.0000)
  19 Ti     1.461428    2.439219   17.106722    ( 0.0000,  0.0000,  0.0000)
  20 Ti    -0.000000    5.025079   10.000000    ( 0.0000,  0.0000,  0.0000)
  21 Ti     1.450615    5.862592   12.368845    ( 0.0000,  0.0000,  0.0000)
  22 Ti    -0.003035    6.719220   14.795329    ( 0.0000,  0.0000,  0.0000)
  23 Ti    -0.061211    5.060614   17.079337    ( 0.0000,  0.0000,  0.0000)
  24 Ti     5.802461    0.000000   10.000000    ( 0.0000,  0.0000,  0.0000)
  25 Ti     7.253076    0.837513   12.368845    ( 0.0000,  0.0000,  0.0000)
  26 Ti     5.816152    1.667039   14.781477    ( 0.0000,  0.0000,  0.0000)
  27 Ti     5.811983    0.054240   17.040363    ( 0.0000,  0.0000,  0.0000)
  28 Ti     4.351846    2.512539   10.000000    ( 0.0000,  0.0000,  0.0000)
  29 Ti     5.802461    3.350052   12.368845    ( 0.0000,  0.0000,  0.0000)
  30 Ti     4.362288    4.201034   14.792240    ( 0.0000,  0.0000,  0.0000)
  31 Ti     4.402735    2.483212   17.008259    ( 0.0000,  0.0000,  0.0000)
  32 Ti     2.901231    5.025079   10.000000    ( 0.0000,  0.0000,  0.0000)
  33 Ti     4.351846    5.862592   12.368845    ( 0.0000,  0.0000,  0.0000)
  34 Ti     2.895374    6.703112   14.791422    ( 0.0000,  0.0000,  0.0000)
  35 Ti     2.965442    5.050145   17.107937    ( 0.0000,  0.0000,  0.0000)
  36 O      1.448279    4.189599   18.020727    ( 0.0000,  0.0000,  0.0000)

Unit cell:
           periodic     x           y           z      points  spacing
  1. axis:    yes    8.703692    0.000000    0.000000    40     0.1884
  2. axis:    yes   -4.351846    7.537618    0.000000    40     0.1884
  3. axis:    no     0.000000    0.000000   27.106534   152     0.1783

  Lengths:   8.703692   8.703692  27.106534
  Angles:   90.000000  90.000000 120.000000

Effective grid spacing dv^(1/3) = 0.1941

     iter     time        total  log10-change:
                         energy  eigst   dens
iter:   1 00:51:50 -1979.872535  -1.42
iter:   2 00:52:18 -2024.470083  -0.44  -1.67
iter:   3 00:52:47 -1978.739648  -1.46  -1.02
iter:   4 00:53:15 -1978.314298  -1.83  -1.97
iter:   5 00:53:44 -1978.335843  -2.17  -2.70
iter:   6 00:54:12 -1978.330879c -2.47  -2.66
iter:   7 00:54:41 -1978.331116c -2.60  -2.84
iter:   8 00:55:09 -1978.330557c -2.77  -3.02
iter:   9 00:55:38 -1978.333466c -2.97  -3.34
iter:  10 00:56:06 -1978.334558c -3.29  -3.07
iter:  11 00:56:35 -1978.334852c -3.48  -3.37
iter:  12 00:57:03 -1978.335211c -3.64  -3.49
iter:  13 00:57:32 -1978.335873c -3.71  -3.34
iter:  14 00:58:00 -1978.335709c -3.89  -3.54
iter:  15 00:58:29 -1978.336000c -4.07  -3.67
iter:  16 00:58:57 -1978.335907c -3.93  -3.67
iter:  17 00:59:26 -1978.336392c -4.39  -3.47
iter:  18 00:59:54 -1978.336576c -4.47  -3.81
iter:  19 01:00:23 -1978.336666c -4.48  -4.06c
iter:  20 01:00:51 -1978.336570c -4.70  -3.94
iter:  21 01:01:20 -1978.336612c -4.82  -4.03c
iter:  22 01:01:48 -1978.336591c -4.91  -4.14c
iter:  23 01:02:17 -1978.336621c -5.13  -4.15c
iter:  24 01:02:45 -1978.336632c -5.28  -4.36c
iter:  25 01:03:14 -1978.336755c -5.44  -4.46c
iter:  26 01:03:42 -1978.336742c -5.46  -4.21c
iter:  27 01:04:11 -1978.336721c -5.62  -4.47c
iter:  28 01:04:39 -1978.336726c -5.78  -4.77c
iter:  29 01:05:08 -1978.336731c -5.84  -4.84c
iter:  30 01:05:36 -1978.336753c -5.97  -4.88c
iter:  31 01:06:05 -1978.336723c -5.99  -4.89c
iter:  32 01:06:33 -1978.336751c -6.16  -4.71c
iter:  33 01:07:02 -1978.336755c -6.26  -5.21c
iter:  34 01:07:30 -1978.336748c -6.34  -5.25c
iter:  35 01:07:59 -1978.336751c -6.41  -5.35c
iter:  36 01:08:28 -1978.336747c -6.46  -5.38c
iter:  37 01:08:56 -1978.336750c -6.56  -5.49c
iter:  38 01:09:25 -1978.336749c -6.65  -5.59c
iter:  39 01:09:53 -1978.336750c -6.78  -5.45c
iter:  40 01:10:22 -1978.336755c -6.86  -5.62c
iter:  41 01:10:50 -1978.336756c -6.90  -5.74c
iter:  42 01:11:19 -1978.336754c -7.01  -5.87c
iter:  43 01:11:47 -1978.336759c -7.10  -5.84c
iter:  44 01:12:16 -1978.336757c -7.11  -5.92c
iter:  45 01:12:44 -1978.336756c -7.20  -6.01c
iter:  46 01:13:13 -1978.336758c -7.29  -6.10c
iter:  47 01:13:41 -1978.336759c -7.36  -6.23c
iter:  48 01:14:10 -1978.336757c -7.44c -6.33c

Converged after 48 iterations.

Dipole moment: (-1.924461, -9.569780, 0.063484) |e|*Ang

Energy contributions relative to reference atoms: (reference = -838105.366441)

Kinetic:       +638.160828
Potential:     -587.395387
External:        +0.000000
XC:            -2023.234173
Entropy (-ST):   -2.431455
Local:           -4.652298
--------------------------
Free energy:   -1979.552485
Extrapolated:  -1978.336757

Showing only first 2 kpts
 Kpt  Band  Eigenvalues  Occupancy
  0   217     -4.59291    1.08776
  0   218     -4.56849    0.96589
  0   219     -4.55657    0.90657
  0   220     -4.54692    0.85899

  1   217     -4.53598    0.80582
  1   218     -4.51617    0.71262
  1   219     -4.49649    0.62509
  1   220     -4.48387    0.57220


Fermi level: -4.57531

No gap

Forces in eV/Ang:
  0 Ti   -0.00059    0.00035    0.46567
  1 Ti    0.03768    0.03453   -0.31630
  2 Ti    0.01858    0.01301    0.04819
  3 Ti    0.06806   -0.04686    0.04461
  4 Ti    0.00215   -0.03834    0.32031
  5 Ti    0.02501   -0.11396   -0.40442
  6 Ti    0.04950    0.04471   -0.01764
  7 Ti   -0.02608   -0.02024   -0.11695
  8 Ti   -0.01610    0.02602    0.34796
  9 Ti   -0.10948    0.06324   -0.39505
 10 Ti   -0.00415    0.00420   -0.01752
 11 Ti    0.01200    0.00774    0.07006
 12 Ti   -0.03056    0.00094    0.34779
 13 Ti   -0.01226   -0.10457   -0.36141
 14 Ti    0.01040   -0.02503   -0.03969
 15 Ti   -0.00205   -0.01499    0.07205
 16 Ti   -0.01639   -0.02729    0.32835
 17 Ti   -0.10674    0.06170   -0.33429
 18 Ti   -0.05696    0.02872   -0.03366
 19 Ti    0.12172    0.38767    0.32699
 20 Ti    0.00328   -0.00183    0.30670
 21 Ti    0.11122    0.03572   -0.40468
 22 Ti   -0.01310   -0.06631   -0.01916
 23 Ti    0.38572   -0.22867    0.38155
 24 Ti    0.03433    0.01736    0.32016
 25 Ti   -0.02907    0.01639   -0.35202
 26 Ti   -0.01592    0.00882   -0.36261
 27 Ti    0.00301    0.03635   -0.11723
 28 Ti    0.01732   -0.00993    0.29863
 29 Ti    0.08404    0.06282   -0.36002
 30 Ti    0.02611    0.00245   -0.03745
 31 Ti    0.08255   -0.04973   -0.11722
 32 Ti    0.01548    0.02793    0.32848
 33 Ti   -0.01091   -0.05008   -0.31591
 34 Ti   -0.00224   -0.02416    0.04675
 35 Ti   -0.23410   -0.30615    0.31525
 36 O    -0.03506   -0.00182   -0.39941

BFGS:    4 01:14:24    -1978.336757        0.5888
System changes: positions 

Initializing position-dependent things.

Density initialized from wave functions
                                              
                                              
                                              
                                              
                                              
                     O                        
           Ti     Ti     Ti                   
                                              
            Ti     TTi    TTi                 
              Ti      Ti    TTi               
                     Ti                       
               TTi    TTi    TTi              
                                              
                 Ti     Ti     Ti             
                                              
           Ti     TTi    TTi     Ti           
                                              
            Ti      Ti     Ti                 
              Ti      Ti     Ti               
                                              
                                              
                                              
                                              

Positions:
   0 Ti     0.000000    0.000000   10.000000    ( 0.0000,  0.0000,  0.0000)
   1 Ti     1.450615    0.837513   12.368845    ( 0.0000,  0.0000,  0.0000)
   2 Ti    -0.006785    1.677845   14.789994    ( 0.0000,  0.0000,  0.0000)
   3 Ti     0.007924   -0.006105   17.069571    ( 0.0000,  0.0000,  0.0000)
   4 Ti    -1.450615    2.512539   10.000000    ( 0.0000,  0.0000,  0.0000)
   5 Ti    -0.000000    3.350052   12.368845    ( 0.0000,  0.0000,  0.0000)
   6 Ti    -1.468826    4.181870   14.791489    ( 0.0000,  0.0000,  0.0000)
   7 Ti    -1.504844    2.469995   17.031295    ( 0.0000,  0.0000,  0.0000)
   8 Ti    -2.901231    5.025079   10.000000    ( 0.0000,  0.0000,  0.0000)
   9 Ti    -1.450615    5.862592   12.368845    ( 0.0000,  0.0000,  0.0000)
  10 Ti    -2.893492    6.695755   14.807933    ( 0.0000,  0.0000,  0.0000)
  11 Ti    -2.904712    5.039989   17.080773    ( 0.0000,  0.0000,  0.0000)
  12 Ti     2.901231    0.000000   10.000000    ( 0.0000,  0.0000,  0.0000)
  13 Ti     4.351846    0.837513   12.368845    ( 0.0000,  0.0000,  0.0000)
  14 Ti     2.897038    1.656340   14.786713    ( 0.0000,  0.0000,  0.0000)
  15 Ti     2.886923   -0.005196   17.080663    ( 0.0000,  0.0000,  0.0000)
  16 Ti     1.450615    2.512539   10.000000    ( 0.0000,  0.0000,  0.0000)
  17 Ti     2.901231    3.350052   12.368845    ( 0.0000,  0.0000,  0.0000)
  18 Ti     1.460427    4.181788   14.688622    ( 0.0000,  0.0000,  0.0000)
  19 Ti     1.469825    2.440354   17.127506    ( 0.0000,  0.0000,  0.0000)
  20 Ti    -0.000000    5.025079   10.000000    ( 0.0000,  0.0000,  0.0000)
  21 Ti     1.450615    5.862592   12.368845    ( 0.0000,  0.0000,  0.0000)
  22 Ti    -0.004051    6.718700   14.791244    ( 0.0000,  0.0000,  0.0000)
  23 Ti    -0.059763    5.059596   17.104041    ( 0.0000,  0.0000,  0.0000)
  24 Ti     5.802461    0.000000   10.000000    ( 0.0000,  0.0000,  0.0000)
  25 Ti     7.253076    0.837513   12.368845    ( 0.0000,  0.0000,  0.0000)
  26 Ti     5.815899    1.667156   14.764217    ( 0.0000,  0.0000,  0.0000)
  27 Ti     5.812130    0.067780   17.031535    ( 0.0000,  0.0000,  0.0000)
  28 Ti     4.351846    2.512539   10.000000    ( 0.0000,  0.0000,  0.0000)
  29 Ti     5.802461    3.350052   12.368845    ( 0.0000,  0.0000,  0.0000)
  30 Ti     4.365425    4.200811   14.787444    ( 0.0000,  0.0000,  0.0000)
  31 Ti     4.417347    2.474721   17.000869    ( 0.0000,  0.0000,  0.0000)
  32 Ti     2.901231    5.025079   10.000000    ( 0.0000,  0.0000,  0.0000)
  33 Ti     4.351846    5.862592   12.368845    ( 0.0000,  0.0000,  0.0000)
  34 Ti     2.895517    6.703993   14.790272    ( 0.0000,  0.0000,  0.0000)
  35 Ti     2.968904    5.041654   17.128440    ( 0.0000,  0.0000,  0.0000)
  36 O      1.447416    4.190824   18.030006    ( 0.0000,  0.0000,  0.0000)

Unit cell:
           periodic     x           y           z      points  spacing
  1. axis:    yes    8.703692    0.000000    0.000000    40     0.1884
  2. axis:    yes   -4.351846    7.537618    0.000000    40     0.1884
  3. axis:    no     0.000000    0.000000   27.106534   152     0.1783

  Lengths:   8.703692   8.703692  27.106534
  Angles:   90.000000  90.000000 120.000000

Effective grid spacing dv^(1/3) = 0.1941

     iter     time        total  log10-change:
                         energy  eigst   dens
iter:   1 01:15:42 -1979.357319  -1.64
iter:   2 01:16:10 -2012.070370  -0.63  -1.75
iter:   3 01:16:39 -1978.579021  -1.61  -1.07
iter:   4 01:17:07 -1978.350900  -2.03  -2.10
iter:   5 01:17:36 -1978.367667  -2.32  -2.67
iter:   6 01:18:04 -1978.359654c -2.62  -2.67
iter:   7 01:18:33 -1978.359665c -2.78  -2.92
iter:   8 01:19:01 -1978.360086c -2.95  -3.11
iter:   9 01:19:30 -1978.360847c -3.20  -3.42
iter:  10 01:19:59 -1978.362317c -3.47  -3.51
iter:  11 01:20:27 -1978.362369c -3.63  -3.46
iter:  12 01:20:56 -1978.363174c -3.77  -3.60
iter:  13 01:21:24 -1978.363025c -3.91  -3.57
iter:  14 01:21:53 -1978.363286c -3.99  -3.54
iter:  15 01:22:21 -1978.363650c -4.14  -3.69
iter:  16 01:22:50 -1978.363915c -4.26  -3.75
iter:  17 01:23:18 -1978.363795c -4.35  -3.94
iter:  18 01:23:47 -1978.363947c -4.61  -3.86
iter:  19 01:24:15 -1978.363802c -4.78  -3.99
iter:  20 01:24:44 -1978.363915c -4.76  -4.07c
iter:  21 01:25:13 -1978.363953c -5.02  -3.88
iter:  22 01:25:41 -1978.363980c -5.13  -4.11c
iter:  23 01:26:10 -1978.364000c -5.29  -4.30c
iter:  24 01:26:38 -1978.363991c -5.37  -4.34c
iter:  25 01:27:07 -1978.363972c -5.48  -4.45c
iter:  26 01:27:35 -1978.364014c -5.64  -4.30c
iter:  27 01:28:04 -1978.364017c -5.74  -4.60c
iter:  28 01:28:32 -1978.364106c -5.86  -4.62c
iter:  29 01:29:01 -1978.364033c -5.97  -4.73c
iter:  30 01:29:29 -1978.364065c -6.02  -4.67c
iter:  31 01:29:58 -1978.364071c -6.15  -4.74c
iter:  32 01:30:27 -1978.364061c -6.20  -4.89c
iter:  33 01:30:55 -1978.364059c -6.36  -4.96c
iter:  34 01:31:24 -1978.364054c -6.43  -5.03c
iter:  35 01:31:52 -1978.364068c -6.49  -5.24c
iter:  36 01:32:21 -1978.364057c -6.60  -5.20c
iter:  37 01:32:49 -1978.364069c -6.71  -5.41c
iter:  38 01:33:18 -1978.364066c -6.79  -5.26c
iter:  39 01:33:46 -1978.364068c -6.91  -5.60c
iter:  40 01:34:15 -1978.364068c -6.98  -5.61c
iter:  41 01:34:43 -1978.364069c -7.07  -5.65c
iter:  42 01:35:12 -1978.364071c -7.16  -5.63c
iter:  43 01:35:40 -1978.364065c -7.21  -5.93c
iter:  44 01:36:09 -1978.364069c -7.31  -5.82c
iter:  45 01:36:38 -1978.364070c -7.41c -6.03c

Converged after 45 iterations.

Dipole moment: (-1.239229, -9.895193, 0.063762) |e|*Ang

Energy contributions relative to reference atoms: (reference = -838105.366441)

Kinetic:       +637.640302
Potential:     -587.056078
External:        +0.000000
XC:            -2023.082274
Entropy (-ST):   -2.431014
Local:           -4.650513
--------------------------
Free energy:   -1979.579577
Extrapolated:  -1978.364070

Showing only first 2 kpts
 Kpt  Band  Eigenvalues  Occupancy
  0   217     -4.59238    1.08465
  0   218     -4.56990    0.97248
  0   219     -4.55812    0.91378
  0   220     -4.54702    0.85900

  1   217     -4.53837    0.81686
  1   218     -4.51757    0.71861
  1   219     -4.49522    0.61922
  1   220     -4.48893    0.59268


Fermi level: -4.57541

No gap

Forces in eV/Ang:
  0 Ti    0.00142   -0.00084    0.46188
  1 Ti    0.03690    0.04157   -0.31439
  2 Ti    0.04557    0.01894    0.09317
  3 Ti    0.09094   -0.06085    0.00371
  4 Ti   -0.00036   -0.04058    0.31191
  5 Ti    0.01205   -0.12036   -0.41365
  6 Ti    0.05452    0.05233    0.02542
  7 Ti    0.09361    0.04801   -0.07735
  8 Ti   -0.01659    0.02902    0.34366
  9 Ti   -0.10478    0.06062   -0.39193
 10 Ti   -0.00586    0.00506   -0.04194
 11 Ti    0.02017   -0.01157    0.05198
 12 Ti   -0.03342   -0.00015    0.34341
 13 Ti   -0.01707   -0.10831   -0.37405
 14 Ti   -0.00086   -0.00586    0.00287
 15 Ti    0.01694   -0.01111    0.05403
 16 Ti   -0.01668   -0.03025    0.32657
 17 Ti   -0.09296    0.05368   -0.34646
 18 Ti   -0.01030    0.00192    0.12352
 19 Ti    0.03550    0.32602    0.25057
 20 Ti    0.00143   -0.00076    0.30519
 21 Ti    0.11028    0.05001   -0.41392
 22 Ti   -0.01716   -0.07420    0.02450
 23 Ti    0.35695   -0.21194    0.20318
 24 Ti    0.03505    0.02063    0.31170
 25 Ti   -0.02263    0.01253   -0.36204
 26 Ti   -0.05241    0.02998   -0.35632
 27 Ti    0.00345   -0.10239   -0.07851
 28 Ti    0.01986   -0.01137    0.29078
 29 Ti    0.08476    0.06873   -0.37258
 30 Ti    0.00624    0.00268    0.00241
 31 Ti   -0.09901    0.05451   -0.12368
 32 Ti    0.01789    0.02969    0.32669
 33 Ti   -0.01725   -0.05283   -0.31397
 34 Ti    0.00565   -0.05037    0.09126
 35 Ti   -0.21963   -0.18087    0.24142
 36 O    -0.02018   -0.01678   -0.33825

BFGS:    5 01:36:52    -1978.364070        0.4622
System changes: positions 

Initializing position-dependent things.

Density initialized from wave functions
                                              
                                              
                                              
                                              
                                              
                     O                        
           Ti     Ti     Ti                   
                                              
            Ti     TTi    TTi                 
              Ti      Ti    TTi               
                     Ti                       
               TTi    TTi    TTi              
                                              
                 Ti     Ti     Ti             
                                              
           Ti     TTi    TTi     Ti           
                                              
            Ti      Ti     Ti                 
              Ti      Ti     Ti               
                                              
                                              
                                              
                                              

Positions:
   0 Ti     0.000000    0.000000   10.000000    ( 0.0000,  0.0000,  0.0000)
   1 Ti     1.450615    0.837513   12.368845    ( 0.0000,  0.0000,  0.0000)
   2 Ti    -0.006240    1.677941   14.791451    ( 0.0000,  0.0000,  0.0000)
   3 Ti     0.012001   -0.008941   17.072469    ( 0.0000,  0.0000,  0.0000)
   4 Ti    -1.450615    2.512539   10.000000    ( 0.0000,  0.0000,  0.0000)
   5 Ti    -0.000000    3.350052   12.368845    ( 0.0000,  0.0000,  0.0000)
   6 Ti    -1.467553    4.183835   14.789544    ( 0.0000,  0.0000,  0.0000)
   7 Ti    -1.509907    2.466791   17.023962    ( 0.0000,  0.0000,  0.0000)
   8 Ti    -2.901231    5.025079   10.000000    ( 0.0000,  0.0000,  0.0000)
   9 Ti    -1.450615    5.862592   12.368845    ( 0.0000,  0.0000,  0.0000)
  10 Ti    -2.893638    6.695926   14.807324    ( 0.0000,  0.0000,  0.0000)
  11 Ti    -2.903978    5.040665   17.085142    ( 0.0000,  0.0000,  0.0000)
  12 Ti     2.901231    0.000000   10.000000    ( 0.0000,  0.0000,  0.0000)
  13 Ti     4.351846    0.837513   12.368845    ( 0.0000,  0.0000,  0.0000)
  14 Ti     2.898142    1.654512   14.783624    ( 0.0000,  0.0000,  0.0000)
  15 Ti     2.886652   -0.006247   17.085108    ( 0.0000,  0.0000,  0.0000)
  16 Ti     1.450615    2.512539   10.000000    ( 0.0000,  0.0000,  0.0000)
  17 Ti     2.901231    3.350052   12.368845    ( 0.0000,  0.0000,  0.0000)
  18 Ti     1.459943    4.181881   14.678151    ( 0.0000,  0.0000,  0.0000)
  19 Ti     1.476298    2.449824   17.146671    ( 0.0000,  0.0000,  0.0000)
  20 Ti    -0.000000    5.025079   10.000000    ( 0.0000,  0.0000,  0.0000)
  21 Ti     1.450615    5.862592   12.368845    ( 0.0000,  0.0000,  0.0000)
  22 Ti    -0.005069    6.716572   14.789219    ( 0.0000,  0.0000,  0.0000)
  23 Ti    -0.049413    5.053355   17.124889    ( 0.0000,  0.0000,  0.0000)
  24 Ti     5.802461    0.000000   10.000000    ( 0.0000,  0.0000,  0.0000)
  25 Ti     7.253076    0.837513   12.368845    ( 0.0000,  0.0000,  0.0000)
  26 Ti     5.814509    1.667935   14.745050    ( 0.0000,  0.0000,  0.0000)
  27 Ti     5.812293    0.073856   17.024201    ( 0.0000,  0.0000,  0.0000)
  28 Ti     4.351846    2.512539   10.000000    ( 0.0000,  0.0000,  0.0000)
  29 Ti     5.802461    3.350052   12.368845    ( 0.0000,  0.0000,  0.0000)
  30 Ti     4.367520    4.200752   14.784472    ( 0.0000,  0.0000,  0.0000)
  31 Ti     4.424314    2.470601   16.993583    ( 0.0000,  0.0000,  0.0000)
  32 Ti     2.901231    5.025079   10.000000    ( 0.0000,  0.0000,  0.0000)
  33 Ti     4.351846    5.862592   12.368845    ( 0.0000,  0.0000,  0.0000)
  34 Ti     2.895699    6.703351   14.791687    ( 0.0000,  0.0000,  0.0000)
  35 Ti     2.965117    5.031241   17.147143    ( 0.0000,  0.0000,  0.0000)
  36 O      1.446269    4.191013   18.026420    ( 0.0000,  0.0000,  0.0000)

Unit cell:
           periodic     x           y           z      points  spacing
  1. axis:    yes    8.703692    0.000000    0.000000    40     0.1884
  2. axis:    yes   -4.351846    7.537618    0.000000    40     0.1884
  3. axis:    no     0.000000    0.000000   27.106534   152     0.1783

  Lengths:   8.703692   8.703692  27.106534
  Angles:   90.000000  90.000000 120.000000

Effective grid spacing dv^(1/3) = 0.1941

     iter     time        total  log10-change:
                         energy  eigst   dens
iter:   1 01:38:10 -1978.777317  -1.88
iter:   2 01:38:38 -1993.308883  -1.05  -1.94
iter:   3 01:39:07 -1978.434878  -1.96  -1.22
iter:   4 01:39:35 -1978.382445  -2.43  -2.41
iter:   5 01:40:04 -1978.388134c -2.69  -2.84
iter:   6 01:40:32 -1978.383070c -3.00  -2.80
iter:   7 01:41:01 -1978.382136c -3.04  -3.08
iter:   8 01:41:29 -1978.382478c -3.31  -3.22
iter:   9 01:41:58 -1978.382607c -3.57  -3.48
iter:  10 01:42:26 -1978.383165c -3.87  -3.31
iter:  11 01:42:55 -1978.382724c -4.04  -3.51
iter:  12 01:43:23 -1978.383508c -4.04  -3.58
iter:  13 01:43:52 -1978.382817c -4.31  -3.48
iter:  14 01:44:20 -1978.382987c -4.43  -3.78
iter:  15 01:44:49 -1978.383628c -4.62  -3.87
iter:  16 01:45:17 -1978.383429c -4.59  -3.87
iter:  17 01:45:46 -1978.383612c -4.90  -3.87
iter:  18 01:46:15 -1978.383604c -4.99  -4.11c
iter:  19 01:46:43 -1978.383446c -5.14  -4.19c
iter:  20 01:47:11 -1978.383473c -5.25  -4.22c
iter:  21 01:47:40 -1978.383425c -5.38  -4.33c
iter:  22 01:48:09 -1978.383591c -5.59  -4.43c
iter:  23 01:48:37 -1978.383459c -5.57  -4.42c
iter:  24 01:49:06 -1978.383583c -5.81  -4.19c
iter:  25 01:49:34 -1978.383548c -5.94  -4.67c
iter:  26 01:50:02 -1978.383570c -6.02  -4.76c
iter:  27 01:50:31 -1978.383537c -6.18  -4.84c
iter:  28 01:51:00 -1978.383544c -6.25  -4.90c
iter:  29 01:51:28 -1978.383535c -6.38  -4.98c
iter:  30 01:51:57 -1978.383553c -6.50  -5.13c
iter:  31 01:52:25 -1978.383557c -6.60  -5.03c
iter:  32 01:52:54 -1978.383567c -6.67  -5.15c
iter:  33 01:53:22 -1978.383569c -6.78  -5.38c
iter:  34 01:53:51 -1978.383581c -6.88  -5.41c
iter:  35 01:54:19 -1978.383577c -6.92  -5.32c
iter:  36 01:54:48 -1978.383577c -7.05  -5.50c
iter:  37 01:55:16 -1978.383570c -7.16  -5.38c
iter:  38 01:55:45 -1978.383566c -7.21  -5.44c
iter:  39 01:56:13 -1978.383572c -7.25  -5.58c
iter:  40 01:56:42 -1978.383571c -7.41c -5.58c

Converged after 40 iterations.

Dipole moment: (-1.032451, -9.973949, 0.068720) |e|*Ang

Energy contributions relative to reference atoms: (reference = -838105.366441)

Kinetic:       +638.133018
Potential:     -587.551830
External:        +0.000000
XC:            -2023.100735
Entropy (-ST):   -2.431191
Local:           -4.648429
--------------------------
Free energy:   -1979.599166
Extrapolated:  -1978.383571

Showing only first 2 kpts
 Kpt  Band  Eigenvalues  Occupancy
  0   217     -4.58855    1.08359
  0   218     -4.56728    0.97742
  0   219     -4.55451    0.91378
  0   220     -4.54248    0.85445

  1   217     -4.53383    0.81245
  1   218     -4.51534    0.72499
  1   219     -4.49162    0.61930
  1   220     -4.48926    0.60925


Fermi level: -4.57179

No gap

Forces in eV/Ang:
  0 Ti    0.00385   -0.00228    0.45804
  1 Ti    0.03636    0.04711   -0.31365
  2 Ti    0.06449    0.01654    0.11435
  3 Ti    0.11679   -0.07639   -0.02057
  4 Ti   -0.00137   -0.04211    0.30703
  5 Ti    0.00261   -0.12532   -0.41545
  6 Ti    0.03396    0.04353    0.06007
  7 Ti    0.13745    0.07063   -0.05944
  8 Ti   -0.01708    0.03259    0.33902
  9 Ti   -0.10175    0.05896   -0.39085
 10 Ti   -0.00309    0.00282   -0.05853
 11 Ti    0.02781   -0.02698    0.03128
 12 Ti   -0.03677   -0.00153    0.33873
 13 Ti   -0.02435   -0.11329   -0.38399
 14 Ti   -0.01213    0.00489    0.03896
 15 Ti    0.03329   -0.00901    0.03243
 16 Ti   -0.01704   -0.03241    0.32695
 17 Ti   -0.08220    0.04747   -0.35040
 18 Ti    0.02273   -0.01573    0.18617
 19 Ti   -0.07630    0.04206    0.05950
 20 Ti    0.00031   -0.00011    0.30599
 21 Ti    0.10985    0.06036   -0.41567
 22 Ti   -0.02002   -0.05140    0.06032
 23 Ti    0.03225   -0.02328    0.05550
 24 Ti    0.03589    0.02224    0.30679
 25 Ti   -0.01400    0.00748   -0.36925
 26 Ti   -0.04890    0.02799   -0.27697
 27 Ti    0.00637   -0.15407   -0.06047
 28 Ti    0.02092   -0.01195    0.28557
 29 Ti    0.08538    0.07740   -0.38271
 30 Ti   -0.00708    0.00769    0.03595
 31 Ti   -0.21293    0.12023   -0.08337
 32 Ti    0.01959    0.03109    0.32704
 33 Ti   -0.02219   -0.05505   -0.31330
 34 Ti    0.01682   -0.06543    0.11181
 35 Ti   -0.04227    0.07344    0.04772
 36 O    -0.00480   -0.02400   -0.00759

BFGS:    6 01:56:56    -1978.383571        0.2826
System changes: positions 

Initializing position-dependent things.

Density initialized from wave functions
                                              
                                              
                                              
                                              
                                              
                     O                        
           Ti     Ti     Ti                   
                                              
            Ti     TTi    TTi                 
              Ti      Ti    TTi               
                     Ti                       
               TTi    TTi    TTi              
                                              
                 Ti     Ti     Ti             
                                              
           Ti     TTi    TTi     Ti           
                                              
            Ti      Ti     Ti                 
              Ti      Ti     Ti               
                                              
                                              
                                              
                                              

Positions:
   0 Ti     0.000000    0.000000   10.000000    ( 0.0000,  0.0000,  0.0000)
   1 Ti     1.450615    0.837513   12.368845    ( 0.0000,  0.0000,  0.0000)
   2 Ti    -0.004924    1.678396   14.793882    ( 0.0000,  0.0000,  0.0000)
   3 Ti     0.014284   -0.010432   17.072117    ( 0.0000,  0.0000,  0.0000)
   4 Ti    -1.450615    2.512539   10.000000    ( 0.0000,  0.0000,  0.0000)
   5 Ti    -0.000000    3.350052   12.368845    ( 0.0000,  0.0000,  0.0000)
   6 Ti    -1.466554    4.184839   14.790747    ( 0.0000,  0.0000,  0.0000)
   7 Ti    -1.506788    2.468425   17.022790    ( 0.0000,  0.0000,  0.0000)
   8 Ti    -2.901231    5.025079   10.000000    ( 0.0000,  0.0000,  0.0000)
   9 Ti    -1.450615    5.862592   12.368845    ( 0.0000,  0.0000,  0.0000)
  10 Ti    -2.893717    6.695999   14.806141    ( 0.0000,  0.0000,  0.0000)
  11 Ti    -2.903441    5.040145   17.085828    ( 0.0000,  0.0000,  0.0000)
  12 Ti     2.901231    0.000000   10.000000    ( 0.0000,  0.0000,  0.0000)
  13 Ti     4.351846    0.837513   12.368845    ( 0.0000,  0.0000,  0.0000)
  14 Ti     2.897853    1.654626   14.784382    ( 0.0000,  0.0000,  0.0000)
  15 Ti     2.887289   -0.006416   17.085828    ( 0.0000,  0.0000,  0.0000)
  16 Ti     1.450615    2.512539   10.000000    ( 0.0000,  0.0000,  0.0000)
  17 Ti     2.901231    3.350052   12.368845    ( 0.0000,  0.0000,  0.0000)
  18 Ti     1.460224    4.181650   14.683155    ( 0.0000,  0.0000,  0.0000)
  19 Ti     1.475431    2.454050   17.148721    ( 0.0000,  0.0000,  0.0000)
  20 Ti    -0.000000    5.025079   10.000000    ( 0.0000,  0.0000,  0.0000)
  21 Ti     1.450615    5.862592   12.368845    ( 0.0000,  0.0000,  0.0000)
  22 Ti    -0.005423    6.715196   14.790422    ( 0.0000,  0.0000,  0.0000)
  23 Ti    -0.045442    5.050943   17.127066    ( 0.0000,  0.0000,  0.0000)
  24 Ti     5.802461    0.000000   10.000000    ( 0.0000,  0.0000,  0.0000)
  25 Ti     7.253076    0.837513   12.368845    ( 0.0000,  0.0000,  0.0000)
  26 Ti     5.813538    1.668490   14.738901    ( 0.0000,  0.0000,  0.0000)
  27 Ti     5.812407    0.070371   17.023006    ( 0.0000,  0.0000,  0.0000)
  28 Ti     4.351846    2.512539   10.000000    ( 0.0000,  0.0000,  0.0000)
  29 Ti     5.802461    3.350052   12.368845    ( 0.0000,  0.0000,  0.0000)
  30 Ti     4.367335    4.200928   14.785180    ( 0.0000,  0.0000,  0.0000)
  31 Ti     4.420137    2.472953   16.991961    ( 0.0000,  0.0000,  0.0000)
  32 Ti     2.901231    5.025079   10.000000    ( 0.0000,  0.0000,  0.0000)
  33 Ti     4.351846    5.862592   12.368845    ( 0.0000,  0.0000,  0.0000)
  34 Ti     2.895941    6.701960   14.794063    ( 0.0000,  0.0000,  0.0000)
  35 Ti     2.961858    5.030402   17.148886    ( 0.0000,  0.0000,  0.0000)
  36 O      1.445927    4.190386   18.021723    ( 0.0000,  0.0000,  0.0000)

Unit cell:
           periodic     x           y           z      points  spacing
  1. axis:    yes    8.703692    0.000000    0.000000    40     0.1884
  2. axis:    yes   -4.351846    7.537618    0.000000    40     0.1884
  3. axis:    no     0.000000    0.000000   27.106534   152     0.1783

  Lengths:   8.703692   8.703692  27.106534
  Angles:   90.000000  90.000000 120.000000

Effective grid spacing dv^(1/3) = 0.1941

     iter     time        total  log10-change:
                         energy  eigst   dens
iter:   1 01:58:14 -1978.420804  -2.78
iter:   2 01:58:42 -1978.779320  -2.62  -2.68
iter:   3 01:59:11 -1978.397605  -3.31  -1.96
iter:   4 01:59:39 -1978.395232  -3.82  -2.84
iter:   5 02:00:08 -1978.390661c -4.29  -3.10
iter:   6 02:00:36 -1978.389707c -4.39  -3.59
iter:   7 02:01:05 -1978.389349c -4.25  -3.56
iter:   8 02:01:33 -1978.389330c -4.67  -3.89
iter:   9 02:02:02 -1978.389500c -5.05  -3.92
iter:  10 02:02:30 -1978.389596c -5.28  -3.97
iter:  11 02:02:59 -1978.389240c -5.35  -3.93
iter:  12 02:03:28 -1978.389608c -5.54  -4.02c
iter:  13 02:03:56 -1978.389396c -5.59  -4.06c
iter:  14 02:04:25 -1978.389412c -5.90  -4.37c
iter:  15 02:04:53 -1978.389442c -6.05  -4.37c
iter:  16 02:05:22 -1978.389445c -6.21  -4.43c
iter:  17 02:05:50 -1978.389369c -6.20  -4.40c
iter:  18 02:06:19 -1978.389457c -6.34  -4.61c
iter:  19 02:06:47 -1978.389433c -6.57  -4.60c
iter:  20 02:07:16 -1978.389439c -6.81  -4.85c
iter:  21 02:07:44 -1978.389435c -6.96  -4.92c
iter:  22 02:08:12 -1978.389435c -7.01  -4.93c
iter:  23 02:08:41 -1978.389424c -7.17  -5.06c
iter:  24 02:09:09 -1978.389444c -7.18  -5.10c
iter:  25 02:09:38 -1978.389428c -7.26  -5.05c
iter:  26 02:10:06 -1978.389435c -7.48c -5.21c

Converged after 26 iterations.

Dipole moment: (-1.321296, -9.819412, 0.070619) |e|*Ang

Energy contributions relative to reference atoms: (reference = -838105.366441)

Kinetic:       +638.519138
Potential:     -587.895384
External:        +0.000000
XC:            -2023.148864
Entropy (-ST):   -2.431415
Local:           -4.648618
--------------------------
Free energy:   -1979.605143
Extrapolated:  -1978.389435

Showing only first 2 kpts
 Kpt  Band  Eigenvalues  Occupancy
  0   217     -4.58719    1.08469
  0   218     -4.56560    0.97696
  0   219     -4.55199    0.90912
  0   220     -4.54055    0.85275

  1   217     -4.53060    0.80450
  1   218     -4.51379    0.72513
  1   219     -4.49076    0.62238
  1   220     -4.48753    0.60862


Fermi level: -4.57021

No gap

Forces in eV/Ang:
  0 Ti    0.00465   -0.00275    0.45773
  1 Ti    0.03673    0.04688   -0.31496
  2 Ti    0.06242    0.00890    0.09819
  3 Ti    0.12795   -0.08267   -0.01107
  4 Ti   -0.00094   -0.04220    0.30842
  5 Ti    0.00485   -0.12423   -0.41008
  6 Ti    0.01730    0.03461    0.05783
  7 Ti    0.10862    0.05238   -0.06525
  8 Ti   -0.01727    0.03381    0.33840
  9 Ti   -0.10247    0.05939   -0.39263
 10 Ti    0.00172   -0.00045   -0.05353
 11 Ti    0.02405   -0.02080    0.02957
 12 Ti   -0.03792   -0.00199    0.33813
 13 Ti   -0.02776   -0.11527   -0.38596
 14 Ti   -0.01390   -0.00275    0.03693
 15 Ti    0.02680   -0.00890    0.02976
 16 Ti   -0.01714   -0.03224    0.32874
 17 Ti   -0.08354    0.04832   -0.34515
 18 Ti    0.01321   -0.00923    0.15538
 19 Ti   -0.06772   -0.06764    0.02351
 20 Ti    0.00069   -0.00033    0.30813
 21 Ti    0.11000    0.05770   -0.41027
 22 Ti   -0.02081   -0.03242    0.05869
 23 Ti   -0.08852    0.04765    0.01713
 24 Ti    0.03620    0.02190    0.30820
 25 Ti   -0.01046    0.00547   -0.37067
 26 Ti   -0.02732    0.01548   -0.22186
 27 Ti    0.00803   -0.12060   -0.06617
 28 Ti    0.02048   -0.01169    0.28612
 29 Ti    0.08542    0.08131   -0.38491
 30 Ti   -0.00169    0.01299    0.03402
 31 Ti   -0.14535    0.08178   -0.08227
 32 Ti    0.01941    0.03111    0.32880
 33 Ti   -0.02179   -0.05526   -0.31473
 34 Ti    0.02238   -0.05961    0.09538
 35 Ti    0.04272    0.11339    0.01604
 36 O     0.00323   -0.01799    0.13129

BFGS:    7 02:10:21    -1978.389435        0.2241
System changes: positions 

Initializing position-dependent things.

Density initialized from wave functions
                                              
                                              
                                              
                                              
                                              
                     O                        
           Ti     Ti     Ti                   
                                              
            Ti     TTi    TTi                 
              Ti      Ti    TTi               
                     Ti                       
               TTi    TTi    TTi              
                                              
                 Ti     Ti     Ti             
                                              
           Ti     TTi    TTi     Ti           
                                              
            Ti      Ti     Ti                 
              Ti      Ti     Ti               
                                              
                                              
                                              
                                              

Positions:
[...]
  31 Ti     4.408830    2.478092   16.939520    ( 0.0000,  0.0000,  0.0000)
  32 Ti     2.901231    5.025079   10.000000    ( 0.0000,  0.0000,  0.0000)
  33 Ti     4.351846    5.862592   12.368845    ( 0.0000,  0.0000,  0.0000)
  34 Ti     2.934503    6.673499   14.808569    ( 0.0000,  0.0000,  0.0000)
  35 Ti     2.957379    5.031802   17.191695    ( 0.0000,  0.0000,  0.0000)
  36 O      1.450882    4.185513   18.090079    ( 0.0000,  0.0000,  0.0000)

Unit cell:
           periodic     x           y           z      points  spacing
  1. axis:    yes    8.703692    0.000000    0.000000    40     0.1884
  2. axis:    yes   -4.351846    7.537618    0.000000    40     0.1884
  3. axis:    no     0.000000    0.000000   27.106534   152     0.1783

  Lengths:   8.703692   8.703692  27.106534
  Angles:   90.000000  90.000000 120.000000

Effective grid spacing dv^(1/3) = 0.1941

     iter     time        total  log10-change:
                         energy  eigst   dens
iter:   1 04:37:43 -1978.457804  -2.97
iter:   2 04:38:12 -1979.164885  -2.40  -2.63
iter:   3 04:38:40 -1978.443844  -3.26  -1.84
iter:   4 04:39:09 -1978.440533  -3.75  -3.18
iter:   5 04:39:37 -1978.441273c -4.15  -3.41
iter:   6 04:40:06 -1978.441529c -4.40  -3.56
iter:   7 04:40:34 -1978.441275c -4.43  -3.70
iter:   8 04:41:03 -1978.441370c -4.71  -3.98
iter:   9 04:41:31 -1978.441374c -4.97  -4.07c
iter:  10 04:42:00 -1978.441288c -5.17  -4.16c
iter:  11 04:42:28 -1978.441530c -5.25  -4.00
iter:  12 04:42:56 -1978.441280c -5.31  -4.13c
iter:  13 04:43:25 -1978.441378c -5.69  -3.96
iter:  14 04:43:53 -1978.441401c -5.84  -4.41c
iter:  15 04:44:22 -1978.441419c -5.88  -4.43c
iter:  16 04:44:50 -1978.441438c -5.93  -4.54c
iter:  17 04:45:19 -1978.441403c -6.16  -4.55c
iter:  18 04:45:47 -1978.441445c -6.41  -4.71c
iter:  19 04:46:16 -1978.441399c -6.34  -4.68c
iter:  20 04:46:44 -1978.441413c -6.58  -4.59c
iter:  21 04:47:13 -1978.441416c -6.75  -5.07c
iter:  22 04:47:41 -1978.441414c -6.89  -5.10c
iter:  23 04:48:10 -1978.441426c -6.96  -5.11c
iter:  24 04:48:38 -1978.441417c -7.06  -5.14c
iter:  25 04:49:06 -1978.441430c -7.21  -5.09c
iter:  26 04:49:35 -1978.441422c -7.28  -5.07c
iter:  27 04:50:03 -1978.441421c -7.37  -5.26c
iter:  28 04:50:32 -1978.441423c -7.43c -5.38c

Converged after 28 iterations.

Dipole moment: (-3.383313, -8.651762, 0.075979) |e|*Ang

Energy contributions relative to reference atoms: (reference = -838105.366441)

Kinetic:       +637.343852
Potential:     -586.868397
External:        +0.000000
XC:            -2023.051504
Entropy (-ST):   -2.414477
Local:           -4.658135
--------------------------
Free energy:   -1979.648661
Extrapolated:  -1978.441423

Showing only first 2 kpts
 Kpt  Band  Eigenvalues  Occupancy
  0   217     -4.59074    1.12567
  0   218     -4.56527    0.99900
  0   219     -4.54329    0.88954
  0   220     -4.53327    0.84037

  1   217     -4.52510    0.80084
  1   218     -4.51297    0.74335
  1   219     -4.48553    0.62030
  1   220     -4.48335    0.61103


Fermi level: -4.56547

No gap

Forces in eV/Ang:
  0 Ti    0.01032   -0.00601    0.44969
  1 Ti    0.05141    0.02128   -0.32180
  2 Ti   -0.00989   -0.02205    0.00762
  3 Ti   -0.00054    0.00061   -0.00209
  4 Ti    0.00303   -0.04145    0.32013
  5 Ti    0.02031   -0.11857   -0.33930
  6 Ti    0.01006   -0.01374   -0.01723
  7 Ti   -0.01899    0.01202    0.01708
  8 Ti   -0.01631    0.04354    0.32507
  9 Ti   -0.10682    0.06179   -0.40305
 10 Ti    0.01461   -0.01069    0.01305
 11 Ti    0.00724   -0.01039   -0.01046
 12 Ti   -0.04603   -0.00741    0.32491
 13 Ti   -0.09283   -0.14797   -0.43973
 14 Ti   -0.00056   -0.02566   -0.01181
 15 Ti    0.00863   -0.00164   -0.01256
 16 Ti   -0.01703   -0.02398    0.35217
 17 Ti   -0.10225    0.05961   -0.25007
 18 Ti    0.02930   -0.01512    0.00037
 19 Ti   -0.01684   -0.04348   -0.00845
 20 Ti    0.00654   -0.00390    0.33536
 21 Ti    0.11189    0.04124   -0.33986
 22 Ti    0.01780   -0.00173   -0.01768
 23 Ti   -0.02216    0.01528    0.01598
 24 Ti    0.03765    0.01815    0.32026
 25 Ti    0.06153   -0.03530   -0.43364
 26 Ti    0.01974   -0.01113    0.02401
 27 Ti   -0.02075    0.00919    0.01814
 28 Ti    0.01710   -0.00994    0.29418
 29 Ti    0.08046    0.15441   -0.43957
 30 Ti    0.01986    0.01266   -0.01154
 31 Ti    0.02259   -0.01446    0.03064
 32 Ti    0.01217    0.02697    0.35199
 33 Ti    0.00751   -0.05591   -0.32216
 34 Ti    0.01178    0.01849    0.00723
 35 Ti    0.01370    0.03205   -0.00495
 36 O    -0.00436    0.02268    0.07882

BFGS:   18 04:50:46    -1978.441423        0.0821
System changes: positions 

Initializing position-dependent things.

Density initialized from wave functions
                                              
                                              
                                              
                                              
                                              
                     O                        
           Ti     Ti     Ti                   
                                              
            Ti     TTi    TTi                 
              TTi     Ti    Ti                
                     Ti      Ti               
               TTi    TTi    TTi              
                                              
                 Ti     Ti     Ti             
                                              
           Ti     TTi    TTi     Ti           
                                              
            Ti      Ti     Ti                 
              Ti      Ti     Ti               
                                              
                                              
                                              
                                              

Positions:
   0 Ti     0.000000    0.000000   10.000000    ( 0.0000,  0.0000,  0.0000)
   1 Ti     1.450615    0.837513   12.368845    ( 0.0000,  0.0000,  0.0000)
   2 Ti     0.039961    1.657516   14.808936    ( 0.0000,  0.0000,  0.0000)
   3 Ti     0.049589   -0.031611   17.090254    ( 0.0000,  0.0000,  0.0000)
   4 Ti    -1.450615    2.512539   10.000000    ( 0.0000,  0.0000,  0.0000)
   5 Ti    -0.000000    3.350052   12.368845    ( 0.0000,  0.0000,  0.0000)
   6 Ti    -1.466724    4.196046   14.809676    ( 0.0000,  0.0000,  0.0000)
   7 Ti    -1.485319    2.460145   16.952971    ( 0.0000,  0.0000,  0.0000)
   8 Ti    -2.901231    5.025079   10.000000    ( 0.0000,  0.0000,  0.0000)
   9 Ti    -1.450615    5.862592   12.368845    ( 0.0000,  0.0000,  0.0000)
  10 Ti    -2.886614    6.691239   14.791940    ( 0.0000,  0.0000,  0.0000)
  11 Ti    -2.896939    5.040263   17.107270    ( 0.0000,  0.0000,  0.0000)
  12 Ti     2.901231    0.000000   10.000000    ( 0.0000,  0.0000,  0.0000)
  13 Ti     4.351846    0.837513   12.368845    ( 0.0000,  0.0000,  0.0000)
  14 Ti     2.899662    1.645917   14.802184    ( 0.0000,  0.0000,  0.0000)
  15 Ti     2.889589   -0.012530   17.105998    ( 0.0000,  0.0000,  0.0000)
  16 Ti     1.450615    2.512539   10.000000    ( 0.0000,  0.0000,  0.0000)
  17 Ti     2.901231    3.350052   12.368845    ( 0.0000,  0.0000,  0.0000)
  18 Ti     1.462549    4.180073   14.747843    ( 0.0000,  0.0000,  0.0000)
  19 Ti     1.473044    2.459921   17.192110    ( 0.0000,  0.0000,  0.0000)
  20 Ti    -0.000000    5.025079   10.000000    ( 0.0000,  0.0000,  0.0000)
  21 Ti     1.450615    5.862592   12.368845    ( 0.0000,  0.0000,  0.0000)
  22 Ti    -0.015440    6.709654   14.810048    ( 0.0000,  0.0000,  0.0000)
  23 Ti    -0.042240    5.047974   17.173493    ( 0.0000,  0.0000,  0.0000)
  24 Ti     5.802461    0.000000   10.000000    ( 0.0000,  0.0000,  0.0000)
  25 Ti     7.253076    0.837513   12.368845    ( 0.0000,  0.0000,  0.0000)
  26 Ti     5.814793    1.667672   14.665103    ( 0.0000,  0.0000,  0.0000)
  27 Ti     5.830527    0.055880   16.953346    ( 0.0000,  0.0000,  0.0000)
  28 Ti     4.351846    2.512539   10.000000    ( 0.0000,  0.0000,  0.0000)
  29 Ti     5.802461    3.350052   12.368845    ( 0.0000,  0.0000,  0.0000)
  30 Ti     4.376324    4.203399   14.803157    ( 0.0000,  0.0000,  0.0000)
  31 Ti     4.408424    2.478209   16.941242    ( 0.0000,  0.0000,  0.0000)
  32 Ti     2.901231    5.025079   10.000000    ( 0.0000,  0.0000,  0.0000)
  33 Ti     4.351846    5.862592   12.368845    ( 0.0000,  0.0000,  0.0000)
  34 Ti     2.935419    6.674253   14.807793    ( 0.0000,  0.0000,  0.0000)
  35 Ti     2.957877    5.031454   17.191345    ( 0.0000,  0.0000,  0.0000)
  36 O      1.450774    4.185514   18.093111    ( 0.0000,  0.0000,  0.0000)

Unit cell:
           periodic     x           y           z      points  spacing
  1. axis:    yes    8.703692    0.000000    0.000000    40     0.1884
  2. axis:    yes   -4.351846    7.537618    0.000000    40     0.1884
  3. axis:    no     0.000000    0.000000   27.106534   152     0.1783

  Lengths:   8.703692   8.703692  27.106534
  Angles:   90.000000  90.000000 120.000000

Effective grid spacing dv^(1/3) = 0.1941

     iter     time        total  log10-change:
                         energy  eigst   dens
iter:   1 04:52:04 -1978.445133  -3.70
iter:   2 04:52:32 -1978.672390  -2.91  -2.88
iter:   3 04:53:01 -1978.443022  -3.78  -2.09
iter:   4 04:53:29 -1978.440875  -4.30  -3.33
iter:   5 04:53:58 -1978.441143c -4.62  -3.73
iter:   6 04:54:26 -1978.441429c -4.90  -3.86
iter:   7 04:54:55 -1978.441378c -4.95  -4.08c
iter:   8 04:55:23 -1978.441414c -5.25  -4.33c
iter:   9 04:55:52 -1978.441374c -5.51  -4.43c
iter:  10 04:56:20 -1978.441325c -5.70  -4.49c
iter:  11 04:56:49 -1978.441376c -5.77  -4.42c
iter:  12 04:57:18 -1978.441281c -5.93  -4.56c
iter:  13 04:57:46 -1978.441365c -6.20  -4.63c
iter:  14 04:58:15 -1978.441363c -6.32  -4.60c
iter:  15 04:58:43 -1978.441368c -6.42  -4.69c
iter:  16 04:59:12 -1978.441365c -6.48  -4.74c
iter:  17 04:59:40 -1978.441377c -6.65  -4.91c
iter:  18 05:00:09 -1978.441413c -6.77  -4.92c
iter:  19 05:00:38 -1978.441391c -6.86  -5.07c
iter:  20 05:01:06 -1978.441388c -7.04  -5.09c
iter:  21 05:01:35 -1978.441394c -7.30  -5.04c
iter:  22 05:02:03 -1978.441385c -7.25  -4.97c
iter:  23 05:02:32 -1978.441380c -7.48c -5.22c

Converged after 23 iterations.

Dipole moment: (-3.321046, -8.685947, 0.074921) |e|*Ang

Energy contributions relative to reference atoms: (reference = -838105.366441)

Kinetic:       +637.164812
Potential:     -586.728970
External:        +0.000000
XC:            -2023.011464
Entropy (-ST):   -2.415429
Local:           -4.658044
--------------------------
Free energy:   -1979.649094
Extrapolated:  -1978.441380

Showing only first 2 kpts
 Kpt  Band  Eigenvalues  Occupancy
  0   217     -4.59105    1.12337
  0   218     -4.56598    0.99865
  0   219     -4.54397    0.88906
  0   220     -4.53405    0.84038

  1   217     -4.52597    0.80129
  1   218     -4.51377    0.74347
  1   219     -4.48621    0.61991
  1   220     -4.48412    0.61098


Fermi level: -4.56625

No gap

Forces in eV/Ang:
  0 Ti    0.01024   -0.00599    0.45024
  1 Ti    0.05125    0.02154   -0.32119
  2 Ti   -0.00603   -0.01249    0.01287
  3 Ti    0.00942   -0.00501   -0.00407
  4 Ti    0.00298   -0.04151    0.32027
  5 Ti    0.02051   -0.11895   -0.34089
  6 Ti    0.00464   -0.01582   -0.01121
  7 Ti   -0.00708    0.00818    0.01120
  8 Ti   -0.01642    0.04326    0.32562
  9 Ti   -0.10710    0.06201   -0.40349
 10 Ti    0.02092   -0.01451    0.00669
 11 Ti    0.00796   -0.00971   -0.01103
 12 Ti   -0.04582   -0.00721    0.32542
 13 Ti   -0.09102   -0.14768   -0.43884
 14 Ti   -0.00412   -0.02598   -0.00932
 15 Ti    0.00810   -0.00197   -0.01374
 16 Ti   -0.01702   -0.02440    0.35225
 17 Ti   -0.10009    0.05830   -0.25248
 18 Ti    0.01442   -0.00623    0.01581
 19 Ti   -0.02471   -0.03139   -0.00244
 20 Ti    0.00636   -0.00377    0.33575
 21 Ti    0.11237    0.04122   -0.34143
 22 Ti    0.01663    0.00385   -0.01093
 23 Ti   -0.01294    0.01069    0.02317
 24 Ti    0.03769    0.01820    0.32037
 25 Ti    0.06010   -0.03449   -0.43147
 26 Ti    0.02060   -0.01157    0.01656
 27 Ti   -0.01096   -0.00049    0.01185
 28 Ti    0.01712   -0.00992    0.29445
 29 Ti    0.08104    0.15276   -0.43863
 30 Ti    0.01873    0.01578   -0.00969
 31 Ti    0.02435   -0.01525    0.03092
 32 Ti    0.01257    0.02719    0.35204
 33 Ti    0.00710   -0.05591   -0.32135
 34 Ti    0.00516    0.00966    0.01162
 35 Ti   -0.00553    0.02944    0.00255
 36 O     0.00046    0.02394    0.03776

BFGS:   19 05:02:46    -1978.441380        0.0447
Timing:                                      incl.     excl.
-------------------------------------------------------------------
Density initialized from wave functions:    13.405    13.404   0.1% |
 Symmetrize density:                         0.001     0.001   0.0% |
Forces:                                    297.390   297.390   1.4% ||
Hamiltonian:                                69.667     0.003   0.0% |
 Atomic:                                     0.005     0.005   0.0% |
  XC Correction:                             0.000     0.000   0.0% |
 Calculate atomic Hamiltonians:              0.006     0.006   0.0% |
 Communicate:                                3.468     3.468   0.0% |
 Hartree integrate/restrict:                 0.210     0.210   0.0% |
 Initialize Hamiltonian:                     0.002     0.002   0.0% |
 Poisson:                                    3.470     0.144   0.0% |
  Communicate from 1D:                       0.285     0.285   0.0% |
  Communicate from 2D:                       0.611     0.611   0.0% |
  Communicate to 1D:                         0.166     0.166   0.0% |
  Communicate to 2D:                         0.653     0.653   0.0% |
  FFT 1D:                                    0.757     0.757   0.0% |
  FFT 2D:                                    0.854     0.854   0.0% |
 XC 3D grid:                                62.325    15.527   0.1% |
  VdW-DF integral:                          46.798     2.556   0.0% |
   Convolution:                              4.145     4.145   0.0% |
   FFT:                                      3.009     3.009   0.0% |
   gather:                                  13.579    13.579   0.1% |
   hmm1:                                     0.829     0.829   0.0% |
   hmm2:                                     1.857     1.857   0.0% |
   iFFT:                                     2.849     2.849   0.0% |
   potential:                               13.769     0.318   0.0% |
    collect:                                 0.962     0.962   0.0% |
    p1:                                      8.278     8.278   0.0% |
    p2:                                      2.823     2.823   0.0% |
    sum:                                     1.388     1.388   0.0% |
   splines:                                  4.206     4.206   0.0% |
 vbar:                                       0.178     0.178   0.0% |
LCAO initialization:                        47.499     1.220   0.0% |
 LCAO eigensolver:                          35.822     0.005   0.0% |
  Calculate projections:                     0.000     0.000   0.0% |
  DenseAtomicCorrection:                     0.000     0.000   0.0% |
  Distribute overlap matrix:                34.584    34.584   0.2% |
  Orbital Layouts:                           1.036     1.036   0.0% |
  Potential matrix:                          0.039     0.039   0.0% |
  Sum over cells:                            0.158     0.158   0.0% |
 LCAO to grid:                               8.456     8.456   0.0% |
 Set positions (LCAO WFS):                   2.000     1.370   0.0% |
  Basic WFS set positions:                   0.001     0.001   0.0% |
  Basis functions set positions:             0.000     0.000   0.0% |
  P tci:                                     0.000     0.000   0.0% |
  ST tci:                                    0.540     0.540   0.0% |
  mktci:                                     0.088     0.088   0.0% |
Redistribute:                                0.012     0.012   0.0% |
SCF-cycle:                               20063.861   381.902   1.8% ||
 Davidson:                               17327.452  5783.149  27.1% |----------|
  Apply hamiltonian:                       422.646   422.646   2.0% ||
  Subspace diag:                          1646.727     0.083   0.0% |
   calc_h_matrix:                          837.903   433.791   2.0% ||
    Apply hamiltonian:                     404.112   404.112   1.9% ||
   diagonalize:                             35.497    35.497   0.2% |
   rotate_psi:                             773.244   773.244   3.6% ||
  calc. matrices:                         7800.075  2868.438  13.4% |----|
   Apply hamiltonian:                     4931.637  4931.637  23.1% |--------|
  diagonalize:                             185.750   185.750   0.9% |
  rotate_psi:                             1489.106  1489.106   7.0% |--|
 Density:                                   42.451     0.017   0.0% |
  Atomic density matrices:                   4.033     4.033   0.0% |
  Mix:                                      12.262    12.262   0.1% |
  Multipole moments:                         0.302     0.302   0.0% |
  Pseudo density:                           25.837    25.822   0.1% |
   Symmetrize density:                       0.015     0.015   0.0% |
 Hamiltonian:                             2234.598     0.087   0.0% |
  Atomic:                                    0.178     0.176   0.0% |
   XC Correction:                            0.003     0.003   0.0% |
  Calculate atomic Hamiltonians:             0.226     0.226   0.0% |
  Communicate:                             115.698   115.698   0.5% |
  Hartree integrate/restrict:                7.132     7.132   0.0% |
  Poisson:                                 119.244     4.739   0.0% |
   Communicate from 1D:                      9.820     9.820   0.0% |
   Communicate from 2D:                     20.860    20.860   0.1% |
   Communicate to 1D:                        5.671     5.671   0.0% |
   Communicate to 2D:                       22.444    22.444   0.1% |
   FFT 1D:                                  26.066    26.066   0.1% |
   FFT 2D:                                  29.645    29.645   0.1% |
  XC 3D grid:                             1990.841   523.816   2.5% ||
   VdW-DF integral:                       1467.024    87.541   0.4% |
    Convolution:                           142.495   142.495   0.7% |
    FFT:                                   102.620   102.620   0.5% |
    gather:                                473.693   473.693   2.2% ||
    hmm1:                                   28.551    28.551   0.1% |
    hmm2:                                   61.777    61.777   0.3% |
    iFFT:                                   97.753    97.753   0.5% |
    potential:                             472.591    11.345   0.1% |
     collect:                               31.701    31.701   0.1% |
     p1:                                   285.075   285.075   1.3% ||
     p2:                                    97.556    97.556   0.5% |
     sum:                                   46.914    46.914   0.2% |
    splines:                                 0.004     0.004   0.0% |
  vbar:                                      1.192     1.192   0.0% |
 Orthonormalize:                            77.457     0.004   0.0% |
  calc_s_matrix:                             5.504     5.504   0.0% |
  inverse-cholesky:                         61.086    61.086   0.3% |
  projections:                               0.001     0.001   0.0% |
  rotate_psi_s:                             10.863    10.863   0.1% |
Set symmetry:                                0.001     0.001   0.0% |
Other:                                     845.317   845.317   4.0% |-|
-------------------------------------------------------------------
Total:                                             21337.152 100.0%

Memory usage: 1.50 GiB
Date: Thu Sep 28 05:02:47 2023
