
  ___ ___ ___ _ _ _  
 |   |   |_  | | | | 
 | | | | | . | | | | 
 |__ |  _|___|_____|  22.8.0
 |___|_|             

User:   s204775@c043.nifl.fysik.dtu.dk
Date:   Wed Sep 27 23:20:54 2023
Arch:   x86_64
Pid:    3380
CWD:    /home/cat/s204775/projects/Bachelor_project/O_missing_features
Python: 3.10.4
gpaw:   /home/modules/software/GPAW/22.8.0-intel-2022a/lib/python3.10/site-packages/gpaw
_gpaw:  /home/modules/software/GPAW/22.8.0-intel-2022a/lib/python3.10/site-packages/
        _gpaw.cpython-310-x86_64-linux-gnu.so
ase:    /home/modules/software/ASE/3.22.1-intel-2022a/lib/python3.10/site-packages/ase (version 3.22.1)
numpy:  /home/modules/software/SciPy-bundle/2022.05-intel-2022a/lib/python3.10/site-packages/numpy (version 1.22.3)
scipy:  /home/modules/software/SciPy-bundle/2022.05-intel-2022a/lib/python3.10/site-packages/scipy (version 1.8.1)
libxc:  5.2.3
units:  Angstrom and eV
cores: 40
OpenMP: False
OMP_NUM_THREADS: 1

Input parameters:
  basis: dzp
  h: 0.18
  kpts: {size: (4, 4, 1)}
  xc: BEEF-vdW

System changes: positions, numbers, cell, pbc, initial_charges, initial_magmoms 

Initialize ...

species:
  Tl:
    name: Thallium
    id: 5a3688cb07e09c63f278d9dd157b5100
    Z: 81.0
    valence: 13
    core: 68
    charge: 0.0
    file: /home/modules/software/GPAW-setups/0.9.20000/Tl.PBE.gz
    compensation charges: {type: gauss,
                           rc: 0.38,
                           lmax: 2}
    cutoffs: {filter: 2.11,
              core: 2.55}
    valence states:
      #              energy  rcut
      - 6s(2.00)    -9.493   1.212
      - 6p(1.00)    -2.379   1.270
      - 5d(10.00)   -15.517   1.191
      -  s          17.718   1.212
      -  p          24.832   1.270
      -  d          11.695   1.191
  
    # LCAO basis set for Tl:
    #   Name: dzp
    #   File: /home/modules/software/GPAW-setups/0.9.20000/Tl.dzp.basis.gz
    #   Number of radial functions: 7
    #   Number of spherical harmonics: 23
    #     l=0, rc=7.3438 Bohr: 6s-sz confined orbital
    #     l=1, rc=11.0312 Bohr: 6p-sz confined orbital
    #     l=2, rc=4.8750 Bohr: 5d-sz confined orbital
    #     l=0, rc=4.2500 Bohr: 6s-dz split-valence wave
    #     l=1, rc=6.6250 Bohr: 6p-dz split-valence wave
    #     l=2, rc=2.9531 Bohr: 5d-dz split-valence wave
    #     l=2, rc=11.0312 Bohr: d-type Gaussian polarization
    #   Number of RI-basis functions 0

  O:
    name: Oxygen
    id: 32ecd46bf208036f09c70b0ec9a88b78
    Z: 8.0
    valence: 6
    core: 2
    charge: 0.0
    file: /home/modules/software/GPAW-setups/0.9.20000/O.PBE.gz
    compensation charges: {type: gauss,
                           rc: 0.21,
                           lmax: 2}
    cutoffs: {filter: 1.17,
              core: 0.83}
    valence states:
      #              energy  rcut
      - 2s(2.00)   -23.961   0.688
      - 2p(4.00)    -9.029   0.598
      -  s           3.251   0.688
      -  p          18.182   0.598
      -  d           0.000   0.619
  
    # LCAO basis set for O:
    #   Name: dzp
    #   File: /home/modules/software/GPAW-setups/0.9.20000/O.dzp.basis.gz
    #   Number of radial functions: 5
    #   Number of spherical harmonics: 13
    #     l=0, rc=4.3438 Bohr: 2s-sz confined orbital
    #     l=1, rc=5.3906 Bohr: 2p-sz confined orbital
    #     l=0, rc=2.2969 Bohr: 2s-dz split-valence wave
    #     l=1, rc=2.8906 Bohr: 2p-dz split-valence wave
    #     l=2, rc=5.3906 Bohr: d-type Gaussian polarization
    #   Number of RI-basis functions 0

Reference energy: -19803660.142079  # eV

Spin-paired calculation

Convergence criteria:
 Maximum [total energy] change in last 3 cyles: 0.0005 eV / electron
 Maximum integral of absolute [dens]ity change: 0.0001 electrons / valence electron
 Maximum integral of absolute [eigenst]ate change: 4e-08 eV^2 / valence electron
 Maximum number of scf [iter]ations: 333
 (Square brackets indicate name in SCF output, whereas a 'c' in
 the SCF output indicates the quantity has converged.)

Symmetries present (total): 2

  ( 1  0  0)  (-1  0  0)
  ( 0  1  0)  (-1  1  0)
  ( 0  0  1)  ( 0  0  1)
Note: your k-points are not as symmetric as your crystal!

16 k-points: 4 x 4 x 1 Monkhorst-Pack grid
8 k-points in the irreducible part of the Brillouin zone
       k-points in crystal coordinates                weights
   0:     0.12500000   -0.37500000    0.00000000          2/16
   1:     0.12500000   -0.12500000    0.00000000          2/16
   2:     0.12500000    0.12500000    0.00000000          2/16
   3:     0.12500000    0.37500000    0.00000000          2/16
   4:     0.37500000   -0.37500000    0.00000000          2/16
   5:     0.37500000   -0.12500000    0.00000000          2/16
   6:     0.37500000    0.12500000    0.00000000          2/16
   7:     0.37500000    0.37500000    0.00000000          2/16

Wave functions: Uniform real-space grid
  Kinetic energy operator: 8*3+1=25 point O(h^6) finite-difference Laplacian
  ScaLapack parameters: grid=1x1, blocksize=None
  Wavefunction extrapolation:
    Improved wavefunction reuse through dual PAW basis 

Occupation numbers: Fermi-Dirac:
  width: 0.1000  # eV
 

Eigensolver
   Davidson(niter=2) 

Densities:
  Coarse grid: 52*52*160 grid
  Fine grid: 104*104*320 grid
  Total Charge: 0.000000 

Density mixing:
  Method: separate
  Backend: pulay
  Linear mixing parameter: 0.05
  old densities: 5
  Damping of long wavelength oscillations: 50 

Hamiltonian:
  XC and Coulomb potentials evaluated on a 104*104*320 grid
  Using the BEEF-vdW Exchange-Correlation functional
  Interpolation: tri-quintic (5. degree polynomial)
  Poisson solver: FastPoissonSolver using
    Stencil: 8*3+1=25 point O(h^6) finite-difference Laplacian
    FFT axes: [0, 1]
    FST axes: [2]
 

XC parameters: BEEF-vdW with 2 nearest neighbor stencil

Memory estimate:
  Process memory now: 248.49 MiB
  Calculator: 845.19 MiB
    Density: 66.33 MiB
      Arrays: 16.88 MiB
      Localized functions: 43.06 MiB
      Mixer: 6.40 MiB
    Hamiltonian: 13.75 MiB
      Arrays: 11.04 MiB
      XC: 0.00 MiB
      Poisson: 0.00 MiB
      vbar: 2.71 MiB
    Wavefunctions: 765.12 MiB
      Arrays psit_nG: 369.65 MiB
      Eigensolver: 388.79 MiB
      Projections: 0.58 MiB
      Projectors: 6.09 MiB

Total number of cores used: 40
Parallelization over k-points: 8
Domain decomposition: 1 x 1 x 5

Number of atoms: 37
Number of atomic orbitals: 841
Number of bands in calculation: 289
Number of valence electrons: 474
Bands to converge: occupied

... initialized

Initializing position-dependent things.

Density initialized from atomic densities
Creating initial wave functions:
  289 bands from LCAO basis set

                                                             
                                                             
                                                             
                                                             
                                      O                      
                                  Tl       Tl       Tl       
                                                             
                            Tl       Tl       Tl             
                                                             
                      Tl       Tl      Tl                    
                         Tl      Tl       Tl                 
                                                             
                  Tl       Tl       Tl                       
                             Tl       Tl       Tl            
            Tl       Tl       Tl                             
                       Tl       Tl       Tl                  
                 Tl       Tl      Tl                         
                                                             
                    Tl      Tl       Tl                      
             Tl       Tl       Tl                            
                                                             
       Tl       Tl       Tl                                  
                                                             
                                                             
                                                             
                                                             

Positions:
   0 Tl     0.000000    0.000000   10.000000    ( 0.0000,  0.0000,  0.0000)
   1 Tl     3.527816    2.036786   12.880450    ( 0.0000,  0.0000,  0.0000)
   2 Tl     1.764813    1.018915   15.753208    ( 0.0000,  0.0000,  0.0000)
   3 Tl     5.291724    3.055179   18.682936    ( 0.0000,  0.0000,  0.0000)
   4 Tl     1.763908    3.055179   10.000000    ( 0.0000,  0.0000,  0.0000)
   5 Tl     5.291724    5.091964   12.880450    ( 0.0000,  0.0000,  0.0000)
   6 Tl     3.536429    4.068599   15.756428    ( 0.0000,  0.0000,  0.0000)
   7 Tl     7.055234    6.110037   18.676583    ( 0.0000,  0.0000,  0.0000)
   8 Tl     3.527816    6.110357   10.000000    ( 0.0000,  0.0000,  0.0000)
   9 Tl     7.055633    8.147143   12.880450    ( 0.0000,  0.0000,  0.0000)
  10 Tl     5.291724    7.127705   15.753208    ( 0.0000,  0.0000,  0.0000)
  11 Tl     8.819619    9.166041   18.676583    ( 0.0000,  0.0000,  0.0000)
  12 Tl     3.527816    0.000000   10.000000    ( 0.0000,  0.0000,  0.0000)
  13 Tl     7.055633    2.036786   12.880450    ( 0.0000,  0.0000,  0.0000)
  14 Tl     5.291724    1.028338   15.756428    ( 0.0000,  0.0000,  0.0000)
  15 Tl     8.819065    3.054993   18.676583    ( 0.0000,  0.0000,  0.0000)
  16 Tl     5.291724    3.055179   10.000000    ( 0.0000,  0.0000,  0.0000)
  17 Tl     8.819541    5.091964   12.880450    ( 0.0000,  0.0000,  0.0000)
  18 Tl     7.047020    4.068599   15.756428    ( 0.0000,  0.0000,  0.0000)
  19 Tl    10.583449    6.110357   18.680650    ( 0.0000,  0.0000,  0.0000)
  20 Tl     7.055633    6.110357   10.000000    ( 0.0000,  0.0000,  0.0000)
  21 Tl    10.583449    8.147143   12.880450    ( 0.0000,  0.0000,  0.0000)
  22 Tl     8.816138    7.130714   15.755224    ( 0.0000,  0.0000,  0.0000)
  23 Tl    12.347279    9.166041   18.676583    ( 0.0000,  0.0000,  0.0000)
  24 Tl     7.055633    0.000000   10.000000    ( 0.0000,  0.0000,  0.0000)
  25 Tl    10.583449    2.036786   12.880450    ( 0.0000,  0.0000,  0.0000)
  26 Tl     8.818636    1.018915   15.753208    ( 0.0000,  0.0000,  0.0000)
  27 Tl    12.347833    3.054993   18.676583    ( 0.0000,  0.0000,  0.0000)
  28 Tl     8.819541    3.055179   10.000000    ( 0.0000,  0.0000,  0.0000)
  29 Tl    12.347357    5.091964   12.880450    ( 0.0000,  0.0000,  0.0000)
  30 Tl    10.583449    4.069643   15.755224    ( 0.0000,  0.0000,  0.0000)
  31 Tl    14.111664    6.110037   18.676583    ( 0.0000,  0.0000,  0.0000)
  32 Tl    10.583449    6.110357   10.000000    ( 0.0000,  0.0000,  0.0000)
  33 Tl    14.111265    8.147143   12.880450    ( 0.0000,  0.0000,  0.0000)
  34 Tl    12.350760    7.130714   15.755224    ( 0.0000,  0.0000,  0.0000)
  35 Tl    15.875173    9.165536   18.652511    ( 0.0000,  0.0000,  0.0000)
  36 O     10.583449    8.147374   19.699159    ( 0.0000,  0.0000,  0.0000)

Unit cell:
           periodic     x           y           z      points  spacing
  1. axis:    yes   10.583449    0.000000    0.000000    52     0.1763
  2. axis:    yes    5.291724    9.165536    0.000000    52     0.1763
  3. axis:    no     0.000000    0.000000   28.641350   160     0.1790

  Lengths:  10.583449  10.583449  28.641350
  Angles:   90.000000  90.000000  60.000000

Effective grid spacing dv^(1/3) = 0.1859

     iter     time        total  log10-change:
                         energy  eigst   dens
iter:   1 23:22:17 -12540.193254
iter:   2 23:22:58 -12539.236678  -0.86  -1.43
iter:   3 23:23:39 -12537.233223  -1.00  -1.45
iter:   4 23:24:20 -12537.213401  -1.75  -1.59
iter:   5 23:25:01 -12538.267109  -1.36  -1.56
iter:   6 23:25:42 -12537.230778  -1.22  -1.68
iter:   7 23:26:23 -12537.028171  -2.19  -2.18
iter:   8 23:27:04 -12536.995712c -2.43  -2.23
iter:   9 23:27:45 -12536.903085c -2.47  -2.34
iter:  10 23:28:26 -12536.875505c -2.55  -2.47
iter:  11 23:29:06 -12536.853160c -2.86  -2.66
iter:  12 23:29:47 -12536.848380c -3.03  -2.79
iter:  13 23:30:28 -12536.848025c -3.49  -2.99
iter:  14 23:31:09 -12536.848641c -3.90  -3.02
iter:  15 23:31:50 -12536.850414c -3.88  -3.13
iter:  16 23:32:31 -12536.851318c -3.87  -3.24
iter:  17 23:33:12 -12536.850879c -4.39  -3.37
iter:  18 23:33:53 -12536.850323c -4.75  -3.41
iter:  19 23:34:34 -12536.849330c -4.67  -3.48
iter:  20 23:35:15 -12536.849405c -5.14  -3.76
iter:  21 23:35:56 -12536.849360c -6.26  -3.79
iter:  22 23:36:37 -12536.849399c -5.88  -3.84
iter:  23 23:37:18 -12536.849328c -6.02  -3.95
iter:  24 23:37:59 -12536.849296c -6.48  -4.02c
iter:  25 23:38:40 -12536.849263c -6.07  -4.06c
iter:  26 23:39:21 -12536.849266c -6.89  -4.32c
iter:  27 23:40:02 -12536.849264c -7.05  -4.38c
iter:  28 23:40:43 -12536.849271c -7.12  -4.45c
iter:  29 23:41:24 -12536.849271c -7.32  -4.59c
iter:  30 23:42:05 -12536.849271c -7.89c -4.69c

Converged after 30 iterations.

Dipole moment: (-26.513415, -15.455371, -0.257112) |e|*Ang

Energy contributions relative to reference atoms: (reference = -19803660.142079)

Kinetic:       +1289.186510
Potential:     -1215.214162
External:        +0.000000
XC:            -12610.639091
Entropy (-ST):   -0.847992
Local:           +0.241469
--------------------------
Free energy:   -12537.273267
Extrapolated:  -12536.849271

Showing only first 2 kpts
 Kpt  Band  Eigenvalues  Occupancy
  0   235     -4.02485    1.57475
  0   236     -3.99332    1.45968
  0   237     -3.87419    0.90158
  0   238     -3.78113    0.48904

  1   235     -3.95311    1.28753
  1   236     -3.92982    1.17754
  1   237     -3.91296    1.09484
  1   238     -3.85292    0.79776


Fermi level: -3.89393

No gap

Forces in eV/Ang:
  0 Tl   -0.00000    0.02847   -0.04129
  1 Tl    0.00132   -0.02107    0.03018
  2 Tl   -0.01525    0.00876   -0.11630
  3 Tl   -0.00000    0.07659    0.00333
  4 Tl   -0.00715    0.00137   -0.09362
  5 Tl   -0.00000    0.01530    0.03379
  6 Tl    0.01406    0.00154    0.01623
  7 Tl   -0.06722   -0.03532    0.01804
  8 Tl   -0.03353   -0.00690   -0.08525
  9 Tl    0.01861   -0.00738    0.03467
 10 Tl    0.00000   -0.00935    0.01316
 11 Tl   -0.27605    0.16513    0.18115
 12 Tl    0.05708   -0.01783   -0.10707
 13 Tl   -0.00132   -0.02107    0.03018
 14 Tl   -0.00000    0.07785   -0.02834
 15 Tl   -0.06613    0.03938    0.08203
 16 Tl    0.00000   -0.03293   -0.10351
 17 Tl    0.02406    0.02965    0.05021
 18 Tl   -0.01406    0.00154    0.01623
 19 Tl    0.00000   -0.32630    0.14816
 20 Tl    0.03353   -0.00690   -0.08525
 21 Tl    0.00000   -0.02255    0.01747
 22 Tl   -0.06017   -0.03077   -0.02311
 23 Tl    0.27605    0.16513    0.18115
 24 Tl   -0.05708   -0.01783   -0.10707
 25 Tl    0.00000   -0.00667   -0.01988
 26 Tl    0.01525    0.00876   -0.11630
 27 Tl    0.06613    0.03938    0.08203
 28 Tl    0.00715    0.00137   -0.09362
 29 Tl   -0.02406    0.02965    0.05021
 30 Tl    0.00000   -0.02175   -0.10446
 31 Tl    0.06722   -0.03532    0.01804
 32 Tl   -0.00000    0.04120   -0.11843
 33 Tl   -0.01861   -0.00738    0.03467
 34 Tl    0.06017   -0.03077   -0.02311
 35 Tl    0.00000   -0.07774    0.05327
 36 O    -0.00000    0.01468   -0.09827

      Step     Time          Energy         fmax
BFGS:    0 23:42:17   -12536.849271        0.3692
System changes: positions 

Initializing position-dependent things.

Density initialized from wave functions
                                                             
                                                             
                                                             
                                                             
                                      O                      
                                  Tl       Tl       Tl       
                                                             
                            Tl       Tl       Tl             
                                                             
                      Tl       Tl      Tl                    
                         Tl      Tl       Tl                 
                                                             
                  Tl       Tl       Tl                       
                             Tl       Tl       Tl            
            Tl       Tl       Tl                             
                       Tl       Tl       Tl                  
                 Tl       Tl      Tl                         
                                                             
                    Tl      Tl       Tl                      
             Tl       Tl       Tl                            
                                                             
       Tl       Tl       Tl                                  
                                                             
                                                             
                                                             
                                                             

Positions:
   0 Tl     0.000000    0.000000   10.000000    ( 0.0000,  0.0000,  0.0000)
   1 Tl     3.527816    2.036786   12.880450    ( 0.0000,  0.0000,  0.0000)
   2 Tl     1.764595    1.019040   15.751546    ( 0.0000,  0.0000,  0.0000)
   3 Tl     5.291724    3.056273   18.682983    ( 0.0000,  0.0000,  0.0000)
   4 Tl     1.763908    3.055179   10.000000    ( 0.0000,  0.0000,  0.0000)
   5 Tl     5.291724    5.091964   12.880450    ( 0.0000,  0.0000,  0.0000)
   6 Tl     3.536630    4.068621   15.756660    ( 0.0000,  0.0000,  0.0000)
   7 Tl     7.054274    6.109533   18.676841    ( 0.0000,  0.0000,  0.0000)
   8 Tl     3.527816    6.110357   10.000000    ( 0.0000,  0.0000,  0.0000)
   9 Tl     7.055633    8.147143   12.880450    ( 0.0000,  0.0000,  0.0000)
  10 Tl     5.291724    7.127572   15.753396    ( 0.0000,  0.0000,  0.0000)
  11 Tl     8.815675    9.168400   18.679171    ( 0.0000,  0.0000,  0.0000)
  12 Tl     3.527816    0.000000   10.000000    ( 0.0000,  0.0000,  0.0000)
  13 Tl     7.055633    2.036786   12.880450    ( 0.0000,  0.0000,  0.0000)
  14 Tl     5.291724    1.029451   15.756023    ( 0.0000,  0.0000,  0.0000)
  15 Tl     8.818120    3.055556   18.677755    ( 0.0000,  0.0000,  0.0000)
  16 Tl     5.291724    3.055179   10.000000    ( 0.0000,  0.0000,  0.0000)
  17 Tl     8.819541    5.091964   12.880450    ( 0.0000,  0.0000,  0.0000)
  18 Tl     7.046819    4.068621   15.756660    ( 0.0000,  0.0000,  0.0000)
  19 Tl    10.583449    6.105696   18.682767    ( 0.0000,  0.0000,  0.0000)
  20 Tl     7.055633    6.110357   10.000000    ( 0.0000,  0.0000,  0.0000)
  21 Tl    10.583449    8.147143   12.880450    ( 0.0000,  0.0000,  0.0000)
  22 Tl     8.815279    7.130275   15.754894    ( 0.0000,  0.0000,  0.0000)
  23 Tl    12.351223    9.168400   18.679171    ( 0.0000,  0.0000,  0.0000)
  24 Tl     7.055633    0.000000   10.000000    ( 0.0000,  0.0000,  0.0000)
  25 Tl    10.583449    2.036786   12.880450    ( 0.0000,  0.0000,  0.0000)
  26 Tl     8.818854    1.019040   15.751546    ( 0.0000,  0.0000,  0.0000)
  27 Tl    12.348778    3.055556   18.677755    ( 0.0000,  0.0000,  0.0000)
  28 Tl     8.819541    3.055179   10.000000    ( 0.0000,  0.0000,  0.0000)
  29 Tl    12.347357    5.091964   12.880450    ( 0.0000,  0.0000,  0.0000)
  30 Tl    10.583449    4.069332   15.753732    ( 0.0000,  0.0000,  0.0000)
  31 Tl    14.112624    6.109533   18.676841    ( 0.0000,  0.0000,  0.0000)
  32 Tl    10.583449    6.110357   10.000000    ( 0.0000,  0.0000,  0.0000)
  33 Tl    14.111265    8.147143   12.880450    ( 0.0000,  0.0000,  0.0000)
  34 Tl    12.351619    7.130275   15.754894    ( 0.0000,  0.0000,  0.0000)
  35 Tl    15.875173    9.164425   18.653272    ( 0.0000,  0.0000,  0.0000)
  36 O     10.583449    8.147584   19.697755    ( 0.0000,  0.0000,  0.0000)

Unit cell:
           periodic     x           y           z      points  spacing
  1. axis:    yes   10.583449    0.000000    0.000000    52     0.1763
  2. axis:    yes    5.291724    9.165536    0.000000    52     0.1763
  3. axis:    no     0.000000    0.000000   28.641350   160     0.1790

  Lengths:  10.583449  10.583449  28.641350
  Angles:   90.000000  90.000000  60.000000

Effective grid spacing dv^(1/3) = 0.1859

     iter     time        total  log10-change:
                         energy  eigst   dens
iter:   1 23:43:29 -12536.856717  -3.65
iter:   2 23:44:10 -12536.856719  -4.68  -3.74
iter:   3 23:44:51 -12536.856641c -5.41  -3.78
iter:   4 23:45:32 -12536.856604c -5.44  -3.94
iter:   5 23:46:13 -12536.856616c -6.14  -4.18c
iter:   6 23:46:54 -12536.856620c -6.24  -4.31c
iter:   7 23:47:36 -12536.856583c -6.41  -4.45c
iter:   8 23:48:17 -12536.856576c -6.99  -4.61c
iter:   9 23:48:58 -12536.856587c -7.28  -4.73c
iter:  10 23:49:39 -12536.856597c -7.85c -4.79c

Converged after 10 iterations.

Dipole moment: (-26.829602, -15.696540, -0.256863) |e|*Ang

Energy contributions relative to reference atoms: (reference = -19803660.142079)

Kinetic:       +1287.430157
Potential:     -1213.574591
External:        +0.000000
XC:            -12610.532598
Entropy (-ST):   -0.847920
Local:           +0.244396
--------------------------
Free energy:   -12537.280557
Extrapolated:  -12536.856597

Showing only first 2 kpts
 Kpt  Band  Eigenvalues  Occupancy
  0   235     -4.02491    1.57488
  0   236     -3.99309    1.45873
  0   237     -3.87417    0.90142
  0   238     -3.78130    0.48958

  1   235     -3.95344    1.28896
  1   236     -3.93040    1.18022
  1   237     -3.91271    1.09350
  1   238     -3.85340    0.79998


Fermi level: -3.89396

No gap

Forces in eV/Ang:
  0 Tl   -0.00000    0.02745   -0.03649
  1 Tl    0.00107   -0.01890    0.02756
  2 Tl   -0.01559    0.00939   -0.11060
  3 Tl   -0.00000    0.07589   -0.00076
  4 Tl   -0.00642    0.00173   -0.08885
  5 Tl   -0.00000    0.01535    0.03796
  6 Tl    0.01343    0.00221    0.01569
  7 Tl   -0.06585   -0.03412    0.01375
  8 Tl   -0.03565   -0.00559   -0.08178
  9 Tl    0.01666   -0.00830    0.03216
 10 Tl    0.00000   -0.00993    0.01287
 11 Tl   -0.25101    0.15124    0.19150
 12 Tl    0.05917   -0.01910   -0.10454
 13 Tl   -0.00107   -0.01890    0.02756
 14 Tl   -0.00000    0.07396   -0.01920
 15 Tl   -0.06176    0.03510    0.07032
 16 Tl    0.00000   -0.03534   -0.10008
 17 Tl    0.02227    0.02824    0.04796
 18 Tl   -0.01343    0.00221    0.01569
 19 Tl    0.00000   -0.29781    0.15999
 20 Tl    0.03565   -0.00559   -0.08178
 21 Tl    0.00000   -0.02244    0.01387
 22 Tl   -0.05735   -0.02887   -0.01514
 23 Tl    0.25101    0.15124    0.19150
 24 Tl   -0.05917   -0.01910   -0.10454
 25 Tl    0.00000   -0.00663   -0.02324
 26 Tl    0.01559    0.00939   -0.11060
 27 Tl    0.06176    0.03510    0.07032
 28 Tl    0.00642    0.00173   -0.08885
 29 Tl   -0.02227    0.02824    0.04796
 30 Tl    0.00000   -0.02226   -0.09941
 31 Tl    0.06585   -0.03412    0.01375
 32 Tl   -0.00000    0.04372   -0.11601
 33 Tl   -0.01666   -0.00830    0.03216
 34 Tl    0.05735   -0.02887   -0.01514
 35 Tl    0.00000   -0.07452    0.04367
 36 O    -0.00000    0.01135   -0.11978

BFGS:    1 23:49:52   -12536.856597        0.3501
System changes: positions 

Initializing position-dependent things.

Density initialized from wave functions
                                                             
                                                             
                                                             
                                                             
                                      O                      
                                  Tl       Tl       Tl       
                                                             
                            Tl       Tl       Tl             
                                                             
                      Tl       Tl      Tl                    
                         Tl      Tl       Tl                 
                                                             
                  Tl       Tl       Tl                       
                             Tl       Tl       Tl            
            Tl       Tl       Tl                             
                       Tl       Tl       Tl                  
                 Tl       Tl      Tl                         
                                                             
                    Tl      Tl       Tl                      
             Tl       Tl       Tl                            
                                                             
       Tl       Tl       Tl                                  
                                                             
                                                             
                                                             
                                                             

Positions:
   0 Tl     0.000000    0.000000   10.000000    ( 0.0000,  0.0000,  0.0000)
   1 Tl     3.527816    2.036786   12.880450    ( 0.0000,  0.0000,  0.0000)
   2 Tl     1.759973    1.021815   15.718535    ( 0.0000,  0.0000,  0.0000)
   3 Tl     5.291724    3.078838   18.682866    ( 0.0000,  0.0000,  0.0000)
   4 Tl     1.763908    3.055179   10.000000    ( 0.0000,  0.0000,  0.0000)
   5 Tl     5.291724    5.091964   12.880450    ( 0.0000,  0.0000,  0.0000)
   6 Tl     3.540636    4.069259   15.761335    ( 0.0000,  0.0000,  0.0000)
   7 Tl     7.034674    6.099363   18.681040    ( 0.0000,  0.0000,  0.0000)
   8 Tl     3.527816    6.110357   10.000000    ( 0.0000,  0.0000,  0.0000)
   9 Tl     7.055633    8.147143   12.880450    ( 0.0000,  0.0000,  0.0000)
  10 Tl     5.291724    7.124636   15.757227    ( 0.0000,  0.0000,  0.0000)
  11 Tl     8.740437    9.213700   18.735791    ( 0.0000,  0.0000,  0.0000)
  12 Tl     3.527816    0.000000   10.000000    ( 0.0000,  0.0000,  0.0000)
  13 Tl     7.055633    2.036786   12.880450    ( 0.0000,  0.0000,  0.0000)
  14 Tl     5.291724    1.051526   15.750078    ( 0.0000,  0.0000,  0.0000)
  15 Tl     8.799654    3.066097   18.698958    ( 0.0000,  0.0000,  0.0000)
  16 Tl     5.291724    3.055179   10.000000    ( 0.0000,  0.0000,  0.0000)
  17 Tl     8.819541    5.091964   12.880450    ( 0.0000,  0.0000,  0.0000)
  18 Tl     7.042813    4.069259   15.761335    ( 0.0000,  0.0000,  0.0000)
  19 Tl    10.583449    6.016463   18.729987    ( 0.0000,  0.0000,  0.0000)
  20 Tl     7.055633    6.110357   10.000000    ( 0.0000,  0.0000,  0.0000)
  21 Tl    10.583449    8.147143   12.880450    ( 0.0000,  0.0000,  0.0000)
  22 Tl     8.798165    7.121648   15.750184    ( 0.0000,  0.0000,  0.0000)
  23 Tl    12.426461    9.213700   18.735791    ( 0.0000,  0.0000,  0.0000)
  24 Tl     7.055633    0.000000   10.000000    ( 0.0000,  0.0000,  0.0000)
  25 Tl    10.583449    2.036786   12.880450    ( 0.0000,  0.0000,  0.0000)
  26 Tl     8.823476    1.021815   15.718535    ( 0.0000,  0.0000,  0.0000)
  27 Tl    12.367243    3.066097   18.698958    ( 0.0000,  0.0000,  0.0000)
  28 Tl     8.819541    3.055179   10.000000    ( 0.0000,  0.0000,  0.0000)
  29 Tl    12.347357    5.091964   12.880450    ( 0.0000,  0.0000,  0.0000)
  30 Tl    10.583449    4.062732   15.724063    ( 0.0000,  0.0000,  0.0000)
  31 Tl    14.132224    6.099363   18.681040    ( 0.0000,  0.0000,  0.0000)
  32 Tl    10.583449    6.110357   10.000000    ( 0.0000,  0.0000,  0.0000)
  33 Tl    14.111265    8.147143   12.880450    ( 0.0000,  0.0000,  0.0000)
  34 Tl    12.368733    7.121648   15.750184    ( 0.0000,  0.0000,  0.0000)
  35 Tl    15.875173    9.142199   18.666499    ( 0.0000,  0.0000,  0.0000)
  36 O     10.583449    8.151045   19.662737    ( 0.0000,  0.0000,  0.0000)

Unit cell:
           periodic     x           y           z      points  spacing
  1. axis:    yes   10.583449    0.000000    0.000000    52     0.1763
  2. axis:    yes    5.291724    9.165536    0.000000    52     0.1763
  3. axis:    no     0.000000    0.000000   28.641350   160     0.1790

  Lengths:  10.583449  10.583449  28.641350
  Angles:   90.000000  90.000000  60.000000

Effective grid spacing dv^(1/3) = 0.1859

     iter     time        total  log10-change:
                         energy  eigst   dens
iter:   1 23:51:02 -12537.081029  -1.13
iter:   2 23:51:44 -12537.038444  -2.14  -2.27
iter:   3 23:52:25 -12536.953941c -2.87  -2.32
iter:   4 23:53:06 -12536.926822c -2.90  -2.66
iter:   5 23:53:47 -12536.926879c -3.53  -2.90
iter:   6 23:54:28 -12536.927472c -3.68  -3.04
iter:   7 23:55:09 -12536.928150c -3.94  -3.18
iter:   8 23:55:50 -12536.928836c -4.46  -3.34
iter:   9 23:56:31 -12536.929309c -4.77  -3.43
iter:  10 23:57:12 -12536.929476c -5.25  -3.51
iter:  11 23:57:53 -12536.929689c -5.13  -3.58
iter:  12 23:58:34 -12536.929620c -5.76  -3.82
iter:  13 23:59:15 -12536.929537c -6.01  -3.93
iter:  14 23:59:57 -12536.929659c -5.85  -4.05c
iter:  15 00:00:38 -12536.929638c -6.36  -4.31c
iter:  16 00:01:19 -12536.929601c -6.62  -4.37c
iter:  17 00:02:00 -12536.929582c -6.76  -4.53c
iter:  18 00:02:41 -12536.929622c -7.16  -4.65c
iter:  19 00:03:22 -12536.929617c -7.46c -4.70c

Converged after 19 iterations.

Dipole moment: (-32.880924, -20.045704, -0.244238) |e|*Ang

Energy contributions relative to reference atoms: (reference = -19803660.142079)

Kinetic:       +1283.748225
Potential:     -1210.654899
External:        +0.000000
XC:            -12609.848488
Entropy (-ST):   -0.845731
Local:           +0.248411
--------------------------
Free energy:   -12537.352483
Extrapolated:  -12536.929617

Showing only first 2 kpts
 Kpt  Band  Eigenvalues  Occupancy
  0   235     -4.02121    1.57731
  0   236     -3.98505    1.44433
  0   237     -3.86879    0.89668
  0   238     -3.77888    0.49705

  1   235     -3.95920    1.33494
  1   236     -3.93533    1.22512
  1   237     -3.89887    1.04669
  1   238     -3.85718    0.83969


Fermi level: -3.88953

No gap

Forces in eV/Ang:
  0 Tl   -0.00000    0.01752   -0.03439
  1 Tl    0.00335   -0.01903    0.01045
  2 Tl   -0.00807    0.00910   -0.05721
  3 Tl   -0.00000    0.04838    0.01014
  4 Tl    0.00062    0.00579   -0.08707
  5 Tl   -0.00000    0.01715    0.03654
  6 Tl   -0.00786   -0.00054    0.00533
  7 Tl   -0.02709   -0.00428    0.01170
  8 Tl   -0.04065   -0.00244   -0.08620
  9 Tl    0.01862   -0.01152    0.01535
 10 Tl   -0.00000    0.00184    0.01167
 11 Tl    0.18187   -0.08698    0.22087
 12 Tl    0.06122   -0.02054   -0.10833
 13 Tl   -0.00335   -0.01903    0.01045
 14 Tl    0.00000   -0.01485    0.04920
 15 Tl   -0.03236   -0.00952    0.02888
 16 Tl    0.00000   -0.04084   -0.10617
 17 Tl    0.02199    0.03121    0.03467
 18 Tl    0.00786   -0.00054    0.00533
 19 Tl   -0.00000    0.26931    0.23444
 20 Tl    0.04065   -0.00244   -0.08620
 21 Tl    0.00000   -0.02311    0.01683
 22 Tl    0.00967    0.00609    0.03531
 23 Tl   -0.18187   -0.08698    0.22087
 24 Tl   -0.06122   -0.02054   -0.10833
 25 Tl    0.00000   -0.00584   -0.05147
 26 Tl    0.00807    0.00910   -0.05721
 27 Tl    0.03236   -0.00952    0.02888
 28 Tl   -0.00062    0.00579   -0.08707
 29 Tl   -0.02199    0.03121    0.03467
 30 Tl    0.00000   -0.00675   -0.04334
 31 Tl    0.02709   -0.00428    0.01170
 32 Tl   -0.00000    0.04741   -0.11968
 33 Tl   -0.01862   -0.01152    0.01535
 34 Tl   -0.00967    0.00609    0.03531
 35 Tl    0.00000   -0.06713    0.05119
 36 O    -0.00000    0.01343   -0.44061

BFGS:    2 00:03:35   -12536.929617        0.4408
System changes: positions 

Initializing position-dependent things.

Density initialized from wave functions
                                                             
                                                             
                                                             
                                                             
                                      O                      
                                  Tl       Tl       Tl       
                                                             
                            Tl       Tl       Tl             
                                                             
                      Tl       Tl      Tl                    
                         Tl      Tl       Tl                 
                                                             
                  Tl       Tl       Tl                       
                             Tl       Tl       Tl            
            Tl       Tl       Tl                             
                       Tl       Tl       Tl                  
                 Tl       Tl      Tl                         
                                                             
                    Tl      Tl       Tl                      
             Tl       Tl       Tl                            
                                                             
       Tl       Tl       Tl                                  
                                                             
                                                             
                                                             
                                                             

Positions:
   0 Tl     0.000000    0.000000   10.000000    ( 0.0000,  0.0000,  0.0000)
   1 Tl     3.527816    2.036786   12.880450    ( 0.0000,  0.0000,  0.0000)
   2 Tl     1.759541    1.022129   15.715326    ( 0.0000,  0.0000,  0.0000)
   3 Tl     5.291724    3.081115   18.683072    ( 0.0000,  0.0000,  0.0000)
   4 Tl     1.763908    3.055179   10.000000    ( 0.0000,  0.0000,  0.0000)
   5 Tl     5.291724    5.091964   12.880450    ( 0.0000,  0.0000,  0.0000)
   6 Tl     3.540808    4.069284   15.761745    ( 0.0000,  0.0000,  0.0000)
   7 Tl     7.032901    6.098578   18.681570    ( 0.0000,  0.0000,  0.0000)
   8 Tl     3.527816    6.110357   10.000000    ( 0.0000,  0.0000,  0.0000)
   9 Tl     7.055633    8.147143   12.880450    ( 0.0000,  0.0000,  0.0000)
  10 Tl     5.291724    7.124469   15.757667    ( 0.0000,  0.0000,  0.0000)
  11 Tl     8.737483    9.215788   18.742762    ( 0.0000,  0.0000,  0.0000)
  12 Tl     3.527816    0.000000   10.000000    ( 0.0000,  0.0000,  0.0000)
  13 Tl     7.055633    2.036786   12.880450    ( 0.0000,  0.0000,  0.0000)
  14 Tl     5.291724    1.052899   15.750237    ( 0.0000,  0.0000,  0.0000)
  15 Tl     8.797835    3.066756   18.701034    ( 0.0000,  0.0000,  0.0000)
  16 Tl     5.291724    3.055179   10.000000    ( 0.0000,  0.0000,  0.0000)
  17 Tl     8.819541    5.091964   12.880450    ( 0.0000,  0.0000,  0.0000)
  18 Tl     7.042641    4.069284   15.761745    ( 0.0000,  0.0000,  0.0000)
  19 Tl    10.583449    6.013761   18.736482    ( 0.0000,  0.0000,  0.0000)
  20 Tl     7.055633    6.110357   10.000000    ( 0.0000,  0.0000,  0.0000)
  21 Tl    10.583449    8.147143   12.880450    ( 0.0000,  0.0000,  0.0000)
  22 Tl     8.797077    7.121110   15.750245    ( 0.0000,  0.0000,  0.0000)
  23 Tl    12.429415    9.215788   18.742762    ( 0.0000,  0.0000,  0.0000)
  24 Tl     7.055633    0.000000   10.000000    ( 0.0000,  0.0000,  0.0000)
  25 Tl    10.583449    2.036786   12.880450    ( 0.0000,  0.0000,  0.0000)
  26 Tl     8.823908    1.022129   15.715326    ( 0.0000,  0.0000,  0.0000)
  27 Tl    12.369063    3.066756   18.701034    ( 0.0000,  0.0000,  0.0000)
  28 Tl     8.819541    3.055179   10.000000    ( 0.0000,  0.0000,  0.0000)
  29 Tl    12.347357    5.091964   12.880450    ( 0.0000,  0.0000,  0.0000)
  30 Tl    10.583449    4.062185   15.721298    ( 0.0000,  0.0000,  0.0000)
  31 Tl    14.133997    6.098578   18.681570    ( 0.0000,  0.0000,  0.0000)
  32 Tl    10.583449    6.110357   10.000000    ( 0.0000,  0.0000,  0.0000)
  33 Tl    14.111265    8.147143   12.880450    ( 0.0000,  0.0000,  0.0000)
  34 Tl    12.369821    7.121110   15.750245    ( 0.0000,  0.0000,  0.0000)
  35 Tl    15.875173    9.139630   18.668315    ( 0.0000,  0.0000,  0.0000)
  36 O     10.583449    8.151534   19.654236    ( 0.0000,  0.0000,  0.0000)

Unit cell:
           periodic     x           y           z      points  spacing
  1. axis:    yes   10.583449    0.000000    0.000000    52     0.1763
  2. axis:    yes    5.291724    9.165536    0.000000    52     0.1763
  3. axis:    no     0.000000    0.000000   28.641350   160     0.1790

  Lengths:  10.583449  10.583449  28.641350
  Angles:   90.000000  90.000000  60.000000

Effective grid spacing dv^(1/3) = 0.1859

     iter     time        total  log10-change:
                         energy  eigst   dens
iter:   1 00:04:46 -12536.937429  -3.19
iter:   2 00:05:27 -12536.937130  -4.22  -3.45
iter:   3 00:06:08 -12536.936835c -4.91  -3.55
iter:   4 00:06:49 -12536.936593c -4.82  -3.63
iter:   5 00:07:30 -12536.936795c -5.66  -3.94
iter:   6 00:08:11 -12536.936796c -5.55  -3.96
iter:   7 00:08:52 -12536.936659c -5.66  -4.15c
iter:   8 00:09:33 -12536.936621c -6.22  -4.26c
iter:   9 00:10:14 -12536.936630c -6.53  -4.46c
iter:  10 00:10:55 -12536.936643c -6.92  -4.57c
iter:  11 00:11:37 -12536.936640c -7.46c -4.58c

Converged after 11 iterations.

Dipole moment: (-33.274455, -20.107367, -0.236901) |e|*Ang

Energy contributions relative to reference atoms: (reference = -19803660.142079)

Kinetic:       +1283.748461
Potential:     -1210.656715
External:        +0.000000
XC:            -12609.851285
Entropy (-ST):   -0.845586
Local:           +0.245692
--------------------------
Free energy:   -12537.359433
Extrapolated:  -12536.936640

Showing only first 2 kpts
 Kpt  Band  Eigenvalues  Occupancy
  0   235     -4.01790    1.57847
  0   236     -3.98119    1.44354
  0   237     -3.86506    0.89636
  0   238     -3.77522    0.49705

  1   235     -3.95633    1.33845
  1   236     -3.93197    1.22652
  1   237     -3.89417    1.04151
  1   238     -3.85389    0.84147


Fermi level: -3.88587

No gap

Forces in eV/Ang:
  0 Tl   -0.00000    0.01738   -0.03044
  1 Tl    0.00135   -0.01523    0.00465
  2 Tl   -0.00781    0.00978   -0.04286
  3 Tl   -0.00000    0.04234    0.01042
  4 Tl    0.00038    0.00584   -0.08319
  5 Tl   -0.00000    0.01735    0.04179
  6 Tl   -0.00866    0.00042    0.00410
  7 Tl   -0.02054   -0.00021    0.01037
  8 Tl   -0.04174   -0.00181   -0.08484
  9 Tl    0.01403   -0.01180    0.00941
 10 Tl   -0.00000    0.00137    0.01088
 11 Tl    0.17337   -0.08382    0.21350
 12 Tl    0.06050   -0.02028   -0.10809
 13 Tl   -0.00135   -0.01523    0.00465
 14 Tl    0.00000   -0.02470    0.06588
 15 Tl   -0.02982   -0.01119    0.02104
 16 Tl    0.00000   -0.04197   -0.10467
 17 Tl    0.01990    0.02746    0.02938
 18 Tl    0.00866    0.00042    0.00410
 19 Tl   -0.00000    0.25656    0.23346
 20 Tl    0.04174   -0.00181   -0.08484
 21 Tl    0.00000   -0.02310    0.01234
 22 Tl    0.01579    0.01003    0.05205
 23 Tl   -0.17337   -0.08382    0.21350
 24 Tl   -0.06050   -0.02028   -0.10809
 25 Tl    0.00000   -0.00571   -0.06184
 26 Tl    0.00781    0.00978   -0.04286
 27 Tl    0.02982   -0.01119    0.02104
 28 Tl   -0.00038    0.00584   -0.08319
 29 Tl   -0.01990    0.02746    0.02938
 30 Tl    0.00000   -0.00819   -0.03034
 31 Tl    0.02054   -0.00021    0.01037
 32 Tl   -0.00000    0.04684   -0.11952
 33 Tl   -0.01403   -0.01180    0.00941
 34 Tl   -0.01579    0.01003    0.05205
 35 Tl    0.00000   -0.06261    0.04388
 36 O    -0.00000    0.01726   -0.40424

BFGS:    3 00:11:49   -12536.936640        0.4046
System changes: positions 

Initializing position-dependent things.

Density initialized from wave functions
                                                             
                                                             
                                                             
                                                             
                                      O                      
                                  Tl       Tl       Tl       
                                                             
                            Tl       Tl       Tl             
                               Tl       Tl                   
                      Tl                                     
                        Tl       Tl       Tl                 
                                                             
                  Tl       Tl       Tl                       
                     Tl      Tl       Tl       Tl            
            Tl                Tl                             
                       Tl       Tl       Tl                  
                 Tl       Tl      Tl                         
                                                             
                    Tl      Tl       Tl                      
             Tl       Tl       Tl                            
                                                             
       Tl       Tl       Tl                                  
                                                             
                                                             
                                                             
                                                             

Positions:
   0 Tl     0.000000    0.000000   10.000000    ( 0.0000,  0.0000,  0.0000)
   1 Tl     3.527816    2.036786   12.880450    ( 0.0000,  0.0000,  0.0000)
   2 Tl     1.754786    1.025902   15.681939    ( 0.0000,  0.0000,  0.0000)
   3 Tl     5.291724    3.105804   18.685984    ( 0.0000,  0.0000,  0.0000)
   4 Tl     1.763908    3.055179   10.000000    ( 0.0000,  0.0000,  0.0000)
   5 Tl     5.291724    5.091964   12.880450    ( 0.0000,  0.0000,  0.0000)
   6 Tl     3.542011    4.069650   15.765998    ( 0.0000,  0.0000,  0.0000)
   7 Tl     7.014559    6.091061   18.687575    ( 0.0000,  0.0000,  0.0000)
   8 Tl     3.527816    6.110357   10.000000    ( 0.0000,  0.0000,  0.0000)
   9 Tl     7.055633    8.147143   12.880450    ( 0.0000,  0.0000,  0.0000)
  10 Tl     5.291724    7.122829   15.762640    ( 0.0000,  0.0000,  0.0000)
  11 Tl     8.714753    9.233437   18.823672    ( 0.0000,  0.0000,  0.0000)
  12 Tl     3.527816    0.000000   10.000000    ( 0.0000,  0.0000,  0.0000)
  13 Tl     7.055633    2.036786   12.880450    ( 0.0000,  0.0000,  0.0000)
  14 Tl     5.291724    1.064419   15.757072    ( 0.0000,  0.0000,  0.0000)
  15 Tl     8.777844    3.072836   18.722875    ( 0.0000,  0.0000,  0.0000)
  16 Tl     5.291724    3.055179   10.000000    ( 0.0000,  0.0000,  0.0000)
  17 Tl     8.819541    5.091964   12.880450    ( 0.0000,  0.0000,  0.0000)
  18 Tl     7.041438    4.069650   15.765998    ( 0.0000,  0.0000,  0.0000)
  19 Tl    10.583449    5.997466   18.814391    ( 0.0000,  0.0000,  0.0000)
  20 Tl     7.055633    6.110357   10.000000    ( 0.0000,  0.0000,  0.0000)
  21 Tl    10.583449    8.147143   12.880450    ( 0.0000,  0.0000,  0.0000)
  22 Tl     8.787543    7.116601   15.755391    ( 0.0000,  0.0000,  0.0000)
  23 Tl    12.452145    9.233437   18.823672    ( 0.0000,  0.0000,  0.0000)
  24 Tl     7.055633    0.000000   10.000000    ( 0.0000,  0.0000,  0.0000)
  25 Tl    10.583449    2.036786   12.880450    ( 0.0000,  0.0000,  0.0000)
  26 Tl     8.828663    1.025902   15.681939    ( 0.0000,  0.0000,  0.0000)
  27 Tl    12.389054    3.072836   18.722875    ( 0.0000,  0.0000,  0.0000)
  28 Tl     8.819541    3.055179   10.000000    ( 0.0000,  0.0000,  0.0000)
  29 Tl    12.347357    5.091964   12.880450    ( 0.0000,  0.0000,  0.0000)
  30 Tl    10.583449    4.056045   15.692964    ( 0.0000,  0.0000,  0.0000)
  31 Tl    14.152339    6.091061   18.687575    ( 0.0000,  0.0000,  0.0000)
  32 Tl    10.583449    6.110357   10.000000    ( 0.0000,  0.0000,  0.0000)
  33 Tl    14.111265    8.147143   12.880450    ( 0.0000,  0.0000,  0.0000)
  34 Tl    12.379355    7.116601   15.755391    ( 0.0000,  0.0000,  0.0000)
  35 Tl    15.875173    9.110554   18.688739    ( 0.0000,  0.0000,  0.0000)
  36 O     10.583449    8.158093   19.551482    ( 0.0000,  0.0000,  0.0000)

Unit cell:
           periodic     x           y           z      points  spacing
  1. axis:    yes   10.583449    0.000000    0.000000    52     0.1763
  2. axis:    yes    5.291724    9.165536    0.000000    52     0.1763
  3. axis:    no     0.000000    0.000000   28.641350   160     0.1790

  Lengths:  10.583449  10.583449  28.641350
  Angles:   90.000000  90.000000  60.000000

Effective grid spacing dv^(1/3) = 0.1859

     iter     time        total  log10-change:
                         energy  eigst   dens
iter:   1 00:13:01 -12537.072919  -1.18
iter:   2 00:13:42 -12537.042854  -2.21  -2.47
iter:   3 00:14:23 -12537.028803c -2.76  -2.58
iter:   4 00:15:04 -12536.996298c -2.82  -2.53
iter:   5 00:15:45 -12536.997330c -3.72  -2.88
iter:   6 00:16:26 -12536.996002c -3.38  -2.95
iter:   7 00:17:07 -12536.994218c -3.98  -3.11
iter:   8 00:17:48 -12536.992887c -4.29  -3.25
iter:   9 00:18:29 -12536.993355c -4.70  -3.43
iter:  10 00:19:10 -12536.993488c -5.01  -3.48
iter:  11 00:19:51 -12536.993418c -5.45  -3.50
iter:  12 00:20:32 -12536.993557c -5.19  -3.69
iter:  13 00:21:13 -12536.993603c -5.72  -3.92
iter:  14 00:21:55 -12536.993577c -6.23  -3.95
iter:  15 00:22:36 -12536.993602c -5.97  -4.09c
iter:  16 00:23:16 -12536.993598c -6.59  -4.29c
iter:  17 00:23:58 -12536.993601c -6.93  -4.36c
iter:  18 00:24:39 -12536.993576c -7.00  -4.50c
iter:  19 00:25:20 -12536.993563c -7.45c -4.71c

Converged after 19 iterations.

Dipole moment: (-37.069358, -19.994665, -0.146301) |e|*Ang

Energy contributions relative to reference atoms: (reference = -19803660.142079)

Kinetic:       +1285.509304
Potential:     -1212.278674
External:        +0.000000
XC:            -12610.040761
Entropy (-ST):   -0.842951
Local:           +0.238043
--------------------------
Free energy:   -12537.415038
Extrapolated:  -12536.993563

Showing only first 2 kpts
 Kpt  Band  Eigenvalues  Occupancy
  0   235     -3.97741    1.59221
  0   236     -3.93533    1.43875
  0   237     -3.82029    0.89588
  0   238     -3.72956    0.49337

  1   235     -3.92163    1.38179
  1   236     -3.88771    1.22845
  1   237     -3.84070    0.99754
  1   238     -3.80642    0.82785


Fermi level: -3.84119

No gap

Forces in eV/Ang:
  0 Tl   -0.00000    0.01420   -0.02451
  1 Tl    0.00829   -0.01486   -0.01038
  2 Tl    0.03076   -0.00003    0.08374
  3 Tl   -0.00000    0.00756    0.02567
  4 Tl    0.00187    0.00737   -0.07805
  5 Tl   -0.00000    0.01909    0.04628
  6 Tl   -0.01966    0.00145   -0.00113
  7 Tl    0.01425    0.01572   -0.00044
  8 Tl   -0.04963    0.00244   -0.08267
  9 Tl    0.01592   -0.01832   -0.00588
 10 Tl   -0.00000    0.00790    0.01042
 11 Tl    0.03821   -0.01581    0.09441
 12 Tl    0.05997   -0.01981   -0.10893
 13 Tl   -0.00829   -0.01486   -0.01038
 14 Tl    0.00000   -0.07076    0.07669
 15 Tl   -0.00355    0.01908    0.01494
 16 Tl    0.00000   -0.05093   -0.10294
 17 Tl    0.01769    0.03206    0.01646
 18 Tl    0.01966    0.00145   -0.00113
 19 Tl   -0.00000    0.05772    0.05796
 20 Tl    0.04963    0.00244   -0.08267
 21 Tl    0.00000   -0.02318    0.02058
 22 Tl    0.04556    0.02526    0.08649
 23 Tl   -0.03821   -0.01581    0.09441
 24 Tl   -0.05997   -0.01981   -0.10893
 25 Tl    0.00000   -0.00404   -0.10928
 26 Tl   -0.03076   -0.00003    0.08374
 27 Tl    0.00355    0.01908    0.01494
 28 Tl   -0.00187    0.00737   -0.07805
 29 Tl   -0.01769    0.03206    0.01646
 30 Tl   -0.00000    0.02344    0.09098
 31 Tl   -0.01425    0.01572   -0.00044
 32 Tl   -0.00000    0.04727   -0.11995
 33 Tl   -0.01592   -0.01832   -0.00588
 34 Tl   -0.04556    0.02526    0.08649
 35 Tl   -0.00000    0.00299    0.01146
 36 O    -0.00000    0.03002   -0.13444

BFGS:    4 00:25:33   -12536.993563        0.1377
System changes: positions 

Initializing position-dependent things.

Density initialized from wave functions
                                                             
                                                             
                                                             
                                                             
                                      O                      
                                  Tl       Tl       Tl       
                                                             
                            Tl       Tl       Tl             
                      Tl       Tl       Tl                   
                                                             
                        Tl       Tl       Tl                 
                                                             
                  Tl       Tl       Tl                       
                     Tl      Tl       Tl       Tl            
            Tl                Tl                             
                       Tl       Tl       Tl                  
                 Tl       Tl      Tl                         
                                                             
                    Tl      Tl       Tl                      
             Tl       Tl       Tl                            
                                                             
       Tl       Tl       Tl                                  
                                                             
                                                             
                                                             
                                                             

Positions:
   0 Tl     0.000000    0.000000   10.000000    ( 0.0000,  0.0000,  0.0000)
   1 Tl     3.527816    2.036786   12.880450    ( 0.0000,  0.0000,  0.0000)
   2 Tl     1.754037    1.026983   15.674055    ( 0.0000,  0.0000,  0.0000)
   3 Tl     5.291724    3.112962   18.687424    ( 0.0000,  0.0000,  0.0000)
   4 Tl     1.763908    3.055179   10.000000    ( 0.0000,  0.0000,  0.0000)
   5 Tl     5.291724    5.091964   12.880450    ( 0.0000,  0.0000,  0.0000)
   6 Tl     3.541879    4.069759   15.767159    ( 0.0000,  0.0000,  0.0000)
   7 Tl     7.009703    6.089325   18.689350    ( 0.0000,  0.0000,  0.0000)
   8 Tl     3.527816    6.110357   10.000000    ( 0.0000,  0.0000,  0.0000)
   9 Tl     7.055633    8.147143   12.880450    ( 0.0000,  0.0000,  0.0000)
  10 Tl     5.291724    7.122577   15.764275    ( 0.0000,  0.0000,  0.0000)
  11 Tl     8.710990    9.237100   18.848926    ( 0.0000,  0.0000,  0.0000)
  12 Tl     3.527816    0.000000   10.000000    ( 0.0000,  0.0000,  0.0000)
  13 Tl     7.055633    2.036786   12.880450    ( 0.0000,  0.0000,  0.0000)
  14 Tl     5.291724    1.065992   15.760732    ( 0.0000,  0.0000,  0.0000)
  15 Tl     8.772093    3.074767   18.729413    ( 0.0000,  0.0000,  0.0000)
  16 Tl     5.291724    3.055179   10.000000    ( 0.0000,  0.0000,  0.0000)
  17 Tl     8.819541    5.091964   12.880450    ( 0.0000,  0.0000,  0.0000)
  18 Tl     7.041570    4.069759   15.767159    ( 0.0000,  0.0000,  0.0000)
  19 Tl    10.583449    5.996641   18.838304    ( 0.0000,  0.0000,  0.0000)
  20 Tl     7.055633    6.110357   10.000000    ( 0.0000,  0.0000,  0.0000)
  21 Tl    10.583449    8.147143   12.880450    ( 0.0000,  0.0000,  0.0000)
  22 Tl     8.785969    7.115935   15.758664    ( 0.0000,  0.0000,  0.0000)
  23 Tl    12.455908    9.237100   18.848926    ( 0.0000,  0.0000,  0.0000)
  24 Tl     7.055633    0.000000   10.000000    ( 0.0000,  0.0000,  0.0000)
  25 Tl    10.583449    2.036786   12.880450    ( 0.0000,  0.0000,  0.0000)
  26 Tl     8.829412    1.026983   15.674055    ( 0.0000,  0.0000,  0.0000)
  27 Tl    12.394805    3.074767   18.729413    ( 0.0000,  0.0000,  0.0000)
  28 Tl     8.819541    3.055179   10.000000    ( 0.0000,  0.0000,  0.0000)
  29 Tl    12.347357    5.091964   12.880450    ( 0.0000,  0.0000,  0.0000)
  30 Tl    10.583449    4.054807   15.686705    ( 0.0000,  0.0000,  0.0000)
  31 Tl    14.157195    6.089325   18.689350    ( 0.0000,  0.0000,  0.0000)
  32 Tl    10.583449    6.110357   10.000000    ( 0.0000,  0.0000,  0.0000)
  33 Tl    14.111265    8.147143   12.880450    ( 0.0000,  0.0000,  0.0000)
  34 Tl    12.380929    7.115935   15.758664    ( 0.0000,  0.0000,  0.0000)
  35 Tl    15.875173    9.102185   18.695044    ( 0.0000,  0.0000,  0.0000)
  36 O     10.583449    8.160606   19.517624    ( 0.0000,  0.0000,  0.0000)

Unit cell:
           periodic     x           y           z      points  spacing
  1. axis:    yes   10.583449    0.000000    0.000000    52     0.1763
  2. axis:    yes    5.291724    9.165536    0.000000    52     0.1763
  3. axis:    no     0.000000    0.000000   28.641350   160     0.1790

  Lengths:  10.583449  10.583449  28.641350
  Angles:   90.000000  90.000000  60.000000

Effective grid spacing dv^(1/3) = 0.1859

     iter     time        total  log10-change:
                         energy  eigst   dens
iter:   1 00:26:44 -12537.005020  -2.16
iter:   2 00:27:25 -12537.001952  -3.20  -3.04
iter:   3 00:28:06 -12536.999429c -3.57  -3.17
iter:   4 00:28:47 -12536.997600c -4.01  -3.09
iter:   5 00:29:28 -12536.998238c -4.75  -3.36
iter:   6 00:30:09 -12536.997971c -4.27  -3.44
iter:   7 00:30:50 -12536.997397c -5.16  -3.61
iter:   8 00:31:31 -12536.997268c -5.37  -3.80
iter:   9 00:32:13 -12536.997322c -5.61  -3.92
iter:  10 00:32:54 -12536.997233c -5.74  -4.02c
iter:  11 00:33:35 -12536.997225c -6.48  -4.05c
iter:  12 00:34:16 -12536.997245c -6.20  -4.19c
iter:  13 00:34:57 -12536.997284c -6.64  -4.47c
iter:  14 00:35:38 -12536.997293c -7.34  -4.55c
iter:  15 00:36:19 -12536.997291c -7.04  -4.62c
iter:  16 00:37:00 -12536.997296c -7.52c -4.89c

Converged after 16 iterations.

Dipole moment: (-37.985778, -19.777860, -0.117120) |e|*Ang

Energy contributions relative to reference atoms: (reference = -19803660.142079)

Kinetic:       +1286.272319
Potential:     -1212.954016
External:        +0.000000
XC:            -12610.126802
Entropy (-ST):   -0.842168
Local:           +0.232288
--------------------------
Free energy:   -12537.418380
Extrapolated:  -12536.997296

Showing only first 2 kpts
 Kpt  Band  Eigenvalues  Occupancy
  0   235     -3.96495    1.59637
  0   236     -3.92134    1.43774
  0   237     -3.80689    0.89754
  0   238     -3.71544    0.49195

  1   235     -3.91108    1.39534
  1   236     -3.87335    1.22553
  1   237     -3.82551    0.99027
  1   238     -3.78931    0.81157


Fermi level: -3.82745

No gap

Forces in eV/Ang:
  0 Tl   -0.00000    0.01093   -0.02800
  1 Tl    0.01062   -0.01468   -0.01190
  2 Tl    0.03472   -0.00090    0.10415
  3 Tl    0.00000   -0.01007    0.03003
  4 Tl    0.00446    0.00883   -0.08211
  5 Tl   -0.00000    0.01957    0.05086
  6 Tl   -0.02160    0.00208   -0.00556
  7 Tl    0.02746    0.01998   -0.00242
  8 Tl   -0.04939    0.00243   -0.08635
  9 Tl    0.01638   -0.02032   -0.00758
 10 Tl   -0.00000    0.00928    0.00656
 11 Tl   -0.02560    0.01035    0.02993
 12 Tl    0.05926   -0.01945   -0.11150
 13 Tl   -0.01062   -0.01468   -0.01190
 14 Tl    0.00000   -0.08311    0.08519
 15 Tl    0.01440    0.02344    0.00398
 16 Tl    0.00000   -0.05082   -0.10668
 17 Tl    0.01692    0.03357    0.01592
 18 Tl    0.02160    0.00208   -0.00556
 19 Tl    0.00000   -0.03040    0.01548
 20 Tl    0.04939    0.00243   -0.08635
 21 Tl    0.00000   -0.02329    0.02254
 22 Tl    0.05634    0.03058    0.10487
 23 Tl    0.02560    0.01035    0.02993
 24 Tl   -0.05926   -0.01945   -0.11150
 25 Tl    0.00000   -0.00372   -0.11472
 26 Tl   -0.03472   -0.00090    0.10415
 27 Tl   -0.01440    0.02344    0.00398
 28 Tl   -0.00446    0.00883   -0.08211
 29 Tl   -0.01692    0.03357    0.01592
 30 Tl   -0.00000    0.02623    0.11415
 31 Tl   -0.02746    0.01998   -0.00242
 32 Tl   -0.00000    0.04714   -0.12261
 33 Tl   -0.01638   -0.02032   -0.00758
 34 Tl   -0.05634    0.03058    0.10487
 35 Tl   -0.00000    0.03603   -0.00867
 36 O     0.00000   -0.06994   -0.00396

BFGS:    5 00:37:13   -12536.997296        0.1229
System changes: positions 

Initializing position-dependent things.

Density initialized from wave functions
                                                             
                                                             
                                                             
                                                             
                                      O                      
                                  Tl       Tl       Tl       
                                                             
                            Tl       Tl       Tl             
                      Tl       Tl       Tl                   
                                                             
                        Tl       Tl       Tl                 
                                                             
                  Tl       Tl       Tl                       
                     Tl      Tl       Tl       Tl            
            Tl                Tl                             
                       Tl       Tl       Tl                  
                 Tl       Tl      Tl                         
                                                             
                    Tl      Tl       Tl                      
             Tl       Tl       Tl                            
                                                             
       Tl       Tl       Tl                                  
                                                             
                                                             
                                                             
                                                             

Positions:
   0 Tl     0.000000    0.000000   10.000000    ( 0.0000,  0.0000,  0.0000)
   1 Tl     3.527816    2.036786   12.880450    ( 0.0000,  0.0000,  0.0000)
   2 Tl     1.754844    1.026808   15.677402    ( 0.0000,  0.0000,  0.0000)
   3 Tl     5.291724    3.111634   18.687897    ( 0.0000,  0.0000,  0.0000)
   4 Tl     1.763908    3.055179   10.000000    ( 0.0000,  0.0000,  0.0000)
   5 Tl     5.291724    5.091964   12.880450    ( 0.0000,  0.0000,  0.0000)
   6 Tl     3.541336    4.069750   15.766835    ( 0.0000,  0.0000,  0.0000)
   7 Tl     7.011138    6.090152   18.689093    ( 0.0000,  0.0000,  0.0000)
   8 Tl     3.527816    6.110357   10.000000    ( 0.0000,  0.0000,  0.0000)
   9 Tl     7.055633    8.147143   12.880450    ( 0.0000,  0.0000,  0.0000)
  10 Tl     5.291724    7.122882   15.764180    ( 0.0000,  0.0000,  0.0000)
  11 Tl     8.714566    9.234884   18.846361    ( 0.0000,  0.0000,  0.0000)
  12 Tl     3.527816    0.000000   10.000000    ( 0.0000,  0.0000,  0.0000)
  13 Tl     7.055633    2.036786   12.880450    ( 0.0000,  0.0000,  0.0000)
  14 Tl     5.291724    1.063594   15.762223    ( 0.0000,  0.0000,  0.0000)
  15 Tl     8.773276    3.074604   18.728414    ( 0.0000,  0.0000,  0.0000)
  16 Tl     5.291724    3.055179   10.000000    ( 0.0000,  0.0000,  0.0000)
  17 Tl     8.819541    5.091964   12.880450    ( 0.0000,  0.0000,  0.0000)
  18 Tl     7.042113    4.069750   15.766835    ( 0.0000,  0.0000,  0.0000)
  19 Tl    10.583449    6.000873   18.835884    ( 0.0000,  0.0000,  0.0000)
  20 Tl     7.055633    6.110357   10.000000    ( 0.0000,  0.0000,  0.0000)
  21 Tl    10.583449    8.147143   12.880450    ( 0.0000,  0.0000,  0.0000)
  22 Tl     8.787707    7.116839   15.760400    ( 0.0000,  0.0000,  0.0000)
  23 Tl    12.452332    9.234884   18.846361    ( 0.0000,  0.0000,  0.0000)
  24 Tl     7.055633    0.000000   10.000000    ( 0.0000,  0.0000,  0.0000)
  25 Tl    10.583449    2.036786   12.880450    ( 0.0000,  0.0000,  0.0000)
  26 Tl     8.828605    1.026808   15.677402    ( 0.0000,  0.0000,  0.0000)
  27 Tl    12.393622    3.074604   18.728414    ( 0.0000,  0.0000,  0.0000)
  28 Tl     8.819541    3.055179   10.000000    ( 0.0000,  0.0000,  0.0000)
  29 Tl    12.347357    5.091964   12.880450    ( 0.0000,  0.0000,  0.0000)
  30 Tl    10.583449    4.055595   15.690025    ( 0.0000,  0.0000,  0.0000)
  31 Tl    14.155760    6.090152   18.689093    ( 0.0000,  0.0000,  0.0000)
  32 Tl    10.583449    6.110357   10.000000    ( 0.0000,  0.0000,  0.0000)
  33 Tl    14.111265    8.147143   12.880450    ( 0.0000,  0.0000,  0.0000)
  34 Tl    12.379191    7.116839   15.760400    ( 0.0000,  0.0000,  0.0000)
  35 Tl    15.875173    9.103907   18.694256    ( 0.0000,  0.0000,  0.0000)
  36 O     10.583449    8.159502   19.519342    ( 0.0000,  0.0000,  0.0000)

Unit cell:
           periodic     x           y           z      points  spacing
  1. axis:    yes   10.583449    0.000000    0.000000    52     0.1763
  2. axis:    yes    5.291724    9.165536    0.000000    52     0.1763
  3. axis:    no     0.000000    0.000000   28.641350   160     0.1790

  Lengths:  10.583449  10.583449  28.641350
  Angles:   90.000000  90.000000  60.000000

Effective grid spacing dv^(1/3) = 0.1859

     iter     time        total  log10-change:
                         energy  eigst   dens
iter:   1 00:38:24 -12537.000249  -3.51
iter:   2 00:39:05 -12536.999450  -4.50  -3.35
iter:   3 00:39:47 -12536.998869c -5.28  -3.43
iter:   4 00:40:28 -12536.998527c -5.34  -3.81
iter:   5 00:41:09 -12536.998566c -5.66  -4.02c
iter:   6 00:41:50 -12536.998558c -6.18  -4.18c
iter:   7 00:42:31 -12536.998512c -6.50  -4.25c
iter:   8 00:43:12 -12536.998528c -6.24  -4.44c
iter:   9 00:43:53 -12536.998547c -7.04  -4.46c
iter:  10 00:44:34 -12536.998553c -7.18  -4.60c
iter:  11 00:45:15 -12536.998549c -7.43c -4.78c

Converged after 11 iterations.

Dipole moment: (-37.646305, -19.651816, -0.117897) |e|*Ang

Energy contributions relative to reference atoms: (reference = -19803660.142079)

Kinetic:       +1286.379560
Potential:     -1213.037039
External:        +0.000000
XC:            -12610.152041
Entropy (-ST):   -0.842645
Local:           +0.232293
--------------------------
Free energy:   -12537.419871
Extrapolated:  -12536.998549

Showing only first 2 kpts
 Kpt  Band  Eigenvalues  Occupancy
  0   235     -3.96492    1.59569
  0   236     -3.92160    1.43807
  0   237     -3.80725    0.89847
  0   238     -3.71541    0.49122

  1   235     -3.91064    1.39276
  1   236     -3.87298    1.22294
  1   237     -3.82623    0.99303
  1   238     -3.78961    0.81217


Fermi level: -3.82763

No gap

Forces in eV/Ang:
  0 Tl   -0.00000    0.01132   -0.02847
  1 Tl    0.01093   -0.01530   -0.00801
  2 Tl    0.03447   -0.00264    0.09990
  3 Tl    0.00000   -0.00558    0.02595
  4 Tl    0.00443    0.00852   -0.08240
  5 Tl   -0.00000    0.01909    0.04838
  6 Tl   -0.01884    0.00123   -0.00480
  7 Tl    0.02440    0.01910   -0.00296
  8 Tl   -0.04791    0.00169   -0.08616
  9 Tl    0.01706   -0.01981   -0.00291
 10 Tl   -0.00000    0.00988    0.00633
 11 Tl   -0.05837    0.03216    0.02992
 12 Tl    0.05863   -0.01894   -0.11184
 13 Tl   -0.01093   -0.01530   -0.00801
 14 Tl    0.00000   -0.07214    0.07556
 15 Tl    0.01125    0.02455    0.00854
 16 Tl    0.00000   -0.04935   -0.10624
 17 Tl    0.01770    0.03404    0.01987
 18 Tl    0.01884    0.00123   -0.00480
 19 Tl    0.00000   -0.07450    0.00366
 20 Tl    0.04791    0.00169   -0.08616
 21 Tl    0.00000   -0.02337    0.02471
 22 Tl    0.05045    0.02783    0.09957
 23 Tl    0.05837    0.03216    0.02992
 24 Tl   -0.05863   -0.01894   -0.11184
 25 Tl    0.00000   -0.00382   -0.10593
 26 Tl   -0.03447   -0.00264    0.09990
 27 Tl   -0.01125    0.02455    0.00854
 28 Tl   -0.00443    0.00852   -0.08240
 29 Tl   -0.01770    0.03404    0.01987
 30 Tl   -0.00000    0.02846    0.10744
 31 Tl   -0.02440    0.01910   -0.00296
 32 Tl   -0.00000    0.04636   -0.12304
 33 Tl   -0.01706   -0.01981   -0.00291
 34 Tl   -0.05045    0.02783    0.09957
 35 Tl   -0.00000    0.03000   -0.00324
 36 O     0.00000   -0.05968    0.00053

BFGS:    6 00:45:28   -12536.998549        0.1150
System changes: positions 

Initializing position-dependent things.

Density initialized from wave functions
                                                             
                                                             
                                                             
                                                             
                                      O                      
                                  Tl       Tl       Tl       
                                                             
                            Tl       Tl       Tl             
                      Tl       Tl       Tl                   
                                                             
                        Tl       Tl       Tl                 
                                                             
                  Tl       Tl       Tl                       
                     Tl      Tl       Tl       Tl            
            Tl                Tl                             
                       Tl       Tl       Tl                  
                 Tl       Tl      Tl                         
                                                             
                    Tl      Tl       Tl                      
             Tl       Tl       Tl                            
                                                             
       Tl       Tl       Tl                                  
                                                             
                                                             
                                                             
                                                             

Positions:
   0 Tl     0.000000    0.000000   10.000000    ( 0.0000,  0.0000,  0.0000)
   1 Tl     3.527816    2.036786   12.880450    ( 0.0000,  0.0000,  0.0000)
   2 Tl     1.758433    1.026447   15.688929    ( 0.0000,  0.0000,  0.0000)
   3 Tl     5.291724    3.109589   18.690622    ( 0.0000,  0.0000,  0.0000)
   4 Tl     1.763908    3.055179   10.000000    ( 0.0000,  0.0000,  0.0000)
   5 Tl     5.291724    5.091964   12.880450    ( 0.0000,  0.0000,  0.0000)
   6 Tl     3.539100    4.069823   15.766075    ( 0.0000,  0.0000,  0.0000)
   7 Tl     7.014760    6.092645   18.688652    ( 0.0000,  0.0000,  0.0000)
   8 Tl     3.527816    6.110357   10.000000    ( 0.0000,  0.0000,  0.0000)
   9 Tl     7.055633    8.147143   12.880450    ( 0.0000,  0.0000,  0.0000)
  10 Tl     5.291724    7.124028   15.764600    ( 0.0000,  0.0000,  0.0000)
  11 Tl     8.718030    9.232654   18.846253    ( 0.0000,  0.0000,  0.0000)
  12 Tl     3.527816    0.000000   10.000000    ( 0.0000,  0.0000,  0.0000)
  13 Tl     7.055633    2.036786   12.880450    ( 0.0000,  0.0000,  0.0000)
  14 Tl     5.291724    1.054765   15.769942    ( 0.0000,  0.0000,  0.0000)
  15 Tl     8.775545    3.076058   18.727854    ( 0.0000,  0.0000,  0.0000)
  16 Tl     5.291724    3.055179   10.000000    ( 0.0000,  0.0000,  0.0000)
  17 Tl     8.819541    5.091964   12.880450    ( 0.0000,  0.0000,  0.0000)
  18 Tl     7.044349    4.069823   15.766075    ( 0.0000,  0.0000,  0.0000)
  19 Tl    10.583449    6.005163   18.834250    ( 0.0000,  0.0000,  0.0000)
  20 Tl     7.055633    6.110357   10.000000    ( 0.0000,  0.0000,  0.0000)
  21 Tl    10.583449    8.147143   12.880450    ( 0.0000,  0.0000,  0.0000)
  22 Tl     8.793902    7.120156   15.769914    ( 0.0000,  0.0000,  0.0000)
  23 Tl    12.448868    9.232654   18.846253    ( 0.0000,  0.0000,  0.0000)
  24 Tl     7.055633    0.000000   10.000000    ( 0.0000,  0.0000,  0.0000)
  25 Tl    10.583449    2.036786   12.880450    ( 0.0000,  0.0000,  0.0000)
  26 Tl     8.825016    1.026447   15.688929    ( 0.0000,  0.0000,  0.0000)
  27 Tl    12.391353    3.076058   18.727854    ( 0.0000,  0.0000,  0.0000)
  28 Tl     8.819541    3.055179   10.000000    ( 0.0000,  0.0000,  0.0000)
  29 Tl    12.347357    5.091964   12.880450    ( 0.0000,  0.0000,  0.0000)
  30 Tl    10.583449    4.058692   15.702187    ( 0.0000,  0.0000,  0.0000)
  31 Tl    14.152138    6.092645   18.688652    ( 0.0000,  0.0000,  0.0000)
  32 Tl    10.583449    6.110357   10.000000    ( 0.0000,  0.0000,  0.0000)
  33 Tl    14.111265    8.147143   12.880450    ( 0.0000,  0.0000,  0.0000)
  34 Tl    12.372996    7.120156   15.769914    ( 0.0000,  0.0000,  0.0000)
  35 Tl    15.875173    9.108093   18.693299    ( 0.0000,  0.0000,  0.0000)
  36 O     10.583449    8.154256   19.518342    ( 0.0000,  0.0000,  0.0000)

Unit cell:
           periodic     x           y           z      points  spacing
  1. axis:    yes   10.583449    0.000000    0.000000    52     0.1763
  2. axis:    yes    5.291724    9.165536    0.000000    52     0.1763
  3. axis:    no     0.000000    0.000000   28.641350   160     0.1790

  Lengths:  10.583449  10.583449  28.641350
  Angles:   90.000000  90.000000  60.000000

Effective grid spacing dv^(1/3) = 0.1859

     iter     time        total  log10-change:
                         energy  eigst   dens
iter:   1 00:46:40 -12537.021286  -2.69
iter:   2 00:47:21 -12537.012838  -3.66  -2.82
iter:   3 00:48:02 -12537.006528c -4.47  -2.91
iter:   4 00:48:43 -12537.004390c -4.44  -3.32
iter:   5 00:49:24 -12537.004234c -4.63  -3.50
iter:   6 00:50:06 -12537.004149c -5.04  -3.75
iter:   7 00:50:47 -12537.004116c -5.66  -3.87
iter:   8 00:51:28 -12537.004232c -5.86  -4.05c
iter:   9 00:52:09 -12537.004233c -6.33  -4.08c
iter:  10 00:52:50 -12537.004274c -6.63  -4.09c
iter:  11 00:53:31 -12537.004239c -6.91  -4.35c
iter:  12 00:54:13 -12537.004210c -7.20  -4.44c
iter:  13 00:54:54 -12537.004200c -7.10  -4.57c
iter:  14 00:55:35 -12537.004192c -7.45c -4.83c

Converged after 14 iterations.

Dipole moment: (-37.008052, -19.776555, -0.118079) |e|*Ang

Energy contributions relative to reference atoms: (reference = -19803660.142079)

Kinetic:       +1286.339361
Potential:     -1213.004284
External:        +0.000000
XC:            -12610.149069
Entropy (-ST):   -0.844565
Local:           +0.232083
--------------------------
Free energy:   -12537.426474
Extrapolated:  -12537.004192

Showing only first 2 kpts
 Kpt  Band  Eigenvalues  Occupancy
  0   235     -3.96403    1.59332
  0   236     -3.92161    1.43873
  0   237     -3.80794    0.90260
  0   238     -3.71468    0.48905

  1   235     -3.90967    1.38929
  1   236     -3.87091    1.21381
  1   237     -3.82669    0.99607
  1   238     -3.78943    0.81202


Fermi level: -3.82748

No gap

Forces in eV/Ang:
  0 Tl   -0.00000    0.01203   -0.02568
  1 Tl    0.01111   -0.01782   -0.00034
  2 Tl    0.02040   -0.00298    0.08134
  3 Tl   -0.00000    0.00746    0.01680
  4 Tl    0.00363    0.00840   -0.07944
  5 Tl   -0.00000    0.01898    0.04847
  6 Tl   -0.00833    0.00055   -0.00266
  7 Tl    0.01406    0.01611   -0.00173
  8 Tl   -0.04883    0.00228   -0.08398
  9 Tl    0.01969   -0.01864    0.00679
 10 Tl   -0.00000    0.00761    0.00433
 11 Tl   -0.08565    0.05281    0.04193
 12 Tl    0.05939   -0.01978   -0.10969
 13 Tl   -0.01111   -0.01782   -0.00034
 14 Tl    0.00000   -0.04194    0.05382
 15 Tl    0.00154    0.02382    0.01361
 16 Tl    0.00000   -0.04988   -0.10383
 17 Tl    0.02066    0.03595    0.02746
 18 Tl    0.00833    0.00055   -0.00266
 19 Tl    0.00000   -0.13507    0.00370
 20 Tl    0.04883    0.00228   -0.08398
 21 Tl    0.00000   -0.02412    0.02524
 22 Tl    0.03199    0.02085    0.09262
 23 Tl    0.08565    0.05281    0.04193
 24 Tl   -0.05939   -0.01978   -0.10969
 25 Tl    0.00000   -0.00366   -0.08543
 26 Tl   -0.02040   -0.00298    0.08134
 27 Tl   -0.00154    0.02382    0.01361
 28 Tl   -0.00363    0.00840   -0.07944
 29 Tl   -0.02066    0.03595    0.02746
 30 Tl   -0.00000    0.01768    0.07881
 31 Tl   -0.01406    0.01611   -0.00173
 32 Tl   -0.00000    0.04705   -0.12087
 33 Tl   -0.01969   -0.01864    0.00679
 34 Tl   -0.03199    0.02085    0.09262
 35 Tl   -0.00000    0.01698    0.00226
 36 O     0.00000   -0.01213    0.02832

BFGS:    7 00:55:48   -12537.004192        0.1351
System changes: positions 

Initializing position-dependent things.

Density initialized from wave functions
                                                             
                                                             
                                                             
                                                             
                                      O                      
                                  Tl       Tl       Tl       
                                                             
                            Tl       Tl       Tl             
                      Tl       Tl       Tl                   
                                                             
                        Tl       Tl       Tl                 
                                                             
                  Tl       Tl       Tl                       
            Tl       Tl      Tl       Tl       Tl            
                                                             
                       Tl       Tl       Tl                  
                 Tl       Tl      Tl                         
                                                             
                    Tl      Tl       Tl                      
             Tl       Tl       Tl                            
                                                             
       Tl       Tl       Tl                                  
                                                             
                                                             
                                                             
                                                             

Positions:
   0 Tl     0.000000    0.000000   10.000000    ( 0.0000,  0.0000,  0.0000)
   1 Tl     3.527816    2.036786   12.880450    ( 0.0000,  0.0000,  0.0000)
   2 Tl     1.767555    1.026152   15.715240    ( 0.0000,  0.0000,  0.0000)
   3 Tl     5.291724    3.109261   18.698812    ( 0.0000,  0.0000,  0.0000)
   4 Tl     1.763908    3.055179   10.000000    ( 0.0000,  0.0000,  0.0000)
   5 Tl     5.291724    5.091964   12.880450    ( 0.0000,  0.0000,  0.0000)
   6 Tl     3.533399    4.070174   15.764899    ( 0.0000,  0.0000,  0.0000)
   7 Tl     7.020885    6.097922   18.688529    ( 0.0000,  0.0000,  0.0000)
   8 Tl     3.527816    6.110357   10.000000    ( 0.0000,  0.0000,  0.0000)
   9 Tl     7.055633    8.147143   12.880450    ( 0.0000,  0.0000,  0.0000)
  10 Tl     5.291724    7.126785   15.766778    ( 0.0000,  0.0000,  0.0000)
  11 Tl     8.715369    9.234262   18.861803    ( 0.0000,  0.0000,  0.0000)
  12 Tl     3.527816    0.000000   10.000000    ( 0.0000,  0.0000,  0.0000)
  13 Tl     7.055633    2.036786   12.880450    ( 0.0000,  0.0000,  0.0000)
  14 Tl     5.291724    1.033271   15.792452    ( 0.0000,  0.0000,  0.0000)
  15 Tl     8.777634    3.082412   18.731186    ( 0.0000,  0.0000,  0.0000)
  16 Tl     5.291724    3.055179   10.000000    ( 0.0000,  0.0000,  0.0000)
  17 Tl     8.819541    5.091964   12.880450    ( 0.0000,  0.0000,  0.0000)
  18 Tl     7.050050    4.070174   15.764899    ( 0.0000,  0.0000,  0.0000)
  19 Tl    10.583449    6.002534   18.843579    ( 0.0000,  0.0000,  0.0000)
  20 Tl     7.055633    6.110357   10.000000    ( 0.0000,  0.0000,  0.0000)
  21 Tl    10.583449    8.147143   12.880450    ( 0.0000,  0.0000,  0.0000)
  22 Tl     8.808671    7.128304   15.798295    ( 0.0000,  0.0000,  0.0000)
  23 Tl    12.451529    9.234262   18.861803    ( 0.0000,  0.0000,  0.0000)
  24 Tl     7.055633    0.000000   10.000000    ( 0.0000,  0.0000,  0.0000)
  25 Tl    10.583449    2.036786   12.880450    ( 0.0000,  0.0000,  0.0000)
  26 Tl     8.815894    1.026152   15.715240    ( 0.0000,  0.0000,  0.0000)
  27 Tl    12.389264    3.082412   18.731186    ( 0.0000,  0.0000,  0.0000)
  28 Tl     8.819541    3.055179   10.000000    ( 0.0000,  0.0000,  0.0000)
  29 Tl    12.347357    5.091964   12.880450    ( 0.0000,  0.0000,  0.0000)
  30 Tl    10.583449    4.065967   15.731018    ( 0.0000,  0.0000,  0.0000)
  31 Tl    14.146013    6.097922   18.688529    ( 0.0000,  0.0000,  0.0000)
  32 Tl    10.583449    6.110357   10.000000    ( 0.0000,  0.0000,  0.0000)
  33 Tl    14.111265    8.147143   12.880450    ( 0.0000,  0.0000,  0.0000)
  34 Tl    12.358227    7.128304   15.798295    ( 0.0000,  0.0000,  0.0000)
  35 Tl    15.875173    9.114551   18.694153    ( 0.0000,  0.0000,  0.0000)
  36 O     10.583449    8.141051   19.502285    ( 0.0000,  0.0000,  0.0000)

Unit cell:
           periodic     x           y           z      points  spacing
  1. axis:    yes   10.583449    0.000000    0.000000    52     0.1763
  2. axis:    yes    5.291724    9.165536    0.000000    52     0.1763
  3. axis:    no     0.000000    0.000000   28.641350   160     0.1790

  Lengths:  10.583449  10.583449  28.641350
  Angles:   90.000000  90.000000  60.000000

Effective grid spacing dv^(1/3) = 0.1859

     iter     time        total  log10-change:
                         energy  eigst   dens
iter:   1 00:56:59 -12537.115033  -1.88
iter:   2 00:57:40 -12537.062103  -2.83  -2.41
iter:   3 00:58:21 -12537.022302c -3.64  -2.51
iter:   4 00:59:02 -12537.012486c -3.64  -2.94
iter:   5 00:59:43 -12537.010970c -3.87  -3.11
iter:   6 01:00:24 -12537.010706c -4.16  -3.36
iter:   7 01:01:05 -12537.010671c -4.80  -3.49
iter:   8 01:01:46 -12537.011034c -5.15  -3.66
iter:   9 01:02:27 -12537.011106c -5.53  -3.70
iter:  10 01:03:08 -12537.011194c -5.73  -3.67
iter:  11 01:03:49 -12537.011068c -6.09  -3.95
iter:  12 01:04:30 -12537.011017c -6.41  -4.05c
iter:  13 01:05:11 -12537.011004c -6.24  -4.15c
iter:  14 01:05:52 -12537.011002c -6.77  -4.32c
iter:  15 01:06:33 -12537.011004c -6.89  -4.41c
iter:  16 01:07:14 -12537.011007c -7.20  -4.63c
iter:  17 01:07:55 -12537.011015c -7.28  -4.66c
iter:  18 01:08:36 -12537.011017c -8.04c -4.94c

Converged after 18 iterations.

Dipole moment: (-36.279459, -20.691889, -0.109854) |e|*Ang

Energy contributions relative to reference atoms: (reference = -19803660.142079)

Kinetic:       +1286.126744
Potential:     -1212.877861
External:        +0.000000
XC:            -12610.063622
Entropy (-ST):   -0.848989
Local:           +0.228217
--------------------------
Free energy:   -12537.435511
Extrapolated:  -12537.011017

Showing only first 2 kpts
 Kpt  Band  Eigenvalues  Occupancy
  0   235     -3.95996    1.58868
  0   236     -3.91922    1.43977
  0   237     -3.80736    0.91286
  0   238     -3.71048    0.48336

  1   235     -3.90757    1.39160
  1   236     -3.86305    1.18881
  1   237     -3.82329    0.99232
  1   238     -3.78506    0.80373


Fermi level: -3.82483

No gap

Forces in eV/Ang:
  0 Tl   -0.00000    0.00949   -0.02988
  1 Tl    0.01207   -0.02441    0.02059
  2 Tl   -0.01521   -0.00505    0.00425
  3 Tl   -0.00000    0.02461    0.00840
  4 Tl    0.00643    0.00869   -0.08348
  5 Tl   -0.00000    0.01880    0.05120
  6 Tl    0.00953    0.00032   -0.00163
  7 Tl   -0.00924    0.00454    0.00553
  8 Tl   -0.04424    0.00057   -0.08951
  9 Tl    0.02636   -0.01593    0.03271
 10 Tl   -0.00000    0.00359   -0.00406
 11 Tl   -0.08748    0.04997    0.04021
 12 Tl    0.05799   -0.01853   -0.11199
 13 Tl   -0.01207   -0.02441    0.02059
 14 Tl    0.00000   -0.01021    0.03926
 15 Tl   -0.01226    0.02181    0.02547
 16 Tl    0.00000   -0.04565   -0.10868
 17 Tl    0.02795    0.04140    0.05094
 18 Tl   -0.00953    0.00032   -0.00163
 19 Tl    0.00000   -0.20644    0.01352
 20 Tl    0.04424    0.00057   -0.08951
 21 Tl    0.00000   -0.02619    0.04148
 22 Tl   -0.00800   -0.00475    0.02008
 23 Tl    0.08748    0.04997    0.04021
 24 Tl   -0.05799   -0.01853   -0.11199
 25 Tl    0.00000   -0.00362   -0.04170
 26 Tl    0.01521   -0.00505    0.00425
 27 Tl    0.01226    0.02181    0.02547
 28 Tl   -0.00643    0.00869   -0.08348
 29 Tl   -0.02795    0.04140    0.05094
 30 Tl    0.00000   -0.00343   -0.00681
 31 Tl    0.00924    0.00454    0.00553
 32 Tl   -0.00000    0.04599   -0.12246
[...]
  23 Tl    12.536405    9.280856   19.430578    ( 0.0000,  0.0000,  0.0000)
  24 Tl     7.055633    0.000000   10.000000    ( 0.0000,  0.0000,  0.0000)
  25 Tl    10.583449    2.036786   12.880450    ( 0.0000,  0.0000,  0.0000)
  26 Tl     8.782880    0.972751   15.771545    ( 0.0000,  0.0000,  0.0000)
  27 Tl    12.448023    3.102067   18.570438    ( 0.0000,  0.0000,  0.0000)
  28 Tl     8.819541    3.055179   10.000000    ( 0.0000,  0.0000,  0.0000)
  29 Tl    12.347357    5.091964   12.880450    ( 0.0000,  0.0000,  0.0000)
  30 Tl    10.583449    4.088288   15.737340    ( 0.0000,  0.0000,  0.0000)
  31 Tl    14.178360    6.097543   18.761469    ( 0.0000,  0.0000,  0.0000)
  32 Tl    10.583449    6.110357   10.000000    ( 0.0000,  0.0000,  0.0000)
  33 Tl    14.111265    8.147143   12.880450    ( 0.0000,  0.0000,  0.0000)
  34 Tl    12.348086    7.120578   15.968289    ( 0.0000,  0.0000,  0.0000)
  35 Tl    15.875173    9.104738   18.629107    ( 0.0000,  0.0000,  0.0000)
  36 O     10.583449    8.130193   19.463768    ( 0.0000,  0.0000,  0.0000)

Unit cell:
           periodic     x           y           z      points  spacing
  1. axis:    yes   10.583449    0.000000    0.000000    52     0.1763
  2. axis:    yes    5.291724    9.165536    0.000000    52     0.1763
  3. axis:    no     0.000000    0.000000   28.641350   160     0.1790

  Lengths:  10.583449  10.583449  28.641350
  Angles:   90.000000  90.000000  60.000000

Effective grid spacing dv^(1/3) = 0.1859

     iter     time        total  log10-change:
                         energy  eigst   dens
iter:   1 06:16:01 -12537.100613  -2.90
iter:   2 06:16:42 -12537.099022  -3.91  -3.15
iter:   3 06:17:23 -12537.097823c -4.70  -3.22
iter:   4 06:18:04 -12537.097117c -4.80  -3.52
iter:   5 06:18:45 -12537.097256c -4.97  -3.72
iter:   6 06:19:26 -12537.097271c -5.21  -3.90
iter:   7 06:20:07 -12537.097158c -5.73  -3.97
iter:   8 06:20:48 -12537.097225c -6.07  -4.19c
iter:   9 06:21:29 -12537.097204c -6.54  -4.25c
iter:  10 06:22:10 -12537.097221c -7.02  -4.28c
iter:  11 06:22:51 -12537.097191c -7.32  -4.51c
iter:  12 06:23:32 -12537.097178c -7.18  -4.58c
iter:  13 06:24:13 -12537.097199c -7.50c -4.70c

Converged after 13 iterations.

Dipole moment: (-44.498880, -27.008852, 0.080129) |e|*Ang

Energy contributions relative to reference atoms: (reference = -19803660.142079)

Kinetic:       +1280.202798
Potential:     -1208.842523
External:        +0.000000
XC:            -12608.237274
Entropy (-ST):   -0.830773
Local:           +0.195186
--------------------------
Free energy:   -12537.512586
Extrapolated:  -12537.097199

Showing only first 2 kpts
 Kpt  Band  Eigenvalues  Occupancy
  0   235     -3.89057    1.66373
  0   236     -3.83406    1.47532
  0   237     -3.72666    0.97993
  0   238     -3.59505    0.40971

  1   235     -3.82100    1.42323
  1   236     -3.73475    1.02038
  1   237     -3.71803    0.93684
  1   238     -3.65799    0.65176


Fermi level: -3.73067

No gap

Forces in eV/Ang:
  0 Tl   -0.00000    0.01818   -0.02693
  1 Tl    0.00281   -0.06970    0.09686
  2 Tl    0.00052    0.00511   -0.03793
  3 Tl    0.00000   -0.00819    0.01754
  4 Tl   -0.00310    0.00809   -0.08377
  5 Tl   -0.00000    0.00984   -0.01827
  6 Tl   -0.00560   -0.00231    0.01248
  7 Tl    0.02271    0.00669   -0.03216
  8 Tl   -0.04496   -0.00336   -0.09399
  9 Tl    0.06189    0.02198    0.06463
 10 Tl    0.00000   -0.00521    0.04163
 11 Tl    0.03486    0.00119    0.01631
 12 Tl    0.03691   -0.00576   -0.11462
 13 Tl   -0.00281   -0.06970    0.09686
 14 Tl    0.00000   -0.04531    0.00446
 15 Tl    0.03677    0.00967   -0.00379
 16 Tl    0.00000   -0.04011   -0.11296
 17 Tl    0.05380    0.05413    0.08371
 18 Tl    0.00560   -0.00231    0.01248
 19 Tl    0.00000   -0.04793   -0.02546
 20 Tl    0.04496   -0.00336   -0.09399
 21 Tl    0.00000   -0.01620    0.17736
 22 Tl    0.03444    0.00757    0.03726
 23 Tl   -0.03486    0.00119    0.01631
 24 Tl   -0.03691   -0.00576   -0.11462
 25 Tl    0.00000   -0.02082    0.06248
 26 Tl   -0.00052    0.00511   -0.03793
 27 Tl   -0.03677    0.00967   -0.00379
 28 Tl    0.00310    0.00809   -0.08377
 29 Tl   -0.05380    0.05413    0.08371
 30 Tl    0.00000   -0.00630   -0.02895
 31 Tl   -0.02271    0.00669   -0.03216
 32 Tl   -0.00000    0.02033   -0.12861
 33 Tl   -0.06189    0.02198    0.06463
 34 Tl   -0.03444    0.00757    0.03726
 35 Tl    0.00000   -0.00556   -0.02654
 36 O    -0.00000    0.09194    0.03271

BFGS:   36 06:24:25   -12537.097199        0.0976
System changes: positions 

Initializing position-dependent things.

Density initialized from wave functions
                                                             
                                                             
                                                             
                                                             
                                  Tl  O     Tl               
                                                    Tl       
                                     Tl                      
                            Tl                Tl             
                      Tl                                     
                               TlTl     TlTl                 
                        Tl                                   
                                                             
                  Tl       Tl       Tl                       
            Tl       Tl      Tl       Tl       Tl            
                                                             
                       Tl       Tl       Tl                  
                 Tl       Tl      Tl                         
                                                             
                    Tl      Tl       Tl                      
             Tl       Tl       Tl                            
                                                             
       Tl       Tl       Tl                                  
                                                             
                                                             
                                                             
                                                             

Positions:
   0 Tl     0.000000    0.000000   10.000000    ( 0.0000,  0.0000,  0.0000)
   1 Tl     3.527816    2.036786   12.880450    ( 0.0000,  0.0000,  0.0000)
   2 Tl     1.804947    0.973102   15.767692    ( 0.0000,  0.0000,  0.0000)
   3 Tl     5.291724    3.136605   18.781730    ( 0.0000,  0.0000,  0.0000)
   4 Tl     1.763908    3.055179   10.000000    ( 0.0000,  0.0000,  0.0000)
   5 Tl     5.291724    5.091964   12.880450    ( 0.0000,  0.0000,  0.0000)
   6 Tl     3.557226    4.072793   15.737198    ( 0.0000,  0.0000,  0.0000)
   7 Tl     6.992094    6.097100   18.757586    ( 0.0000,  0.0000,  0.0000)
   8 Tl     3.527816    6.110357   10.000000    ( 0.0000,  0.0000,  0.0000)
   9 Tl     7.055633    8.147143   12.880450    ( 0.0000,  0.0000,  0.0000)
  10 Tl     5.291724    7.108541   15.717433    ( 0.0000,  0.0000,  0.0000)
  11 Tl     8.632398    9.277703   19.427672    ( 0.0000,  0.0000,  0.0000)
  12 Tl     3.527816    0.000000   10.000000    ( 0.0000,  0.0000,  0.0000)
  13 Tl     7.055633    2.036786   12.880450    ( 0.0000,  0.0000,  0.0000)
  14 Tl     5.291724    0.996795   16.031052    ( 0.0000,  0.0000,  0.0000)
  15 Tl     8.725825    3.104505   18.566900    ( 0.0000,  0.0000,  0.0000)
  16 Tl     5.291724    3.055179   10.000000    ( 0.0000,  0.0000,  0.0000)
  17 Tl     8.819541    5.091964   12.880450    ( 0.0000,  0.0000,  0.0000)
  18 Tl     7.026223    4.072793   15.737198    ( 0.0000,  0.0000,  0.0000)
  19 Tl    10.583449    5.879708   19.388405    ( 0.0000,  0.0000,  0.0000)
  20 Tl     7.055633    6.110357   10.000000    ( 0.0000,  0.0000,  0.0000)
  21 Tl    10.583449    8.147143   12.880450    ( 0.0000,  0.0000,  0.0000)
  22 Tl     8.824159    7.121778   15.967785    ( 0.0000,  0.0000,  0.0000)
  23 Tl    12.534500    9.277703   19.427672    ( 0.0000,  0.0000,  0.0000)
  24 Tl     7.055633    0.000000   10.000000    ( 0.0000,  0.0000,  0.0000)
  25 Tl    10.583449    2.036786   12.880450    ( 0.0000,  0.0000,  0.0000)
  26 Tl     8.778502    0.973102   15.767692    ( 0.0000,  0.0000,  0.0000)
  27 Tl    12.441073    3.104505   18.566900    ( 0.0000,  0.0000,  0.0000)
  28 Tl     8.819541    3.055179   10.000000    ( 0.0000,  0.0000,  0.0000)
  29 Tl    12.347357    5.091964   12.880450    ( 0.0000,  0.0000,  0.0000)
  30 Tl    10.583449    4.090225   15.736339    ( 0.0000,  0.0000,  0.0000)
  31 Tl    14.174804    6.097100   18.757586    ( 0.0000,  0.0000,  0.0000)
  32 Tl    10.583449    6.110357   10.000000    ( 0.0000,  0.0000,  0.0000)
  33 Tl    14.111265    8.147143   12.880450    ( 0.0000,  0.0000,  0.0000)
  34 Tl    12.342739    7.121778   15.967785    ( 0.0000,  0.0000,  0.0000)
  35 Tl    15.875173    9.100971   18.624538    ( 0.0000,  0.0000,  0.0000)
  36 O     10.583449    8.136339   19.471579    ( 0.0000,  0.0000,  0.0000)

Unit cell:
           periodic     x           y           z      points  spacing
  1. axis:    yes   10.583449    0.000000    0.000000    52     0.1763
  2. axis:    yes    5.291724    9.165536    0.000000    52     0.1763
  3. axis:    no     0.000000    0.000000   28.641350   160     0.1790

  Lengths:  10.583449  10.583449  28.641350
  Angles:   90.000000  90.000000  60.000000

Effective grid spacing dv^(1/3) = 0.1859

     iter     time        total  log10-change:
                         energy  eigst   dens
iter:   1 06:25:36 -12537.100283  -2.87
iter:   2 06:26:17 -12537.100352  -3.91  -3.34
iter:   3 06:26:58 -12537.100115c -4.65  -3.40
iter:   4 06:27:39 -12537.099845c -4.69  -3.49
iter:   5 06:28:20 -12537.099442c -5.13  -3.73
iter:   6 06:29:01 -12537.099444c -5.06  -3.87
iter:   7 06:29:42 -12537.099541c -5.72  -3.93
iter:   8 06:30:23 -12537.099555c -6.09  -4.18c
iter:   9 06:31:04 -12537.099621c -6.50  -4.23c
iter:  10 06:31:45 -12537.099621c -6.67  -4.32c
iter:  11 06:32:26 -12537.099652c -6.99  -4.49c
iter:  12 06:33:07 -12537.099623c -7.13  -4.58c
iter:  13 06:33:48 -12537.099606c -7.47c -4.86c

Converged after 13 iterations.

Dipole moment: (-43.579036, -26.475634, 0.077639) |e|*Ang

Energy contributions relative to reference atoms: (reference = -19803660.142079)

Kinetic:       +1280.341831
Potential:     -1208.948174
External:        +0.000000
XC:            -12608.272156
Entropy (-ST):   -0.830345
Local:           +0.194065
--------------------------
Free energy:   -12537.514778
Extrapolated:  -12537.099606

Showing only first 2 kpts
 Kpt  Band  Eigenvalues  Occupancy
  0   235     -3.89156    1.66499
  0   236     -3.83482    1.47618
  0   237     -3.72773    0.98258
  0   238     -3.59752    0.41603

  1   235     -3.82240    1.42675
  1   236     -3.73571    1.02244
  1   237     -3.71840    0.93603
  1   238     -3.65854    0.65181


Fermi level: -3.73122

No gap

Forces in eV/Ang:
  0 Tl   -0.00000    0.01808   -0.02833
  1 Tl    0.00586   -0.06798    0.09558
  2 Tl   -0.01359    0.00450   -0.03621
  3 Tl    0.00000   -0.00591    0.01072
  4 Tl   -0.00302    0.00728   -0.08520
  5 Tl   -0.00000    0.01019   -0.01196
  6 Tl    0.00830   -0.00785    0.00966
  7 Tl    0.01795    0.00524   -0.02612
  8 Tl   -0.04417   -0.00274   -0.09455
  9 Tl    0.05982    0.01887    0.06843
 10 Tl    0.00000   -0.00589    0.02728
 11 Tl   -0.00342    0.02959    0.02043
 12 Tl    0.03632   -0.00569   -0.11496
 13 Tl   -0.00586   -0.06798    0.09558
 14 Tl   -0.00000    0.00134    0.01010
 15 Tl    0.02535   -0.00736   -0.00553
 16 Tl    0.00000   -0.04001   -0.11345
 17 Tl    0.05266    0.05529    0.08480
 18 Tl   -0.00830   -0.00785    0.00966
 19 Tl   -0.00000    0.00578   -0.01110
 20 Tl    0.04417   -0.00274   -0.09455
 21 Tl    0.00000   -0.01521    0.17284
 22 Tl    0.01647   -0.00002    0.03252
 23 Tl    0.00342    0.02959    0.02043
 24 Tl   -0.03632   -0.00569   -0.11496
 25 Tl    0.00000   -0.02076    0.06316
 26 Tl    0.01359    0.00450   -0.03621
 27 Tl   -0.02535   -0.00736   -0.00553
 28 Tl    0.00302    0.00728   -0.08520
 29 Tl   -0.05266    0.05529    0.08480
 30 Tl    0.00000   -0.01278   -0.04045
 31 Tl   -0.01795    0.00524   -0.02612
 32 Tl   -0.00000    0.02003   -0.12791
 33 Tl   -0.05982    0.01887    0.06843
 34 Tl   -0.01647   -0.00002    0.03252
 35 Tl    0.00000   -0.00213   -0.02875
 36 O     0.00000   -0.02134    0.00703

BFGS:   37 06:34:00   -12537.099606        0.0424
Timing:                                      incl.     excl.
-------------------------------------------------------------------
Density initialized from wave functions:    24.965    22.858   0.1% |
 Symmetrize density:                         2.107     2.107   0.0% |
Forces:                                    480.417   480.417   1.8% ||
Hamiltonian:                               218.926     0.007   0.0% |
 Atomic:                                     0.010     0.010   0.0% |
  XC Correction:                             0.000     0.000   0.0% |
 Calculate atomic Hamiltonians:              0.013     0.013   0.0% |
 Communicate:                                8.460     8.460   0.0% |
 Hartree integrate/restrict:                 0.682     0.682   0.0% |
 Initialize Hamiltonian:                     0.000     0.000   0.0% |
 Poisson:                                   11.355     0.525   0.0% |
  Communicate from 1D:                       1.139     1.139   0.0% |
  Communicate from 2D:                       1.980     1.980   0.0% |
  Communicate to 1D:                         0.517     0.517   0.0% |
  Communicate to 2D:                         2.166     2.166   0.0% |
  FFT 1D:                                    1.724     1.724   0.0% |
  FFT 2D:                                    3.305     3.305   0.0% |
 XC 3D grid:                               198.106    51.116   0.2% |
  VdW-DF integral:                         146.990     1.725   0.0% |
   Convolution:                             18.485    18.485   0.1% |
   FFT:                                     11.107    11.107   0.0% |
   gather:                                  41.839    41.839   0.2% |
   hmm1:                                     2.877     2.877   0.0% |
   hmm2:                                     6.200     6.200   0.0% |
   iFFT:                                    11.465    11.465   0.0% |
   potential:                               48.066     1.032   0.0% |
    collect:                                 4.168     4.168   0.0% |
    p1:                                     28.779    28.779   0.1% |
    p2:                                      9.570     9.570   0.0% |
    sum:                                     4.518     4.518   0.0% |
   splines:                                  5.229     5.229   0.0% |
 vbar:                                       0.292     0.292   0.0% |
LCAO initialization:                        26.486     0.935   0.0% |
 LCAO eigensolver:                          11.364     0.004   0.0% |
  Calculate projections:                     0.000     0.000   0.0% |
  DenseAtomicCorrection:                     0.000     0.000   0.0% |
  Distribute overlap matrix:                10.599    10.599   0.0% |
  Orbital Layouts:                           0.645     0.645   0.0% |
  Potential matrix:                          0.034     0.034   0.0% |
  Sum over cells:                            0.082     0.082   0.0% |
 LCAO to grid:                              13.226    13.226   0.1% |
 Set positions (LCAO WFS):                   0.961     0.767   0.0% |
  Basic WFS set positions:                   0.002     0.002   0.0% |
  Basis functions set positions:             0.000     0.000   0.0% |
  P tci:                                     0.000     0.000   0.0% |
  ST tci:                                    0.144     0.144   0.0% |
  mktci:                                     0.047     0.047   0.0% |
Redistribute:                                0.021     0.021   0.0% |
SCF-cycle:                               24280.531   121.069   0.5% |
 Davidson:                               20805.842  5619.467  21.6% |--------|
  Apply hamiltonian:                       910.685   910.685   3.5% ||
  Subspace diag:                          2900.243     0.082   0.0% |
   calc_h_matrix:                         1547.417   760.111   2.9% ||
    Apply hamiltonian:                     787.306   787.306   3.0% ||
   diagonalize:                             62.656    62.656   0.2% |
   rotate_psi:                            1290.088  1290.088   5.0% |-|
  calc. matrices:                         8625.592  5088.398  19.6% |-------|
   Apply hamiltonian:                     3537.194  3537.194  13.6% |----|
  diagonalize:                             187.812   187.812   0.7% |
  rotate_psi:                             2562.043  2562.043   9.9% |---|
 Density:                                   91.280     0.016   0.0% |
  Atomic density matrices:                   2.880     2.880   0.0% |
  Mix:                                      17.108    17.108   0.1% |
  Multipole moments:                         0.253     0.253   0.0% |
  Pseudo density:                           71.024    41.452   0.2% |
   Symmetrize density:                      29.572    29.572   0.1% |
 Hamiltonian:                             3129.222     0.083   0.0% |
  Atomic:                                    0.156     0.154   0.0% |
   XC Correction:                            0.002     0.002   0.0% |
  Calculate atomic Hamiltonians:             0.192     0.192   0.0% |
  Communicate:                             120.460   120.460   0.5% |
  Hartree integrate/restrict:               10.161    10.161   0.0% |
  Poisson:                                 166.465     7.460   0.0% |
   Communicate from 1D:                     16.977    16.977   0.1% |
   Communicate from 2D:                     28.989    28.989   0.1% |
   Communicate to 1D:                        7.681     7.681   0.0% |
   Communicate to 2D:                       31.570    31.570   0.1% |
   FFT 1D:                                  25.302    25.302   0.1% |
   FFT 2D:                                  48.486    48.486   0.2% |
  XC 3D grid:                             2830.021   746.030   2.9% ||
   VdW-DF integral:                       2083.990    25.318   0.1% |
    Convolution:                           271.100   271.100   1.0% |
    FFT:                                   161.955   161.955   0.6% |
    gather:                                624.132   624.132   2.4% ||
    hmm1:                                   41.955    41.955   0.2% |
    hmm2:                                   90.232    90.232   0.3% |
    iFFT:                                  168.102   168.102   0.6% |
    potential:                             701.193    15.146   0.1% |
     collect:                               60.680    60.680   0.2% |
     p1:                                   420.986   420.986   1.6% ||
     p2:                                   139.527   139.527   0.5% |
     sum:                                   64.854    64.854   0.2% |
    splines:                                 0.005     0.005   0.0% |
  vbar:                                      1.684     1.684   0.0% |
 Orthonormalize:                           133.118     0.009   0.0% |
  calc_s_matrix:                            21.897    21.897   0.1% |
  inverse-cholesky:                         68.934    68.934   0.3% |
  projections:                               0.002     0.002   0.0% |
  rotate_psi_s:                             42.277    42.277   0.2% |
Set symmetry:                                0.002     0.002   0.0% |
Other:                                     955.163   955.163   3.7% ||
-------------------------------------------------------------------
Total:                                             25986.510 100.0%

Memory usage: 2.50 GiB
Date: Thu Sep 28 06:34:00 2023
