
  ___ ___ ___ _ _ _  
 |   |   |_  | | | | 
 | | | | | . | | | | 
 |__ |  _|___|_____|  22.8.0
 |___|_|             

User:   s204775@c026.nifl.fysik.dtu.dk
Date:   Wed Sep 27 23:23:10 2023
Arch:   x86_64
Pid:    239081
CWD:    /home/cat/s204775/projects/Bachelor_project/O_missing_features
Python: 3.10.4
gpaw:   /home/modules/software/GPAW/22.8.0-intel-2022a/lib/python3.10/site-packages/gpaw
_gpaw:  /home/modules/software/GPAW/22.8.0-intel-2022a/lib/python3.10/site-packages/
        _gpaw.cpython-310-x86_64-linux-gnu.so
ase:    /home/modules/software/ASE/3.22.1-intel-2022a/lib/python3.10/site-packages/ase (version 3.22.1)
numpy:  /home/modules/software/SciPy-bundle/2022.05-intel-2022a/lib/python3.10/site-packages/numpy (version 1.22.3)
scipy:  /home/modules/software/SciPy-bundle/2022.05-intel-2022a/lib/python3.10/site-packages/scipy (version 1.8.1)
libxc:  5.2.3
units:  Angstrom and eV
cores: 40
OpenMP: False
OMP_NUM_THREADS: 1

Input parameters:
  basis: dzp
  h: 0.18
  kpts: {size: (4, 4, 1)}
  xc: BEEF-vdW

System changes: positions, numbers, cell, pbc, initial_charges, initial_magmoms 

Initialize ...

species:
  Zn:
    name: Zinc
    id: 9da902d12d12265ad8e0029a903fe3c0
    Z: 30.0
    valence: 12
    core: 18
    charge: 0.0
    file: /home/modules/software/GPAW-setups/0.9.20000/Zn.PBE.gz
    compensation charges: {type: gauss,
                           rc: 0.37,
                           lmax: 2}
    cutoffs: {filter: 2.14,
              core: 2.28}
    valence states:
      #              energy  rcut
      - 4s(2.00)    -5.977   1.286
      - 4p(0.00)    -1.117   1.270
      - 3d(10.00)   -10.142   1.180
      -  s          21.234   1.286
      -  p          26.095   1.270
      -  d          17.070   1.180
  
    # LCAO basis set for Zn:
    #   Name: dzp
    #   File: /home/modules/software/GPAW-setups/0.9.20000/Zn.dzp.basis.gz
    #   Number of radial functions: 7
    #   Number of spherical harmonics: 21
    #     l=0, rc=8.1562 Bohr: 4s-sz confined orbital
    #     l=1, rc=12.4062 Bohr: 4p-sz confined orbital
    #     l=2, rc=4.3594 Bohr: 3d-sz confined orbital
    #     l=0, rc=4.7188 Bohr: 4s-dz split-valence wave
    #     l=1, rc=7.4844 Bohr: 4p-dz split-valence wave
    #     l=2, rc=2.8125 Bohr: 3d-dz split-valence wave
    #     l=1, rc=8.1562 Bohr: p-type Gaussian polarization
    #   Number of RI-basis functions 0

  O:
    name: Oxygen
    id: 32ecd46bf208036f09c70b0ec9a88b78
    Z: 8.0
    valence: 6
    core: 2
    charge: 0.0
    file: /home/modules/software/GPAW-setups/0.9.20000/O.PBE.gz
    compensation charges: {type: gauss,
                           rc: 0.21,
                           lmax: 2}
    cutoffs: {filter: 1.17,
              core: 0.83}
    valence states:
      #              energy  rcut
      - 2s(2.00)   -23.961   0.688
      - 2p(4.00)    -9.029   0.598
      -  s           3.251   0.688
      -  p          18.182   0.598
      -  d           0.000   0.619
  
    # LCAO basis set for O:
    #   Name: dzp
    #   File: /home/modules/software/GPAW-setups/0.9.20000/O.dzp.basis.gz
    #   Number of radial functions: 5
    #   Number of spherical harmonics: 13
    #     l=0, rc=4.3438 Bohr: 2s-sz confined orbital
    #     l=1, rc=5.3906 Bohr: 2p-sz confined orbital
    #     l=0, rc=2.2969 Bohr: 2s-dz split-valence wave
    #     l=1, rc=2.8906 Bohr: 2p-dz split-valence wave
    #     l=2, rc=5.3906 Bohr: d-type Gaussian polarization
    #   Number of RI-basis functions 0

Reference energy: -1761048.611807  # eV

Spin-paired calculation

Convergence criteria:
 Maximum [total energy] change in last 3 cyles: 0.0005 eV / electron
 Maximum integral of absolute [dens]ity change: 0.0001 electrons / valence electron
 Maximum integral of absolute [eigenst]ate change: 4e-08 eV^2 / valence electron
 Maximum number of scf [iter]ations: 333
 (Square brackets indicate name in SCF output, whereas a 'c' in
 the SCF output indicates the quantity has converged.)

Symmetries present (total): 2

  ( 1  1  0)  ( 1  0  0)
  ( 0 -1  0)  ( 0  1  0)
  ( 0  0  1)  ( 0  0  1)
Note: your k-points are not as symmetric as your crystal!

16 k-points: 4 x 4 x 1 Monkhorst-Pack grid
8 k-points in the irreducible part of the Brillouin zone
       k-points in crystal coordinates                weights
   0:     0.12500000   -0.37500000    0.00000000          2/16
   1:     0.12500000   -0.12500000    0.00000000          2/16
   2:     0.12500000    0.12500000    0.00000000          2/16
   3:     0.12500000    0.37500000    0.00000000          2/16
   4:     0.37500000   -0.37500000    0.00000000          2/16
   5:     0.37500000   -0.12500000    0.00000000          2/16
   6:     0.37500000    0.12500000    0.00000000          2/16
   7:     0.37500000    0.37500000    0.00000000          2/16

Wave functions: Uniform real-space grid
  Kinetic energy operator: 8*3+1=25 point O(h^6) finite-difference Laplacian
  ScaLapack parameters: grid=1x1, blocksize=None
  Wavefunction extrapolation:
    Improved wavefunction reuse through dual PAW basis 

Occupation numbers: Fermi-Dirac:
  width: 0.1000  # eV
 

Eigensolver
   Davidson(niter=2) 

Densities:
  Coarse grid: 40*40*148 grid
  Fine grid: 80*80*296 grid
  Total Charge: 0.000000 

Density mixing:
  Method: separate
  Backend: pulay
  Linear mixing parameter: 0.05
  old densities: 5
  Damping of long wavelength oscillations: 50 

Hamiltonian:
  XC and Coulomb potentials evaluated on a 80*80*296 grid
  Using the BEEF-vdW Exchange-Correlation functional
  Interpolation: tri-quintic (5. degree polynomial)
  Poisson solver: FastPoissonSolver using
    Stencil: 8*3+1=25 point O(h^6) finite-difference Laplacian
    FFT axes: [0, 1]
    FST axes: [2]
 

XC parameters: BEEF-vdW with 2 nearest neighbor stencil

Memory estimate:
  Process memory now: 210.93 MiB
  Calculator: 460.65 MiB
    Density: 53.19 MiB
      Arrays: 9.35 MiB
      Localized functions: 40.30 MiB
      Mixer: 3.54 MiB
    Hamiltonian: 8.67 MiB
      Arrays: 6.12 MiB
      XC: 0.00 MiB
      Poisson: 0.00 MiB
      vbar: 2.56 MiB
    Wavefunctions: 398.79 MiB
      Arrays psit_nG: 189.04 MiB
      Eigensolver: 203.46 MiB
      Projections: 0.54 MiB
      Projectors: 5.75 MiB

Total number of cores used: 40
Parallelization over k-points: 8
Domain decomposition: 1 x 1 x 5

Number of atoms: 37
Number of atomic orbitals: 769
Number of bands in calculation: 267
Number of valence electrons: 438
Bands to converge: occupied

... initialized

Initializing position-dependent things.

Density initialized from atomic densities
Creating initial wave functions:
  267 bands from LCAO basis set

                                             
                                             
                                             
                                             
                         O                   
               Zn     Zn     Zn              
                 Zn     Zn     Zn            
                                             
           Zn     ZZn    ZZn     Zn          
                                             
             Zn     Zn     Zn                
               Zn     Zn     Zn              
              Zn     Zn     Zn               
                Zn     Zn     Zn             
                                             
          Zn     ZZn    ZZn     Zn           
                                             
            Zn     Zn     Zn                 
              Zn     Zn     Zn               
                                             
                                             
                                             
                                             

Positions:
   0 Zn     0.000000    0.000000   10.000000    ( 0.0000,  0.0000,  0.0000)
   1 Zn     1.414214    0.816497   12.309401    ( 0.0000,  0.0000,  0.0000)
   2 Zn     0.000000    1.628527   14.652990    ( 0.0000,  0.0000,  0.0000)
   3 Zn     1.412823    2.446904   17.071372    ( 0.0000,  0.0000,  0.0000)
   4 Zn    -1.414214    2.449490   10.000000    ( 0.0000,  0.0000,  0.0000)
   5 Zn     0.000000    3.265986   12.309401    ( 0.0000,  0.0000,  0.0000)
   6 Zn    -1.415902    4.081508   14.653527    ( 0.0000,  0.0000,  0.0000)
   7 Zn     0.000000    4.898979   17.084620    ( 0.0000,  0.0000,  0.0000)
   8 Zn    -2.828427    4.898979   10.000000    ( 0.0000,  0.0000,  0.0000)
   9 Zn    -1.414214    5.715476   12.309401    ( 0.0000,  0.0000,  0.0000)
  10 Zn    -2.832295    6.534206   14.652990    ( 0.0000,  0.0000,  0.0000)
  11 Zn    -1.417148    7.348558   17.071372    ( 0.0000,  0.0000,  0.0000)
  12 Zn     2.828427    0.000000   10.000000    ( 0.0000,  0.0000,  0.0000)
  13 Zn     4.242641    0.816497   12.309401    ( 0.0000,  0.0000,  0.0000)
  14 Zn     2.825133    1.631091   14.647504    ( 0.0000,  0.0000,  0.0000)
  15 Zn     4.242641    2.449490   17.082020    ( 0.0000,  0.0000,  0.0000)
  16 Zn     1.414214    2.449490   10.000000    ( 0.0000,  0.0000,  0.0000)
  17 Zn     2.828427    3.265986   12.309401    ( 0.0000,  0.0000,  0.0000)
  18 Zn     1.415902    4.081508   14.653527    ( 0.0000,  0.0000,  0.0000)
  19 Zn     2.829972    4.901477   17.071372    ( 0.0000,  0.0000,  0.0000)
  20 Zn     0.000000    4.898979   10.000000    ( 0.0000,  0.0000,  0.0000)
  21 Zn     1.414214    5.715476   12.309401    ( 0.0000,  0.0000,  0.0000)
  22 Zn     0.000000    6.533922   14.653527    ( 0.0000,  0.0000,  0.0000)
  23 Zn     1.417148    7.348558   17.071372    ( 0.0000,  0.0000,  0.0000)
  24 Zn     5.656854    0.000000   10.000000    ( 0.0000,  0.0000,  0.0000)
  25 Zn     7.071068    0.816497   12.309401    ( 0.0000,  0.0000,  0.0000)
  26 Zn     5.660149    1.631091   14.647504    ( 0.0000,  0.0000,  0.0000)
  27 Zn     7.072458    2.446904   17.071372    ( 0.0000,  0.0000,  0.0000)
  28 Zn     4.242641    2.449490   10.000000    ( 0.0000,  0.0000,  0.0000)
  29 Zn     5.656854    3.265986   12.309401    ( 0.0000,  0.0000,  0.0000)
  30 Zn     4.242641    4.086287   14.647504    ( 0.0000,  0.0000,  0.0000)
  31 Zn     5.655310    4.901477   17.071372    ( 0.0000,  0.0000,  0.0000)
  32 Zn     2.828427    4.898979   10.000000    ( 0.0000,  0.0000,  0.0000)
  33 Zn     4.242641    5.715476   12.309401    ( 0.0000,  0.0000,  0.0000)
  34 Zn     2.832295    6.534206   14.652990    ( 0.0000,  0.0000,  0.0000)
  35 Zn     4.242641    7.348469   17.091774    ( 0.0000,  0.0000,  0.0000)
  36 O      2.829972    6.532864   17.887066    ( 0.0000,  0.0000,  0.0000)

Unit cell:
           periodic     x           y           z      points  spacing
  1. axis:    yes    8.485281    0.000000    0.000000    40     0.1837
  2. axis:    yes   -4.242641    7.348469    0.000000    40     0.1837
  3. axis:    no     0.000000    0.000000   26.928203   148     0.1819

  Lengths:   8.485281   8.485281  26.928203
  Angles:   90.000000  90.000000 120.000000

Effective grid spacing dv^(1/3) = 0.1921

     iter     time        total  log10-change:
                         energy  eigst   dens
iter:   1 23:24:11 -2793.635149
iter:   2 23:24:38 -2794.349828  +0.20  -1.39
iter:   3 23:25:04 -2794.976765  -0.12  -1.42
iter:   4 23:25:30 -2796.477676  -0.43  -1.44
iter:   5 23:25:57 -2795.937892  -0.75  -1.76
iter:   6 23:26:23 -2796.519119  -1.11  -1.64
iter:   7 23:26:50 -2796.516408  -1.39  -2.29
iter:   8 23:27:16 -2796.427582c -1.66  -2.33
iter:   9 23:27:43 -2796.360720c -2.08  -2.63
iter:  10 23:28:09 -2796.357870c -2.60  -2.71
iter:  11 23:28:35 -2796.366427c -3.06  -2.83
iter:  12 23:29:02 -2796.350986c -3.27  -2.81
iter:  13 23:29:28 -2796.350706c -3.64  -3.06
iter:  14 23:29:55 -2796.350098c -3.92  -3.16
iter:  15 23:30:21 -2796.349540c -4.12  -3.35
iter:  16 23:30:48 -2796.349257c -4.20  -3.49
iter:  17 23:31:14 -2796.349202c -4.81  -3.66
iter:  18 23:31:40 -2796.349186c -5.17  -3.71
iter:  19 23:32:07 -2796.349281c -5.08  -3.82
iter:  20 23:32:33 -2796.349308c -5.41  -3.96
iter:  21 23:33:00 -2796.349330c -5.66  -3.98
iter:  22 23:33:26 -2796.349344c -5.32  -4.06c
iter:  23 23:33:52 -2796.349360c -5.49  -4.42c
iter:  24 23:34:19 -2796.349364c -5.80  -4.47c
iter:  25 23:34:45 -2796.349368c -6.25  -4.52c
iter:  26 23:35:12 -2796.349373c -6.34  -4.58c
iter:  27 23:35:38 -2796.349375c -6.82  -4.69c
iter:  28 23:36:04 -2796.349377c -6.81  -4.82c
iter:  29 23:36:31 -2796.349377c -7.03  -4.91c
iter:  30 23:36:57 -2796.349375c -7.16  -5.00c
iter:  31 23:37:24 -2796.349374c -7.38  -5.06c
iter:  32 23:37:50 -2796.349374c -7.65c -5.25c

Converged after 32 iterations.

Dipole moment: (-3.573947, -4.364078, -0.068989) |e|*Ang

Energy contributions relative to reference atoms: (reference = -1761048.611807)

Kinetic:       +654.376558
Potential:     -547.361150
External:        +0.000000
XC:            -2901.968378
Entropy (-ST):   -0.420315
Local:           -1.186247
--------------------------
Free energy:   -2796.559532
Extrapolated:  -2796.349374

Showing only first 2 kpts
 Kpt  Band  Eigenvalues  Occupancy
  0   217     -4.80217    1.88651
  0   218     -4.52431    1.01606
  0   219     -4.40570    0.47952
  0   220     -4.29509    0.18898

  1   217     -4.60945    1.41514
  1   218     -4.36436    0.34518
  1   219     -3.71233    0.00061
  1   220     -3.62016    0.00024


Fermi level: -4.52109

No gap

Forces in eV/Ang:
  0 Zn   -0.00192   -0.00111   -0.16228
  1 Zn   -0.04574   -0.02641    0.20289
  2 Zn    0.02344   -0.03677    0.06257
  3 Zn    0.01374   -0.00789    0.02608
  4 Zn   -0.01068   -0.01675   -0.18387
  5 Zn   -0.01864    0.00907    0.14906
  6 Zn    0.02122    0.01225   -0.01206
  7 Zn   -0.26848   -0.15501   -0.13419
  8 Zn   -0.01985   -0.00087   -0.18387
  9 Zn   -0.00147   -0.02068    0.14906
 10 Zn   -0.02013    0.03869    0.06257
 11 Zn    0.00003    0.01584    0.02608
 12 Zn   -0.00297   -0.02171   -0.16961
 13 Zn    0.02592   -0.00836    0.20239
 14 Zn    0.02620    0.01513    0.00527
 15 Zn   -0.00792   -0.00457    0.00146
 16 Zn   -0.02029    0.00829   -0.16961
 17 Zn    0.00572    0.02662    0.20239
 18 Zn    0.02043    0.00709    0.06848
 19 Zn   -0.00394   -2.70381   -0.71308
 20 Zn    0.00075    0.00043   -0.17721
 21 Zn   -0.01461   -0.00843    0.13797
 22 Zn    0.01635    0.01415    0.06848
 23 Zn   -2.34353    1.34849   -0.71308
 24 Zn    0.00296    0.01798   -0.16014
 25 Zn    0.01823    0.01027    0.13000
 26 Zn   -0.04825   -0.01511    0.07366
 27 Zn   -0.00920    0.31587   -0.08082
 28 Zn    0.02978    0.01720   -0.18740
 29 Zn    0.00912    0.00526    0.12916
 30 Zn   -0.03721   -0.03423    0.07366
 31 Zn    0.26895   -0.16590   -0.08082
 32 Zn    0.01705   -0.00642   -0.16014
 33 Zn    0.01801    0.01066    0.13000
 34 Zn    0.00270    0.00156   -0.34414
 35 Zn    2.46839    1.42513   -0.78408
 36 O    -0.13184   -0.07612    2.52734

      Step     Time          Energy         fmax
BFGS:    0 23:38:03    -2796.349374        2.9561
System changes: positions 

Initializing position-dependent things.

Density initialized from wave functions
                                             
                                             
                                             
                                             
                         O                   
               Zn     Zn     Zn              
                 Zn     Zn     Zn            
                                             
           Zn     ZZn    ZZn     Zn          
                                             
             Zn     Zn     Zn                
               Zn     Zn     Zn              
              Zn     Zn     Zn               
                Zn     Zn     Zn             
                                             
          Zn     ZZn    ZZn     Zn           
                                             
            Zn     Zn     Zn                 
              Zn     Zn     Zn               
                                             
                                             
                                             
                                             

Positions:
   0 Zn     0.000000    0.000000   10.000000    ( 0.0000,  0.0000,  0.0000)
   1 Zn     1.414214    0.816497   12.309401    ( 0.0000,  0.0000,  0.0000)
   2 Zn     0.000335    1.628002   14.653884    ( 0.0000,  0.0000,  0.0000)
   3 Zn     1.413019    2.446791   17.071745    ( 0.0000,  0.0000,  0.0000)
   4 Zn    -1.414214    2.449490   10.000000    ( 0.0000,  0.0000,  0.0000)
   5 Zn     0.000000    3.265986   12.309401    ( 0.0000,  0.0000,  0.0000)
   6 Zn    -1.415599    4.081683   14.653355    ( 0.0000,  0.0000,  0.0000)
   7 Zn    -0.003835    4.896765   17.082703    ( 0.0000,  0.0000,  0.0000)
   8 Zn    -2.828427    4.898979   10.000000    ( 0.0000,  0.0000,  0.0000)
   9 Zn    -1.414214    5.715476   12.309401    ( 0.0000,  0.0000,  0.0000)
  10 Zn    -2.832582    6.534758   14.653884    ( 0.0000,  0.0000,  0.0000)
  11 Zn    -1.417148    7.348785   17.071745    ( 0.0000,  0.0000,  0.0000)
  12 Zn     2.828427    0.000000   10.000000    ( 0.0000,  0.0000,  0.0000)
  13 Zn     4.242641    0.816497   12.309401    ( 0.0000,  0.0000,  0.0000)
  14 Zn     2.825507    1.631307   14.647579    ( 0.0000,  0.0000,  0.0000)
  15 Zn     4.242528    2.449424   17.082041    ( 0.0000,  0.0000,  0.0000)
  16 Zn     1.414214    2.449490   10.000000    ( 0.0000,  0.0000,  0.0000)
  17 Zn     2.828427    3.265986   12.309401    ( 0.0000,  0.0000,  0.0000)
  18 Zn     1.416194    4.081609   14.654505    ( 0.0000,  0.0000,  0.0000)
  19 Zn     2.829915    4.862851   17.061185    ( 0.0000,  0.0000,  0.0000)
  20 Zn     0.000000    4.898979   10.000000    ( 0.0000,  0.0000,  0.0000)
  21 Zn     1.414214    5.715476   12.309401    ( 0.0000,  0.0000,  0.0000)
  22 Zn     0.000234    6.534125   14.654505    ( 0.0000,  0.0000,  0.0000)
  23 Zn     1.383669    7.367822   17.061185    ( 0.0000,  0.0000,  0.0000)
  24 Zn     5.656854    0.000000   10.000000    ( 0.0000,  0.0000,  0.0000)
  25 Zn     7.071068    0.816497   12.309401    ( 0.0000,  0.0000,  0.0000)
  26 Zn     5.659460    1.630875   14.648556    ( 0.0000,  0.0000,  0.0000)
  27 Zn     7.072327    2.451416   17.070218    ( 0.0000,  0.0000,  0.0000)
  28 Zn     4.242641    2.449490   10.000000    ( 0.0000,  0.0000,  0.0000)
  29 Zn     5.656854    3.265986   12.309401    ( 0.0000,  0.0000,  0.0000)
  30 Zn     4.242109    4.085798   14.648556    ( 0.0000,  0.0000,  0.0000)
  31 Zn     5.659152    4.899107   17.070218    ( 0.0000,  0.0000,  0.0000)
  32 Zn     2.828427    4.898979   10.000000    ( 0.0000,  0.0000,  0.0000)
  33 Zn     4.242641    5.715476   12.309401    ( 0.0000,  0.0000,  0.0000)
  34 Zn     2.832333    6.534228   14.648074    ( 0.0000,  0.0000,  0.0000)
  35 Zn     4.277903    7.368828   17.080573    ( 0.0000,  0.0000,  0.0000)
  36 O      2.828088    6.531777   17.923171    ( 0.0000,  0.0000,  0.0000)

Unit cell:
           periodic     x           y           z      points  spacing
  1. axis:    yes    8.485281    0.000000    0.000000    40     0.1837
  2. axis:    yes   -4.242641    7.348469    0.000000    40     0.1837
  3. axis:    no     0.000000    0.000000   26.928203   148     0.1819

  Lengths:   8.485281   8.485281  26.928203
  Angles:   90.000000  90.000000 120.000000

Effective grid spacing dv^(1/3) = 0.1921

     iter     time        total  log10-change:
                         energy  eigst   dens
iter:   1 23:39:03 -2796.875190  -1.24
iter:   2 23:39:30 -2796.814421  -1.86  -2.63
iter:   3 23:39:56 -2796.715080c -2.25  -2.72
iter:   4 23:40:23 -2796.706910c -2.52  -3.01
iter:   5 23:40:50 -2796.709377c -2.98  -3.17
iter:   6 23:41:16 -2796.702302c -3.09  -3.22
iter:   7 23:41:43 -2796.701711c -3.24  -3.34
iter:   8 23:42:10 -2796.701686c -3.70  -3.55
iter:   9 23:42:36 -2796.701628c -4.24  -3.66
iter:  10 23:43:03 -2796.701528c -4.40  -3.71
iter:  11 23:43:30 -2796.701545c -4.53  -3.82
iter:  12 23:43:57 -2796.701770c -4.66  -3.90
iter:  13 23:44:23 -2796.701483c -5.03  -3.94
iter:  14 23:44:50 -2796.701478c -5.29  -4.19c
iter:  15 23:45:17 -2796.701472c -5.77  -4.21c
iter:  16 23:45:43 -2796.701468c -6.01  -4.45c
iter:  17 23:46:10 -2796.701464c -6.31  -4.48c
iter:  18 23:46:36 -2796.701462c -6.51  -4.73c
iter:  19 23:47:03 -2796.701459c -6.87  -4.86c
iter:  20 23:47:30 -2796.701454c -7.12  -4.93c
iter:  21 23:47:57 -2796.701453c -7.29  -5.04c
iter:  22 23:48:23 -2796.701453c -7.63c -5.13c

Converged after 22 iterations.

Dipole moment: (-4.403569, -5.486311, -0.104101) |e|*Ang

Energy contributions relative to reference atoms: (reference = -1761048.611807)

Kinetic:       +648.519079
Potential:     -542.686785
External:        +0.000000
XC:            -2901.142407
Entropy (-ST):   -0.418281
Local:           -1.182200
--------------------------
Free energy:   -2796.910594
Extrapolated:  -2796.701453

Showing only first 2 kpts
 Kpt  Band  Eigenvalues  Occupancy
  0   217     -4.83375    1.88630
  0   218     -4.55868    1.02902
  0   219     -4.43390    0.46661
  0   220     -4.32649    0.18834

  1   217     -4.63634    1.39468
  1   218     -4.38504    0.31464
  1   219     -3.75450    0.00068
  1   220     -3.65172    0.00024


Fermi level: -4.55287

No gap

Forces in eV/Ang:
  0 Zn   -0.00267   -0.00154   -0.16158
  1 Zn   -0.04540   -0.02621    0.20116
  2 Zn    0.01737   -0.02990    0.05171
  3 Zn    0.00785   -0.00107    0.02987
  4 Zn   -0.01096   -0.01836   -0.18290
  5 Zn   -0.01733    0.00815    0.15211
  6 Zn    0.02000    0.01155   -0.02703
  7 Zn   -0.24151   -0.13944   -0.12769
  8 Zn   -0.02138   -0.00031   -0.18290
  9 Zn   -0.00161   -0.01908    0.15211
 10 Zn   -0.01721    0.02999    0.05171
 11 Zn    0.00300    0.00734    0.02987
 12 Zn   -0.00315   -0.02367   -0.16731
 13 Zn    0.02573   -0.00856    0.20062
 14 Zn    0.02492    0.01439   -0.00738
 15 Zn   -0.00142   -0.00082    0.00607
 16 Zn   -0.02208    0.00911   -0.16731
 17 Zn    0.00546    0.02656    0.20062
 18 Zn    0.01274    0.00755    0.05733
 19 Zn    0.00577   -1.68050   -0.31025
 20 Zn    0.00233    0.00135   -0.17646
 21 Zn   -0.01653   -0.00954    0.13647
 22 Zn    0.01291    0.00726    0.05733
 23 Zn   -1.45247    0.84525   -0.31025
 24 Zn    0.00369    0.01776   -0.15928
 25 Zn    0.01791    0.01302    0.12889
 26 Zn   -0.04116   -0.00948    0.06243
 27 Zn   -0.00664    0.27774   -0.07392
 28 Zn    0.03193    0.01844   -0.18497
 29 Zn    0.00816    0.00471    0.13162
 30 Zn   -0.02879   -0.03090    0.06243
 31 Zn    0.23721   -0.14462   -0.07392
 32 Zn    0.01723   -0.00568   -0.15928
 33 Zn    0.02023    0.00900    0.12889
 34 Zn    0.00283    0.00164   -0.27289
 35 Zn    1.50240    0.86741   -0.33554
 36 O    -0.12279   -0.07089    1.26985

BFGS:    1 23:48:36    -2796.701453        1.7670
System changes: positions 

Initializing position-dependent things.

Density initialized from wave functions
                                             
                                             
                                             
                                             
                         O                   
               Zn     Zn     Zn              
                 Zn     Zn     Zn            
                                             
           Zn     ZZn    ZZn     Zn          
                                             
             Zn     Zn     Zn                
               Zn     Zn     Zn              
              Zn     Zn     Zn               
                Zn     Zn     Zn             
                                             
          Zn     ZZn    ZZn     Zn           
                                             
            Zn     Zn     Zn                 
              Zn     Zn     Zn               
                                             
                                             
                                             
                                             

Positions:
   0 Zn     0.000000    0.000000   10.000000    ( 0.0000,  0.0000,  0.0000)
   1 Zn     1.414214    0.816497   12.309401    ( 0.0000,  0.0000,  0.0000)
   2 Zn     0.000946    1.626951   14.655701    ( 0.0000,  0.0000,  0.0000)
   3 Zn     1.413297    2.446750   17.072791    ( 0.0000,  0.0000,  0.0000)
   4 Zn    -1.414214    2.449490   10.000000    ( 0.0000,  0.0000,  0.0000)
   5 Zn     0.000000    3.265986   12.309401    ( 0.0000,  0.0000,  0.0000)
   6 Zn    -1.414897    4.082088   14.652413    ( 0.0000,  0.0000,  0.0000)
   7 Zn    -0.012316    4.891869   17.078222    ( 0.0000,  0.0000,  0.0000)
   8 Zn    -2.828427    4.898979   10.000000    ( 0.0000,  0.0000,  0.0000)
   9 Zn    -1.414214    5.715476   12.309401    ( 0.0000,  0.0000,  0.0000)
  10 Zn    -2.833187    6.535813   14.655701    ( 0.0000,  0.0000,  0.0000)
  11 Zn    -1.417044    7.349045   17.072791    ( 0.0000,  0.0000,  0.0000)
  12 Zn     2.828427    0.000000   10.000000    ( 0.0000,  0.0000,  0.0000)
  13 Zn     4.242641    0.816497   12.309401    ( 0.0000,  0.0000,  0.0000)
  14 Zn     2.826381    1.631812   14.647325    ( 0.0000,  0.0000,  0.0000)
  15 Zn     4.242475    2.449394   17.082252    ( 0.0000,  0.0000,  0.0000)
  16 Zn     1.414214    2.449490   10.000000    ( 0.0000,  0.0000,  0.0000)
  17 Zn     2.828427    3.265986   12.309401    ( 0.0000,  0.0000,  0.0000)
  18 Zn     1.416644    4.081874   14.656520    ( 0.0000,  0.0000,  0.0000)
  19 Zn     2.830114    4.803511   17.050145    ( 0.0000,  0.0000,  0.0000)
  20 Zn     0.000000    4.898979   10.000000    ( 0.0000,  0.0000,  0.0000)
  21 Zn     1.414214    5.715476   12.309401    ( 0.0000,  0.0000,  0.0000)
  22 Zn     0.000688    6.534382   14.656520    ( 0.0000,  0.0000,  0.0000)
  23 Zn     1.332379    7.397664   17.050145    ( 0.0000,  0.0000,  0.0000)
  24 Zn     5.656854    0.000000   10.000000    ( 0.0000,  0.0000,  0.0000)
  25 Zn     7.071068    0.816497   12.309401    ( 0.0000,  0.0000,  0.0000)
  26 Zn     5.658013    1.630540   14.650750    ( 0.0000,  0.0000,  0.0000)
  27 Zn     7.072093    2.461171   17.067623    ( 0.0000,  0.0000,  0.0000)
  28 Zn     4.242641    2.449490   10.000000    ( 0.0000,  0.0000,  0.0000)
  29 Zn     5.656854    3.265986   12.309401    ( 0.0000,  0.0000,  0.0000)
  30 Zn     4.241096    4.084713   14.650750    ( 0.0000,  0.0000,  0.0000)
  31 Zn     5.667483    4.894026   17.067623    ( 0.0000,  0.0000,  0.0000)
  32 Zn     2.828427    4.898979   10.000000    ( 0.0000,  0.0000,  0.0000)
  33 Zn     4.242641    5.715476   12.309401    ( 0.0000,  0.0000,  0.0000)
  34 Zn     2.832433    6.534285   14.638475    ( 0.0000,  0.0000,  0.0000)
  35 Zn     4.330975    7.399469   17.068628    ( 0.0000,  0.0000,  0.0000)
  36 O      2.823778    6.529289   17.968203    ( 0.0000,  0.0000,  0.0000)

Unit cell:
           periodic     x           y           z      points  spacing
  1. axis:    yes    8.485281    0.000000    0.000000    40     0.1837
  2. axis:    yes   -4.242641    7.348469    0.000000    40     0.1837
  3. axis:    no     0.000000    0.000000   26.928203   148     0.1819

  Lengths:   8.485281   8.485281  26.928203
  Angles:   90.000000  90.000000 120.000000

Effective grid spacing dv^(1/3) = 0.1921

     iter     time        total  log10-change:
                         energy  eigst   dens
iter:   1 23:49:36 -2797.246468  -0.99
iter:   2 23:50:03 -2797.146478  -1.57  -2.52
iter:   3 23:50:30 -2796.950373  -1.86  -2.60
iter:   4 23:50:56 -2796.952018c -2.44  -2.96
iter:   5 23:51:23 -2796.948085c -2.74  -3.09
iter:   6 23:51:50 -2796.937708c -2.78  -3.11
iter:   7 23:52:17 -2796.936868c -3.12  -3.28
iter:   8 23:52:43 -2796.937193c -3.53  -3.46
iter:   9 23:53:10 -2796.936751c -4.07  -3.52
iter:  10 23:53:37 -2796.936907c -4.29  -3.73
iter:  11 23:54:04 -2796.936794c -4.28  -3.71
iter:  12 23:54:30 -2796.936916c -4.50  -3.91
iter:  13 23:54:57 -2796.936700c -4.91  -3.93
iter:  14 23:55:24 -2796.936698c -5.34  -4.12c
iter:  15 23:55:51 -2796.936705c -5.52  -4.17c
iter:  16 23:56:18 -2796.936690c -5.88  -4.31c
iter:  17 23:56:44 -2796.936674c -6.25  -4.42c
iter:  18 23:57:11 -2796.936683c -6.04  -4.61c
iter:  19 23:57:38 -2796.936668c -6.59  -4.64c
iter:  20 23:58:05 -2796.936666c -6.92  -4.78c
iter:  21 23:58:31 -2796.936668c -6.78  -4.85c
iter:  22 23:58:58 -2796.936667c -6.96  -5.13c
iter:  23 23:59:25 -2796.936667c -7.48c -5.24c

Converged after 23 iterations.

Dipole moment: (-5.560420, -7.124881, -0.150693) |e|*Ang

Energy contributions relative to reference atoms: (reference = -1761048.611807)

Kinetic:       +642.076634
Potential:     -537.469039
External:        +0.000000
XC:            -2900.156206
Entropy (-ST):   -0.415241
Local:           -1.180436
--------------------------
Free energy:   -2797.144287
Extrapolated:  -2796.936667

Showing only first 2 kpts
 Kpt  Band  Eigenvalues  Occupancy
  0   217     -4.87466    1.88393
  0   218     -4.60652    1.05267
  0   219     -4.47152    0.44730
  0   220     -4.36903    0.18737

  1   217     -4.67025    1.35520
  1   218     -4.40855    0.26610
  1   219     -3.81253    0.00079
  1   220     -3.69385    0.00024


Fermi level: -4.59597

No gap

Forces in eV/Ang:
  0 Zn   -0.00252   -0.00145   -0.16325
  1 Zn   -0.04408   -0.02545    0.19881
  2 Zn    0.00848   -0.01631    0.03348
  3 Zn   -0.00050    0.00859    0.03575
  4 Zn   -0.01174   -0.01935   -0.18418
  5 Zn   -0.01472    0.00626    0.15944
  6 Zn    0.01729    0.00998   -0.05224
  7 Zn   -0.18806   -0.10857   -0.11301
  8 Zn   -0.02263   -0.00049   -0.18418
  9 Zn   -0.00193   -0.01588    0.15944
 10 Zn   -0.00989    0.01551    0.03348
 11 Zn    0.00719   -0.00473    0.03575
 12 Zn   -0.00322   -0.02585   -0.16669
 13 Zn    0.02497   -0.00864    0.19819
 14 Zn    0.02165    0.01250   -0.02416
 15 Zn    0.00711    0.00410    0.01417
 16 Zn   -0.02399    0.01014   -0.16669
 17 Zn    0.00500    0.02595    0.19819
 18 Zn   -0.00033    0.00597    0.03829
 19 Zn   -0.01235   -0.55623    0.14516
 20 Zn    0.00352    0.00203   -0.17790
 21 Zn   -0.02071   -0.01196    0.13350
 22 Zn    0.00500   -0.00327    0.03829
 23 Zn   -0.48788    0.26742    0.14516
 24 Zn    0.00321    0.01839   -0.16056
 25 Zn    0.01704    0.01901    0.12657
 26 Zn   -0.02960    0.00118    0.04280
 27 Zn   -0.00210    0.21070   -0.06195
 28 Zn    0.03477    0.02008   -0.18397
 29 Zn    0.00612    0.00353    0.13787
 30 Zn   -0.01378   -0.02622    0.04280
 31 Zn    0.18143   -0.10717   -0.06195
 32 Zn    0.01753   -0.00641   -0.16056
 33 Zn    0.02499    0.00525    0.12657
 34 Zn    0.00205    0.00119   -0.17142
 35 Zn    0.44683    0.25798    0.12474
 36 O     0.03938    0.02274   -0.08115

BFGS:    2 23:59:38    -2796.936667        0.5750
System changes: positions 

Initializing position-dependent things.

Density initialized from wave functions
                                             
                                             
                                             
                                             
                         O                   
               Zn     Zn     Zn              
                 Zn            Zn            
                        Zn                   
           Zn     ZZn    ZZn     Zn          
                                             
             Zn     Zn     Zn                
               Zn     Zn     Zn              
              Zn     Zn     Zn               
                Zn     Zn     Zn             
                                             
          Zn     ZZn    ZZn     Zn           
                                             
            Zn     Zn     Zn                 
              Zn     Zn     Zn               
                                             
                                             
                                             
                                             

Positions:
   0 Zn     0.000000    0.000000   10.000000    ( 0.0000,  0.0000,  0.0000)
   1 Zn     1.414214    0.816497   12.309401    ( 0.0000,  0.0000,  0.0000)
   2 Zn     0.001248    1.626400   14.656755    ( 0.0000,  0.0000,  0.0000)
   3 Zn     1.413352    2.446903   17.073709    ( 0.0000,  0.0000,  0.0000)
   4 Zn    -1.414214    2.449490   10.000000    ( 0.0000,  0.0000,  0.0000)
   5 Zn     0.000000    3.265986   12.309401    ( 0.0000,  0.0000,  0.0000)
   6 Zn    -1.414408    4.082371   14.651207    ( 0.0000,  0.0000,  0.0000)
   7 Zn    -0.017830    4.888685   17.075050    ( 0.0000,  0.0000,  0.0000)
   8 Zn    -2.828427    4.898979   10.000000    ( 0.0000,  0.0000,  0.0000)
   9 Zn    -1.414214    5.715476   12.309401    ( 0.0000,  0.0000,  0.0000)
  10 Zn    -2.833513    6.536350   14.656755    ( 0.0000,  0.0000,  0.0000)
  11 Zn    -1.416884    7.349017   17.073709    ( 0.0000,  0.0000,  0.0000)
  12 Zn     2.828427    0.000000   10.000000    ( 0.0000,  0.0000,  0.0000)
  13 Zn     4.242641    0.816497   12.309401    ( 0.0000,  0.0000,  0.0000)
  14 Zn     2.826993    1.632165   14.646811    ( 0.0000,  0.0000,  0.0000)
  15 Zn     4.242597    2.449465   17.082569    ( 0.0000,  0.0000,  0.0000)
  16 Zn     1.414214    2.449490   10.000000    ( 0.0000,  0.0000,  0.0000)
  17 Zn     2.828427    3.265986   12.309401    ( 0.0000,  0.0000,  0.0000)
  18 Zn     1.416742    4.082047   14.657710    ( 0.0000,  0.0000,  0.0000)
  19 Zn     2.829918    4.779133   17.050286    ( 0.0000,  0.0000,  0.0000)
  20 Zn     0.000000    4.898979   10.000000    ( 0.0000,  0.0000,  0.0000)
  21 Zn     1.414214    5.715476   12.309401    ( 0.0000,  0.0000,  0.0000)
  22 Zn     0.000887    6.534380   14.657710    ( 0.0000,  0.0000,  0.0000)
  23 Zn     1.311169    7.409683   17.050286    ( 0.0000,  0.0000,  0.0000)
  24 Zn     5.656854    0.000000   10.000000    ( 0.0000,  0.0000,  0.0000)
  25 Zn     7.071068    0.816497   12.309401    ( 0.0000,  0.0000,  0.0000)
  26 Zn     5.657119    1.630485   14.652066    ( 0.0000,  0.0000,  0.0000)
  27 Zn     7.071999    2.467410   17.065852    ( 0.0000,  0.0000,  0.0000)
  28 Zn     4.242641    2.449490   10.000000    ( 0.0000,  0.0000,  0.0000)
  29 Zn     5.656854    3.265986   12.309401    ( 0.0000,  0.0000,  0.0000)
  30 Zn     4.240601    4.083966   14.652066    ( 0.0000,  0.0000,  0.0000)
  31 Zn     5.672839    4.890826   17.065852    ( 0.0000,  0.0000,  0.0000)
  32 Zn     2.828427    4.898979   10.000000    ( 0.0000,  0.0000,  0.0000)
  33 Zn     4.242641    5.715476   12.309401    ( 0.0000,  0.0000,  0.0000)
  34 Zn     2.832494    6.534321   14.633011    ( 0.0000,  0.0000,  0.0000)
  35 Zn     4.351828    7.411509   17.068155    ( 0.0000,  0.0000,  0.0000)
  36 O      2.823564    6.529165   17.977260    ( 0.0000,  0.0000,  0.0000)

Unit cell:
           periodic     x           y           z      points  spacing
  1. axis:    yes    8.485281    0.000000    0.000000    40     0.1837
  2. axis:    yes   -4.242641    7.348469    0.000000    40     0.1837
  3. axis:    no     0.000000    0.000000   26.928203   148     0.1819

  Lengths:   8.485281   8.485281  26.928203
  Angles:   90.000000  90.000000 120.000000

Effective grid spacing dv^(1/3) = 0.1921

     iter     time        total  log10-change:
                         energy  eigst   dens
iter:   1 00:00:37 -2797.005109  -1.90
iter:   2 00:01:04 -2796.990296  -2.47  -2.81
iter:   3 00:01:31 -2796.974023c -2.97  -3.03
iter:   4 00:01:58 -2796.969275c -3.26  -3.20
iter:   5 00:02:24 -2796.970209c -3.66  -3.56
iter:   6 00:02:51 -2796.968270c -3.71  -3.53
iter:   7 00:03:18 -2796.968368c -3.97  -3.84
iter:   8 00:03:45 -2796.968195c -4.49  -3.90
iter:   9 00:04:12 -2796.968253c -4.63  -4.13c
iter:  10 00:04:38 -2796.968228c -5.26  -4.21c
iter:  11 00:05:05 -2796.968238c -5.63  -4.42c
iter:  12 00:05:32 -2796.968241c -5.95  -4.49c
iter:  13 00:05:59 -2796.968240c -6.37  -4.56c
iter:  14 00:06:25 -2796.968233c -6.41  -4.63c
iter:  15 00:06:52 -2796.968235c -6.73  -4.83c
iter:  16 00:07:19 -2796.968236c -6.87  -4.95c
iter:  17 00:07:46 -2796.968232c -7.28  -5.06c
iter:  18 00:08:12 -2796.968232c -7.69c -5.22c

Converged after 18 iterations.

Dipole moment: (-6.012036, -7.736720, -0.163250) |e|*Ang

Energy contributions relative to reference atoms: (reference = -1761048.611807)

Kinetic:       +640.395541
Potential:     -536.094355
External:        +0.000000
XC:            -2899.882608
Entropy (-ST):   -0.414076
Local:           -1.179772
--------------------------
Free energy:   -2797.175270
Extrapolated:  -2796.968232

Showing only first 2 kpts
 Kpt  Band  Eigenvalues  Occupancy
  0   217     -4.88459    1.88208
  0   218     -4.62038    1.06388
  0   219     -4.48099    0.43990
  0   220     -4.38043    0.18702

  1   217     -4.67805    1.33846
  1   218     -4.41147    0.24670
  1   219     -3.82845    0.00083
  1   220     -3.70437    0.00024


Fermi level: -4.60758

No gap

Forces in eV/Ang:
  0 Zn   -0.00253   -0.00146   -0.16463
  1 Zn   -0.04216   -0.02434    0.19743
  2 Zn    0.00420   -0.01283    0.02864
  3 Zn   -0.00560    0.01139    0.03647
  4 Zn   -0.01240   -0.01897   -0.18381
  5 Zn   -0.01370    0.00548    0.16205
  6 Zn    0.01586    0.00916   -0.06462
  7 Zn   -0.15729   -0.09081   -0.10588
  8 Zn   -0.02263   -0.00126   -0.18381
  9 Zn   -0.00211   -0.01460    0.16205
 10 Zn   -0.00901    0.01005    0.02864
 11 Zn    0.00706   -0.01055    0.03647
 12 Zn   -0.00318   -0.02653   -0.16532
 13 Zn    0.02368   -0.00788    0.19658
 14 Zn    0.01938    0.01119   -0.02985
 15 Zn    0.01168    0.00674    0.01666
 16 Zn   -0.02456    0.01051   -0.16532
 17 Zn    0.00501    0.02445    0.19658
 18 Zn   -0.00339    0.00709    0.03215
 19 Zn   -0.01783   -0.24220    0.26663
 20 Zn    0.00327    0.00189   -0.17758
 21 Zn   -0.02439   -0.01408    0.13090
 22 Zn    0.00445   -0.00648    0.03215
 23 Zn   -0.21867    0.10566    0.26663
 24 Zn    0.00295    0.01884   -0.16172
 25 Zn    0.01633    0.02393    0.12405
 26 Zn   -0.02270    0.00260    0.03646
 27 Zn   -0.00040    0.17924   -0.05918
 28 Zn    0.03608    0.02083   -0.18225
 29 Zn    0.00527    0.00304    0.13984
 30 Zn   -0.00910   -0.02096    0.03646
 31 Zn    0.15502   -0.08997   -0.05918
 32 Zn    0.01780   -0.00687   -0.16172
 33 Zn    0.02889    0.00217    0.12405
 34 Zn    0.00061    0.00036   -0.12998
 35 Zn    0.17282    0.09978    0.23256
 36 O     0.04683    0.02704   -0.42667

BFGS:    3 00:08:25    -2796.968232        0.4301
System changes: positions 

Initializing position-dependent things.

Density initialized from wave functions
                                             
                                             
                                             
                                             
                         O                   
               Zn     Zn     Zn              
                 Zn            Zn            
                        Zn                   
           Zn     ZZn    ZZn     Zn          
                                             
             Zn     Zn     Zn                
               Zn     Zn     Zn              
              Zn     Zn     Zn               
                Zn     Zn     Zn             
                                             
          Zn     ZZn    ZZn     Zn           
                                             
            Zn     Zn     Zn                 
              Zn     Zn     Zn               
                                             
                                             
                                             
                                             

Positions:
   0 Zn     0.000000    0.000000   10.000000    ( 0.0000,  0.0000,  0.0000)
   1 Zn     1.414214    0.816497   12.309401    ( 0.0000,  0.0000,  0.0000)
   2 Zn     0.001519    1.625792   14.657996    ( 0.0000,  0.0000,  0.0000)
   3 Zn     1.413267    2.447224   17.075011    ( 0.0000,  0.0000,  0.0000)
   4 Zn    -1.414214    2.449490   10.000000    ( 0.0000,  0.0000,  0.0000)
   5 Zn     0.000000    3.265986   12.309401    ( 0.0000,  0.0000,  0.0000)
   6 Zn    -1.413785    4.082730   14.649143    ( 0.0000,  0.0000,  0.0000)
   7 Zn    -0.024399    4.884893   17.070945    ( 0.0000,  0.0000,  0.0000)
   8 Zn    -2.828427    4.898979   10.000000    ( 0.0000,  0.0000,  0.0000)
   9 Zn    -1.414214    5.715476   12.309401    ( 0.0000,  0.0000,  0.0000)
  10 Zn    -2.833904    6.536888   14.657996    ( 0.0000,  0.0000,  0.0000)
  11 Zn    -1.416649    7.348782   17.075011    ( 0.0000,  0.0000,  0.0000)
  12 Zn     2.828427    0.000000   10.000000    ( 0.0000,  0.0000,  0.0000)
  13 Zn     4.242641    0.816497   12.309401    ( 0.0000,  0.0000,  0.0000)
  14 Zn     2.827760    1.632608   14.645892    ( 0.0000,  0.0000,  0.0000)
  15 Zn     4.242912    2.449647   17.083100    ( 0.0000,  0.0000,  0.0000)
  16 Zn     1.414214    2.449490   10.000000    ( 0.0000,  0.0000,  0.0000)
  17 Zn     2.828427    3.265986   12.309401    ( 0.0000,  0.0000,  0.0000)
  18 Zn     1.416741    4.082304   14.659104    ( 0.0000,  0.0000,  0.0000)
  19 Zn     2.829432    4.758469   17.055496    ( 0.0000,  0.0000,  0.0000)
  20 Zn     0.000000    4.898979   10.000000    ( 0.0000,  0.0000,  0.0000)
  21 Zn     1.414214    5.715476   12.309401    ( 0.0000,  0.0000,  0.0000)
  22 Zn     0.001109    6.534251   14.659104    ( 0.0000,  0.0000,  0.0000)
  23 Zn     1.293030    7.419594   17.055496    ( 0.0000,  0.0000,  0.0000)
  24 Zn     5.656854    0.000000   10.000000    ( 0.0000,  0.0000,  0.0000)
  25 Zn     7.071068    0.816497   12.309401    ( 0.0000,  0.0000,  0.0000)
  26 Zn     5.656113    1.630495   14.653626    ( 0.0000,  0.0000,  0.0000)
  27 Zn     7.071933    2.474891   17.063548    ( 0.0000,  0.0000,  0.0000)
  28 Zn     4.242641    2.449490   10.000000    ( 0.0000,  0.0000,  0.0000)
  29 Zn     5.656854    3.265986   12.309401    ( 0.0000,  0.0000,  0.0000)
  30 Zn     4.240106    4.083090   14.653626    ( 0.0000,  0.0000,  0.0000)
  31 Zn     5.679285    4.887028   17.063548    ( 0.0000,  0.0000,  0.0000)
  32 Zn     2.828427    4.898979   10.000000    ( 0.0000,  0.0000,  0.0000)
  33 Zn     4.242641    5.715476   12.309401    ( 0.0000,  0.0000,  0.0000)
  34 Zn     2.832541    6.534348   14.626988    ( 0.0000,  0.0000,  0.0000)
  35 Zn     4.368938    7.421387   17.072221    ( 0.0000,  0.0000,  0.0000)
  36 O      2.824220    6.529543   17.975135    ( 0.0000,  0.0000,  0.0000)

Unit cell:
           periodic     x           y           z      points  spacing
  1. axis:    yes    8.485281    0.000000    0.000000    40     0.1837
  2. axis:    yes   -4.242641    7.348469    0.000000    40     0.1837
  3. axis:    no     0.000000    0.000000   26.928203   148     0.1819

  Lengths:   8.485281   8.485281  26.928203
  Angles:   90.000000  90.000000 120.000000

Effective grid spacing dv^(1/3) = 0.1921

     iter     time        total  log10-change:
                         energy  eigst   dens
iter:   1 00:09:25 -2797.015349  -2.06
iter:   2 00:09:52 -2796.998473  -2.59  -2.78
iter:   3 00:10:19 -2796.994080c -3.01  -3.08
iter:   4 00:10:46 -2796.987865c -3.28  -3.24
iter:   5 00:11:12 -2796.987955c -3.78  -3.59
iter:   6 00:11:39 -2796.987574c -3.91  -3.68
iter:   7 00:12:06 -2796.987634c -4.13  -3.86
iter:   8 00:12:33 -2796.987639c -4.42  -4.03c
iter:   9 00:12:59 -2796.987636c -4.86  -4.12c
iter:  10 00:13:26 -2796.987625c -5.28  -4.21c
iter:  11 00:13:53 -2796.987626c -5.56  -4.36c
iter:  12 00:14:20 -2796.987631c -5.89  -4.48c
iter:  13 00:14:47 -2796.987630c -6.23  -4.54c
iter:  14 00:15:13 -2796.987626c -6.30  -4.60c
iter:  15 00:15:40 -2796.987628c -6.60  -4.71c
iter:  16 00:16:07 -2796.987627c -7.07  -4.87c
iter:  17 00:16:34 -2796.987624c -7.20  -4.91c
iter:  18 00:17:00 -2796.987624c -7.43c -5.23c

Converged after 18 iterations.

Dipole moment: (-6.417551, -8.215724, -0.167298) |e|*Ang

Energy contributions relative to reference atoms: (reference = -1761048.611807)

Kinetic:       +639.463235
Potential:     -535.329898
External:        +0.000000
XC:            -2899.734984
Entropy (-ST):   -0.413190
Local:           -1.179382
--------------------------
Free energy:   -2797.194219
Extrapolated:  -2796.987624

Showing only first 2 kpts
 Kpt  Band  Eigenvalues  Occupancy
  0   217     -4.88674    1.88014
  0   218     -4.62628    1.07394
  0   219     -4.48323    0.43429
  0   220     -4.38422    0.18687

  1   217     -4.67892    1.32503
  1   218     -4.40810    0.23143
  1   219     -3.83409    0.00084
  1   220     -3.70662    0.00024


Fermi level: -4.61146

No gap

Forces in eV/Ang:
  0 Zn   -0.00200   -0.00115   -0.16556
  1 Zn   -0.04109   -0.02373    0.19685
  2 Zn    0.00056   -0.01066    0.02487
  3 Zn   -0.00782    0.01099    0.03786
  4 Zn   -0.01311   -0.01779   -0.18386
  5 Zn   -0.01263    0.00465    0.16499
  6 Zn    0.01423    0.00821   -0.07666
  7 Zn   -0.12188   -0.07037   -0.09544
  8 Zn   -0.02196   -0.00245   -0.18386
  9 Zn   -0.00229   -0.01326    0.16499
 10 Zn   -0.00895    0.00582    0.02487
 11 Zn    0.00561   -0.01227    0.03786
 12 Zn   -0.00303   -0.02684   -0.16485
 13 Zn    0.02350   -0.00780    0.19554
 14 Zn    0.01659    0.00958   -0.03123
 15 Zn    0.01298    0.00749    0.02016
 16 Zn   -0.02476    0.01079   -0.16485
 17 Zn    0.00499    0.02425    0.19554
 18 Zn   -0.00430    0.00836    0.02700
 19 Zn   -0.01626   -0.04829    0.32025
 20 Zn    0.00247    0.00142   -0.17758
 21 Zn   -0.02739   -0.01581    0.12788
 22 Zn    0.00509   -0.00790    0.02700
 23 Zn   -0.04995    0.01007    0.32025
 24 Zn    0.00208    0.01951   -0.16236
 25 Zn    0.01548    0.02819    0.12124
 26 Zn   -0.01572    0.00192    0.03125
 27 Zn    0.00026    0.14727   -0.05690
 28 Zn    0.03701    0.02137   -0.18148
 29 Zn    0.00440    0.00254    0.14238
 30 Zn   -0.00620   -0.01457    0.03125
 31 Zn    0.12767   -0.07341   -0.05690
 32 Zn    0.01793   -0.00795   -0.16236
 33 Zn    0.03215   -0.00069    0.12124
 34 Zn   -0.00149   -0.00086   -0.09253
 35 Zn    0.00822    0.00474    0.28900
 36 O     0.03940    0.02275   -0.60184

BFGS:    4 00:17:13    -2796.987624        0.6036
System changes: positions 

Initializing position-dependent things.

Density initialized from wave functions
                                             
                                             
                                             
                                             
                         O                   
               Zn     Zn     Zn              
                 Zn            Zn            
                        Zn                   
           Zn     ZZn    ZZn     Zn          
                                             
             Zn     Zn     Zn                
               Zn     Zn     Zn              
              Zn     Zn     Zn               
                Zn     Zn     Zn             
                                             
          Zn     ZZn    ZZn     Zn           
                                             
            Zn     Zn     Zn                 
              Zn     Zn     Zn               
                                             
                                             
                                             
                                             

Positions:
   0 Zn     0.000000    0.000000   10.000000    ( 0.0000,  0.0000,  0.0000)
   1 Zn     1.414214    0.816497   12.309401    ( 0.0000,  0.0000,  0.0000)
   2 Zn     0.001891    1.624716   14.660268    ( 0.0000,  0.0000,  0.0000)
   3 Zn     1.412970    2.447912   17.077692    ( 0.0000,  0.0000,  0.0000)
   4 Zn    -1.414214    2.449490   10.000000    ( 0.0000,  0.0000,  0.0000)
   5 Zn     0.000000    3.265986   12.309401    ( 0.0000,  0.0000,  0.0000)
   6 Zn    -1.412604    4.083412   14.644473    ( 0.0000,  0.0000,  0.0000)
   7 Zn    -0.036120    4.878126   17.063130    ( 0.0000,  0.0000,  0.0000)
   8 Zn    -2.828427    4.898979   10.000000    ( 0.0000,  0.0000,  0.0000)
   9 Zn    -1.414214    5.715476   12.309401    ( 0.0000,  0.0000,  0.0000)
  10 Zn    -2.834650    6.537749   14.660268    ( 0.0000,  0.0000,  0.0000)
  11 Zn    -1.416202    7.348181   17.077692    ( 0.0000,  0.0000,  0.0000)
  12 Zn     2.828427    0.000000   10.000000    ( 0.0000,  0.0000,  0.0000)
  13 Zn     4.242641    0.816497   12.309401    ( 0.0000,  0.0000,  0.0000)
  14 Zn     2.829190    1.633434   14.643909    ( 0.0000,  0.0000,  0.0000)
  15 Zn     4.243642    2.450068   17.084318    ( 0.0000,  0.0000,  0.0000)
  16 Zn     1.414214    2.449490   10.000000    ( 0.0000,  0.0000,  0.0000)
  17 Zn     2.828427    3.265986   12.309401    ( 0.0000,  0.0000,  0.0000)
  18 Zn     1.416640    4.082854   14.661629    ( 0.0000,  0.0000,  0.0000)
  19 Zn     2.828398    4.729335   17.070137    ( 0.0000,  0.0000,  0.0000)
  20 Zn     0.000000    4.898979   10.000000    ( 0.0000,  0.0000,  0.0000)
  21 Zn     1.414214    5.715476   12.309401    ( 0.0000,  0.0000,  0.0000)
  22 Zn     0.001535    6.533889   14.661629    ( 0.0000,  0.0000,  0.0000)
  23 Zn     1.267282    7.433267   17.070137    ( 0.0000,  0.0000,  0.0000)
  24 Zn     5.656854    0.000000   10.000000    ( 0.0000,  0.0000,  0.0000)
  25 Zn     7.071068    0.816497   12.309401    ( 0.0000,  0.0000,  0.0000)
  26 Zn     5.654389    1.630546   14.656478    ( 0.0000,  0.0000,  0.0000)
  27 Zn     7.071847    2.488479   17.059066    ( 0.0000,  0.0000,  0.0000)
  28 Zn     4.242641    2.449490   10.000000    ( 0.0000,  0.0000,  0.0000)
  29 Zn     5.656854    3.265986   12.309401    ( 0.0000,  0.0000,  0.0000)
  30 Zn     4.239289    4.081572   14.656478    ( 0.0000,  0.0000,  0.0000)
  31 Zn     5.691009    4.880160   17.059066    ( 0.0000,  0.0000,  0.0000)
  32 Zn     2.828427    4.898979   10.000000    ( 0.0000,  0.0000,  0.0000)
  33 Zn     4.242641    5.715476   12.309401    ( 0.0000,  0.0000,  0.0000)
  34 Zn     2.832560    6.534359   14.616686    ( 0.0000,  0.0000,  0.0000)
  35 Zn     4.392317    7.434885   17.084615    ( 0.0000,  0.0000,  0.0000)
  36 O      2.826077    6.530616   17.958002    ( 0.0000,  0.0000,  0.0000)

Unit cell:
           periodic     x           y           z      points  spacing
  1. axis:    yes    8.485281    0.000000    0.000000    40     0.1837
  2. axis:    yes   -4.242641    7.348469    0.000000    40     0.1837
  3. axis:    no     0.000000    0.000000   26.928203   148     0.1819

  Lengths:   8.485281   8.485281  26.928203
  Angles:   90.000000  90.000000 120.000000

Effective grid spacing dv^(1/3) = 0.1921

     iter     time        total  log10-change:
                         energy  eigst   dens
iter:   1 00:18:13 -2797.089396  -1.67
iter:   2 00:18:40 -2797.032274  -2.20  -2.55
iter:   3 00:19:07 -2797.025256c -2.58  -2.89
iter:   4 00:19:34 -2797.015824c -2.97  -3.07
iter:   5 00:20:01 -2797.015340c -3.36  -3.33
iter:   6 00:20:28 -2797.015251c -3.63  -3.54
iter:   7 00:20:55 -2797.015147c -3.81  -3.63
iter:   8 00:21:21 -2797.015278c -4.04  -3.94
iter:   9 00:21:48 -2797.015320c -4.52  -3.96
iter:  10 00:22:15 -2797.015332c -4.77  -4.08c
iter:  11 00:22:42 -2797.015324c -5.35  -4.17c
iter:  12 00:23:09 -2797.015324c -5.64  -4.30c
iter:  13 00:23:35 -2797.015326c -5.91  -4.49c
iter:  14 00:24:02 -2797.015327c -6.17  -4.65c
iter:  15 00:24:29 -2797.015328c -6.55  -4.68c
iter:  16 00:24:56 -2797.015325c -6.91  -4.73c
iter:  17 00:25:23 -2797.015326c -7.09  -4.95c
iter:  18 00:25:50 -2797.015326c -7.33  -5.06c
iter:  19 00:26:16 -2797.015325c -7.74c -5.20c

Converged after 19 iterations.

Dipole moment: (-7.014406, -8.839571, -0.163513) |e|*Ang

Energy contributions relative to reference atoms: (reference = -1761048.611807)

Kinetic:       +638.729165
Potential:     -534.728890
External:        +0.000000
XC:            -2899.633020
Entropy (-ST):   -0.412207
Local:           -1.176476
--------------------------
Free energy:   -2797.221429
Extrapolated:  -2797.015325

Showing only first 2 kpts
 Kpt  Band  Eigenvalues  Occupancy
  0   217     -4.88081    1.87683
  0   218     -4.62617    1.08842
  0   219     -4.47903    0.43034
  0   220     -4.38105    0.18662

  1   217     -4.67197    1.30742
  1   218     -4.39525    0.21209
  1   219     -3.83077    0.00084
  1   220     -3.70064    0.00023


Fermi level: -4.60843

No gap

Forces in eV/Ang:
  0 Zn   -0.00153   -0.00089   -0.16764
  1 Zn   -0.04000   -0.02309    0.19630
  2 Zn   -0.00397   -0.00783    0.02264
  3 Zn   -0.00945    0.00636    0.03784
  4 Zn   -0.01420   -0.01604   -0.18523
  5 Zn   -0.01026    0.00271    0.17031
  6 Zn    0.01063    0.00614   -0.09470
  7 Zn   -0.06289   -0.03631   -0.07478
  8 Zn   -0.02100   -0.00428   -0.18523
  9 Zn   -0.00279   -0.01024    0.17031
 10 Zn   -0.00876    0.00048    0.02264
 11 Zn    0.00078   -0.01137    0.03784
 12 Zn   -0.00289   -0.02668   -0.16602
 13 Zn    0.02414   -0.00821    0.19423
 14 Zn    0.01102    0.00636   -0.02527
 15 Zn    0.01264    0.00729    0.02403
 16 Zn   -0.02455    0.01084   -0.16602
 17 Zn    0.00496    0.02501    0.19423
 18 Zn   -0.00336    0.00931    0.02209
 19 Zn   -0.01361    0.16864    0.34338
 20 Zn    0.00126    0.00073   -0.17896
 21 Zn   -0.03200   -0.01847    0.12110
 22 Zn    0.00639   -0.00757    0.02209
 23 Zn    0.13924   -0.09610    0.34338
 24 Zn    0.00108    0.02021   -0.16396
 25 Zn    0.01398    0.03508    0.11492
 26 Zn   -0.00460   -0.00078    0.02659
 27 Zn    0.00115    0.09410   -0.05365
 28 Zn    0.03793    0.02190   -0.18195
 29 Zn    0.00250    0.00144    0.14730
 30 Zn   -0.00298   -0.00360    0.02659
 31 Zn    0.08207   -0.04605   -0.05365
 32 Zn    0.01804   -0.00917   -0.16396
 33 Zn    0.03737   -0.00543    0.11492
 34 Zn   -0.00554   -0.00320   -0.04498
 35 Zn   -0.14997   -0.08659    0.32388
 36 O    -0.01171   -0.00676   -0.75241

BFGS:    5 00:26:29    -2797.015325        0.7525
System changes: positions 

Initializing position-dependent things.

Density initialized from wave functions
                                             
                                             
                                             
                                             
                         O                   
               Zn     Zn     Zn              
                 Zn     Zn     Zn            
                                             
           Zn     ZZn    ZZn     Zn          
                                             
             Zn     Zn     Zn                
               Zn     Zn     Zn              
              Zn     Zn     Zn               
                Zn     Zn     Zn             
                                             
          Zn     ZZn    ZZn     Zn           
                                             
            Zn     Zn     Zn                 
              Zn     Zn     Zn               
                                             
                                             
                                             
                                             

Positions:
   0 Zn     0.000000    0.000000   10.000000    ( 0.0000,  0.0000,  0.0000)
   1 Zn     1.414214    0.816497   12.309401    ( 0.0000,  0.0000,  0.0000)
   2 Zn     0.002346    1.622957   14.664165    ( 0.0000,  0.0000,  0.0000)
   3 Zn     1.412304    2.449079   17.082571    ( 0.0000,  0.0000,  0.0000)
   4 Zn    -1.414214    2.449490   10.000000    ( 0.0000,  0.0000,  0.0000)
   5 Zn     0.000000    3.265986   12.309401    ( 0.0000,  0.0000,  0.0000)
   6 Zn    -1.410608    4.084565   14.635261    ( 0.0000,  0.0000,  0.0000)
   7 Zn    -0.054939    4.867261   17.049793    ( 0.0000,  0.0000,  0.0000)
   8 Zn    -2.828427    4.898979   10.000000    ( 0.0000,  0.0000,  0.0000)
   9 Zn    -1.414214    5.715476   12.309401    ( 0.0000,  0.0000,  0.0000)
  10 Zn    -2.835946    6.539022   14.664165    ( 0.0000,  0.0000,  0.0000)
  11 Zn    -1.415524    7.347021   17.082571    ( 0.0000,  0.0000,  0.0000)
  12 Zn     2.828427    0.000000   10.000000    ( 0.0000,  0.0000,  0.0000)
  13 Zn     4.242641    0.816497   12.309401    ( 0.0000,  0.0000,  0.0000)
  14 Zn     2.831565    1.634805   14.640382    ( 0.0000,  0.0000,  0.0000)
  15 Zn     4.245024    2.450866   17.086702    ( 0.0000,  0.0000,  0.0000)
  16 Zn     1.414214    2.449490   10.000000    ( 0.0000,  0.0000,  0.0000)
  17 Zn     2.828427    3.265986   12.309401    ( 0.0000,  0.0000,  0.0000)
  18 Zn     1.416397    4.083878   14.665889    ( 0.0000,  0.0000,  0.0000)
  19 Zn     2.826491    4.691610   17.100540    ( 0.0000,  0.0000,  0.0000)
  20 Zn     0.000000    4.898979   10.000000    ( 0.0000,  0.0000,  0.0000)
  21 Zn     1.414214    5.715476   12.309401    ( 0.0000,  0.0000,  0.0000)
  22 Zn     0.002300    6.533166   14.665889    ( 0.0000,  0.0000,  0.0000)
  23 Zn     1.233658    7.450477   17.100540    ( 0.0000,  0.0000,  0.0000)
  24 Zn     5.656854    0.000000   10.000000    ( 0.0000,  0.0000,  0.0000)
  25 Zn     7.071068    0.816497   12.309401    ( 0.0000,  0.0000,  0.0000)
  26 Zn     5.651734    1.630621   14.661330    ( 0.0000,  0.0000,  0.0000)
  27 Zn     7.071755    2.510778   17.051158    ( 0.0000,  0.0000,  0.0000)
  28 Zn     4.242641    2.449490   10.000000    ( 0.0000,  0.0000,  0.0000)
  29 Zn     5.656854    3.265986   12.309401    ( 0.0000,  0.0000,  0.0000)
  30 Zn     4.238026    4.079234   14.661330    ( 0.0000,  0.0000,  0.0000)
  31 Zn     5.710275    4.868930   17.051158    ( 0.0000,  0.0000,  0.0000)
  32 Zn     2.828427    4.898979   10.000000    ( 0.0000,  0.0000,  0.0000)
  33 Zn     4.242641    5.715476   12.309401    ( 0.0000,  0.0000,  0.0000)
  34 Zn     2.832455    6.534298   14.600409    ( 0.0000,  0.0000,  0.0000)
  35 Zn     4.422097    7.452079   17.111269    ( 0.0000,  0.0000,  0.0000)
  36 O      2.828779    6.532176   17.912872    ( 0.0000,  0.0000,  0.0000)

Unit cell:
           periodic     x           y           z      points  spacing
  1. axis:    yes    8.485281    0.000000    0.000000    40     0.1837
  2. axis:    yes   -4.242641    7.348469    0.000000    40     0.1837
  3. axis:    no     0.000000    0.000000   26.928203   148     0.1819

  Lengths:   8.485281   8.485281  26.928203
  Angles:   90.000000  90.000000 120.000000

Effective grid spacing dv^(1/3) = 0.1921

     iter     time        total  log10-change:
                         energy  eigst   dens
iter:   1 00:27:29 -2797.234849  -1.24
iter:   2 00:27:56 -2797.081723  -1.77  -2.35
iter:   3 00:28:23 -2797.068347c -2.14  -2.72
iter:   4 00:28:50 -2797.056680c -2.59  -2.93
iter:   5 00:29:16 -2797.054542c -2.93  -3.10
iter:   6 00:29:43 -2797.055016c -3.23  -3.39
iter:   7 00:30:10 -2797.054963c -3.49  -3.45
iter:   8 00:30:36 -2797.055216c -3.70  -3.72
iter:   9 00:31:03 -2797.055357c -4.04  -3.83
iter:  10 00:31:30 -2797.055342c -4.51  -3.88
iter:  11 00:31:57 -2797.055362c -4.91  -4.04c
iter:  12 00:32:23 -2797.055366c -5.30  -4.15c
iter:  13 00:32:50 -2797.055372c -5.60  -4.31c
iter:  14 00:33:17 -2797.055374c -5.85  -4.45c
iter:  15 00:33:43 -2797.055377c -6.24  -4.51c
iter:  16 00:34:10 -2797.055375c -6.35  -4.66c
iter:  17 00:34:37 -2797.055376c -6.64  -4.81c
iter:  18 00:35:03 -2797.055376c -7.03  -4.99c
iter:  19 00:35:30 -2797.055376c -7.25  -5.09c
iter:  20 00:35:57 -2797.055376c -7.48c -5.19c

Converged after 20 iterations.

Dipole moment: (-7.822405, -9.575778, -0.144431) |e|*Ang

Energy contributions relative to reference atoms: (reference = -1761048.611807)

Kinetic:       +638.518637
Potential:     -534.552022
External:        +0.000000
XC:            -2899.642482
Entropy (-ST):   -0.411553
Local:           -1.173732
--------------------------
Free energy:   -2797.261153
Extrapolated:  -2797.055376

Showing only first 2 kpts
 Kpt  Band  Eigenvalues  Occupancy
  0   217     -4.85860    1.87167
  0   218     -4.61202    1.10667
  0   219     -4.46345    0.43798
  0   220     -4.36282    0.18594

  1   217     -4.64978    1.28751
  1   218     -4.36606    0.19148
  1   219     -3.80819    0.00080
  1   220     -3.67900    0.00022


Fermi level: -4.59061

No gap

Forces in eV/Ang:
  0 Zn   -0.00046   -0.00026   -0.16965
  1 Zn   -0.03685   -0.02128    0.19584
  2 Zn   -0.00894   -0.00458    0.02094
  3 Zn   -0.01180   -0.00416    0.03302
  4 Zn   -0.01581   -0.01289   -0.18589
  5 Zn   -0.00622   -0.00063    0.17836
  6 Zn    0.00276    0.00159   -0.12026
  7 Zn    0.01899    0.01097   -0.04894
  8 Zn   -0.01907   -0.00724   -0.18589
  9 Zn   -0.00366   -0.00507    0.17836
 10 Zn   -0.00844   -0.00545    0.02094
 11 Zn   -0.00950   -0.00814    0.03302
 12 Zn   -0.00274   -0.02527   -0.16657
 13 Zn    0.02398   -0.00829    0.19252
 14 Zn    0.00076    0.00044   -0.01075
 15 Zn    0.01111    0.00641    0.02579
 16 Zn   -0.02325    0.01026   -0.16657
 17 Zn    0.00481    0.02491    0.19252
 18 Zn    0.00180    0.00920    0.01585
 19 Zn    0.00152    0.34069    0.32356
 20 Zn   -0.00107   -0.00062   -0.17959
 21 Zn   -0.03984   -0.02300    0.11005
 22 Zn    0.00887   -0.00304    0.01585
 23 Zn    0.29580   -0.16903    0.32356
 24 Zn   -0.00065    0.02146   -0.16471
 25 Zn    0.01131    0.04674    0.10482
 26 Zn    0.01157   -0.00759    0.02082
 27 Zn   -0.00012   -0.01262   -0.04614
 28 Zn    0.03834    0.02213   -0.18151
 29 Zn   -0.00073   -0.00042    0.15523
 30 Zn   -0.00078    0.01382    0.02082
 31 Zn   -0.01099    0.00621   -0.04614
 32 Zn    0.01826   -0.01130   -0.16471
 33 Zn    0.04613   -0.01357    0.10482
 34 Zn   -0.01269   -0.00733    0.02504
 35 Zn   -0.27655   -0.15966    0.30415
 36 O    -0.09184   -0.05302   -0.70223

BFGS:    6 00:36:10    -2797.055376        0.7102
System changes: positions 

Initializing position-dependent things.

Density initialized from wave functions
                                             
                                             
                                             
                                             
                         O                   
               Zn     Zn     Zn              
                 Zn     Zn     Zn            
                                             
           Zn     ZZn    ZZn     Zn          
                                             
             Zn     Zn     Zn                
               Zn     Zn     Zn              
              Zn     Zn     Zn               
                Zn     Zn     Zn             
                                             
          Zn     ZZn    ZZn     Zn           
                                             
            Zn     Zn     Zn                 
              Zn     Zn     Zn               
                                             
                                             
                                             
                                             

Positions:
   0 Zn     0.000000    0.000000   10.000000    ( 0.0000,  0.0000,  0.0000)
   1 Zn     1.414214    0.816497   12.309401    ( 0.0000,  0.0000,  0.0000)
   2 Zn     0.002564    1.621291   14.668124    ( 0.0000,  0.0000,  0.0000)
   3 Zn     1.411419    2.450096   17.087730    ( 0.0000,  0.0000,  0.0000)
   4 Zn    -1.414214    2.449490   10.000000    ( 0.0000,  0.0000,  0.0000)
   5 Zn     0.000000    3.265986   12.309401    ( 0.0000,  0.0000,  0.0000)
   6 Zn    -1.408733    4.085647   14.624263    ( 0.0000,  0.0000,  0.0000)
   7 Zn    -0.071797    4.857527   17.036515    ( 0.0000,  0.0000,  0.0000)
   8 Zn    -2.828427    4.898979   10.000000    ( 0.0000,  0.0000,  0.0000)
   9 Zn    -1.414214    5.715476   12.309401    ( 0.0000,  0.0000,  0.0000)
  10 Zn    -2.837279    6.540044   14.668124    ( 0.0000,  0.0000,  0.0000)
  11 Zn    -1.415086    7.345746   17.087730    ( 0.0000,  0.0000,  0.0000)
  12 Zn     2.828427    0.000000   10.000000    ( 0.0000,  0.0000,  0.0000)
  13 Zn     4.242641    0.816497   12.309401    ( 0.0000,  0.0000,  0.0000)
  14 Zn     2.833752    1.636068   14.636875    ( 0.0000,  0.0000,  0.0000)
  15 Zn     4.246554    2.451749   17.089423    ( 0.0000,  0.0000,  0.0000)
  16 Zn     1.414214    2.449490   10.000000    ( 0.0000,  0.0000,  0.0000)
  17 Zn     2.828427    3.265986   12.309401    ( 0.0000,  0.0000,  0.0000)
  18 Zn     1.416175    4.084990   14.670075    ( 0.0000,  0.0000,  0.0000)
  19 Zn     2.824725    4.667166   17.136623    ( 0.0000,  0.0000,  0.0000)
  20 Zn     0.000000    4.898979   10.000000    ( 0.0000,  0.0000,  0.0000)
  21 Zn     1.414214    5.715476   12.309401    ( 0.0000,  0.0000,  0.0000)
  22 Zn     0.003152    6.532418   14.670075    ( 0.0000,  0.0000,  0.0000)
  23 Zn     1.211606    7.461170   17.136623    ( 0.0000,  0.0000,  0.0000)
  24 Zn     5.656854    0.000000   10.000000    ( 0.0000,  0.0000,  0.0000)
  25 Zn     7.071068    0.816497   12.309401    ( 0.0000,  0.0000,  0.0000)
  26 Zn     5.649550    1.630571   14.666162    ( 0.0000,  0.0000,  0.0000)
  27 Zn     7.071673    2.530727   17.042993    ( 0.0000,  0.0000,  0.0000)
  28 Zn     4.242641    2.449490   10.000000    ( 0.0000,  0.0000,  0.0000)
  29 Zn     5.656854    3.265986   12.309401    ( 0.0000,  0.0000,  0.0000)
  30 Zn     4.236890    4.077368   14.666162    ( 0.0000,  0.0000,  0.0000)
  31 Zn     5.727511    4.858885   17.042993    ( 0.0000,  0.0000,  0.0000)
  32 Zn     2.828427    4.898979   10.000000    ( 0.0000,  0.0000,  0.0000)
  33 Zn     4.242641    5.715476   12.309401    ( 0.0000,  0.0000,  0.0000)
  34 Zn     2.832097    6.534092   14.586237    ( 0.0000,  0.0000,  0.0000)
  35 Zn     4.440532    7.462722   17.143388    ( 0.0000,  0.0000,  0.0000)
  36 O      2.830103    6.532940   17.853261    ( 0.0000,  0.0000,  0.0000)

Unit cell:
           periodic     x           y           z      points  spacing
  1. axis:    yes    8.485281    0.000000    0.000000    40     0.1837
  2. axis:    yes   -4.242641    7.348469    0.000000    40     0.1837
  3. axis:    no     0.000000    0.000000   26.928203   148     0.1819

  Lengths:   8.485281   8.485281  26.928203
  Angles:   90.000000  90.000000 120.000000

Effective grid spacing dv^(1/3) = 0.1921

     iter     time        total  log10-change:
                         energy  eigst   dens
iter:   1 00:37:10 -2797.230017  -1.20
iter:   2 00:37:36 -2797.113306  -1.73  -2.41
iter:   3 00:38:03 -2797.103884c -2.11  -2.75
iter:   4 00:38:30 -2797.098407c -2.53  -3.00
iter:   5 00:38:56 -2797.097238c -2.89  -3.11
iter:   6 00:39:23 -2797.098167c -3.16  -3.38
iter:   7 00:39:50 -2797.097836c -3.53  -3.43
iter:   8 00:40:16 -2797.098010c -3.73  -3.69
iter:   9 00:40:43 -2797.098114c -4.02  -3.86
iter:  10 00:41:10 -2797.098128c -4.38  -3.96
iter:  11 00:41:36 -2797.098183c -4.68  -4.12c
iter:  12 00:42:03 -2797.098197c -5.06  -4.23c
iter:  13 00:42:30 -2797.098209c -5.43  -4.30c
iter:  14 00:42:56 -2797.098207c -5.68  -4.43c
iter:  15 00:43:23 -2797.098207c -6.00  -4.62c
iter:  16 00:43:50 -2797.098208c -6.30  -4.68c
iter:  17 00:44:16 -2797.098208c -6.71  -4.82c
iter:  18 00:44:43 -2797.098207c -7.05  -5.00c
iter:  19 00:45:10 -2797.098207c -7.38  -5.07c
iter:  20 00:45:37 -2797.098207c -7.68c -5.13c

Converged after 20 iterations.

Dipole moment: (-8.431294, -9.990680, -0.113658) |e|*Ang

Energy contributions relative to reference atoms: (reference = -1761048.611807)

Kinetic:       +639.189861
Potential:     -535.102043
External:        +0.000000
XC:            -2899.803792
Entropy (-ST):   -0.411667
Local:           -1.176398
--------------------------
Free energy:   -2797.304040
Extrapolated:  -2797.098207

Showing only first 2 kpts
 Kpt  Band  Eigenvalues  Occupancy
  0   217     -4.82591    1.86774
  0   218     -4.58485    1.11803
  0   219     -4.44002    0.45901
  0   220     -4.33290    0.18519

  1   217     -4.61810    1.27737
  1   218     -4.33103    0.18207
  1   219     -3.77020    0.00073
  1   220     -3.64808    0.00022


Fermi level: -4.56113

No gap

Forces in eV/Ang:
  0 Zn    0.00100    0.00058   -0.17097
  1 Zn   -0.03331   -0.01923    0.19474
  2 Zn   -0.01082   -0.00130    0.02131
  3 Zn   -0.01107   -0.01616    0.02756
  4 Zn   -0.01708   -0.00900   -0.18557
  5 Zn   -0.00173   -0.00403    0.18314
  6 Zn   -0.00731   -0.00422   -0.13221
  7 Zn    0.09025    0.05210   -0.03325
  8 Zn   -0.01633   -0.01030   -0.18557
  9 Zn   -0.00435    0.00052    0.18314
 10 Zn   -0.00654   -0.00872    0.02131
 11 Zn   -0.01952   -0.00151    0.02756
 12 Zn   -0.00264   -0.02253   -0.16665
 13 Zn    0.02322   -0.00793    0.19028
 14 Zn   -0.00860   -0.00497    0.01177
 15 Zn    0.00647    0.00374    0.02625
 16 Zn   -0.02083    0.00898   -0.16665
 17 Zn    0.00474    0.02407    0.19028
 18 Zn    0.00816    0.00590    0.01241
 19 Zn    0.01326    0.34583    0.24154
 20 Zn   -0.00423   -0.00244   -0.17916
 21 Zn   -0.04731   -0.02731    0.09899
 22 Zn    0.00919    0.00412    0.01241
 23 Zn    0.30613   -0.16143    0.24154
 24 Zn   -0.00259    0.02283   -0.16463
 25 Zn    0.00894    0.05741    0.09505
 26 Zn    0.02320   -0.01339    0.01764
 27 Zn   -0.00429   -0.11968   -0.03409
 28 Zn    0.03729    0.02153   -0.18075
 29 Zn   -0.00455   -0.00263    0.16054
 30 Zn    0.00000    0.02679    0.01764
 31 Zn   -0.10579    0.05613   -0.03409
 32 Zn    0.01847   -0.01366   -0.16463
 33 Zn    0.05419   -0.02097    0.09505
 34 Zn   -0.01855   -0.01071    0.07447
 35 Zn   -0.25784   -0.14886    0.23259
 36 O    -0.02020   -0.01166   -0.51553

BFGS:    7 00:45:49    -2797.098207        0.5161
System changes: positions 

Initializing position-dependent things.

Density initialized from wave functions
                                             
                                             
                                             
                                             
               Zn     Zn O   Zn              
                                             
                 Zn     Zn     Zn            
                   Zn     Zn     Zn          
           Zn     Zn     Zn                  
             Zn     Zn     Zn                
                                             
              ZZn    ZZn    ZZn              
                                             
                Zn     Zn     Zn             
          Zn     ZZn    ZZn     Zn           
                                             
            Zn     Zn     Zn                 
              Zn     Zn     Zn               
                                             
                                             
                                             
                                             

Positions:
   0 Zn     0.000000    0.000000   10.000000    ( 0.0000,  0.0000,  0.0000)
   1 Zn     1.414214    0.816497   12.309401    ( 0.0000,  0.0000,  0.0000)
   2 Zn     0.002463    1.619868   14.672038    ( 0.0000,  0.0000,  0.0000)
   3 Zn     1.410330    2.450654   17.092964    ( 0.0000,  0.0000,  0.0000)
   4 Zn    -1.414214    2.449490   10.000000    ( 0.0000,  0.0000,  0.0000)
   5 Zn     0.000000    3.265986   12.309401    ( 0.0000,  0.0000,  0.0000)
   6 Zn    -1.407285    4.086483   14.611310    ( 0.0000,  0.0000,  0.0000)
   7 Zn    -0.084274    4.850324   17.024011    ( 0.0000,  0.0000,  0.0000)
   8 Zn    -2.828427    4.898979   10.000000    ( 0.0000,  0.0000,  0.0000)
   9 Zn    -1.414214    5.715476   12.309401    ( 0.0000,  0.0000,  0.0000)
  10 Zn    -2.838562    6.540669   14.672038    ( 0.0000,  0.0000,  0.0000)
  11 Zn    -1.415147    7.344524   17.092964    ( 0.0000,  0.0000,  0.0000)
  12 Zn     2.828427    0.000000   10.000000    ( 0.0000,  0.0000,  0.0000)
  13 Zn     4.242641    0.816497   12.309401    ( 0.0000,  0.0000,  0.0000)
  14 Zn     2.835459    1.637053   14.634007    ( 0.0000,  0.0000,  0.0000)
  15 Zn     4.248100    2.452642   17.092484    ( 0.0000,  0.0000,  0.0000)
  16 Zn     1.414214    2.449490   10.000000    ( 0.0000,  0.0000,  0.0000)
  17 Zn     2.828427    3.265986   12.309401    ( 0.0000,  0.0000,  0.0000)
  18 Zn     1.416110    4.086085   14.673973    ( 0.0000,  0.0000,  0.0000)
  19 Zn     2.823365    4.659277   17.176545    ( 0.0000,  0.0000,  0.0000)
  20 Zn     0.000000    4.898979   10.000000    ( 0.0000,  0.0000,  0.0000)
  21 Zn     1.414214    5.715476   12.309401    ( 0.0000,  0.0000,  0.0000)
  22 Zn     0.004068    6.531814   14.673973    ( 0.0000,  0.0000,  0.0000)
  23 Zn     1.204095    7.463936   17.176545    ( 0.0000,  0.0000,  0.0000)
  24 Zn     5.656854    0.000000   10.000000    ( 0.0000,  0.0000,  0.0000)
  25 Zn     7.071068    0.816497   12.309401    ( 0.0000,  0.0000,  0.0000)
  26 Zn     5.648223    1.630268   14.670750    ( 0.0000,  0.0000,  0.0000)
  27 Zn     7.071506    2.545018   17.035066    ( 0.0000,  0.0000,  0.0000)
  28 Zn     4.242641    2.449490   10.000000    ( 0.0000,  0.0000,  0.0000)
  29 Zn     5.656854    3.265986   12.309401    ( 0.0000,  0.0000,  0.0000)
  30 Zn     4.235965    4.076371   14.670750    ( 0.0000,  0.0000,  0.0000)
  31 Zn     5.739803    4.851595   17.035066    ( 0.0000,  0.0000,  0.0000)
  32 Zn     2.828427    4.898979   10.000000    ( 0.0000,  0.0000,  0.0000)
  33 Zn     4.242641    5.715476   12.309401    ( 0.0000,  0.0000,  0.0000)
  34 Zn     2.831337    6.533653   14.576000    ( 0.0000,  0.0000,  0.0000)
  35 Zn     4.445459    7.465566   17.179572    ( 0.0000,  0.0000,  0.0000)
  36 O      2.832516    6.534333   17.781620    ( 0.0000,  0.0000,  0.0000)

Unit cell:
           periodic     x           y           z      points  spacing
  1. axis:    yes    8.485281    0.000000    0.000000    40     0.1837
  2. axis:    yes   -4.242641    7.348469    0.000000    40     0.1837
  3. axis:    no     0.000000    0.000000   26.928203   148     0.1819

  Lengths:   8.485281   8.485281  26.928203
  Angles:   90.000000  90.000000 120.000000

Effective grid spacing dv^(1/3) = 0.1921

     iter     time        total  log10-change:
                         energy  eigst   dens
iter:   1 00:46:49 -2797.204629  -1.16
iter:   2 00:47:16 -2797.149597  -1.74  -2.55
iter:   3 00:47:43 -2797.139620c -2.16  -2.81
iter:   4 00:48:09 -2797.132629c -2.50  -3.03
iter:   5 00:48:36 -2797.131239c -2.78  -3.10
iter:   6 00:49:03 -2797.131819c -3.04  -3.33
iter:   7 00:49:30 -2797.131476c -3.28  -3.39
iter:   8 00:49:57 -2797.131756c -3.53  -3.78
iter:   9 00:50:24 -2797.131968c -3.84  -3.88
iter:  10 00:50:50 -2797.132043c -4.20  -3.89
iter:  11 00:51:17 -2797.132142c -4.46  -4.03c
iter:  12 00:51:44 -2797.132162c -4.81  -4.16c
iter:  13 00:52:11 -2797.132148c -5.09  -4.20c
iter:  14 00:52:37 -2797.132142c -5.32  -4.38c
iter:  15 00:53:04 -2797.132143c -5.55  -4.47c
iter:  16 00:53:31 -2797.132146c -5.84  -4.60c
iter:  17 00:53:57 -2797.132149c -6.29  -4.68c
iter:  18 00:54:24 -2797.132151c -6.55  -4.80c
iter:  19 00:54:51 -2797.132151c -6.96  -4.98c
iter:  20 00:55:18 -2797.132150c -7.24  -5.13c
iter:  21 00:55:44 -2797.132151c -7.77c -5.33c

Converged after 21 iterations.

Dipole moment: (-8.822234, -10.054627, -0.071856) |e|*Ang

Energy contributions relative to reference atoms: (reference = -1761048.611807)

Kinetic:       +640.690423
Potential:     -536.350562
External:        +0.000000
XC:            -2900.090869
Entropy (-ST):   -0.412117
Local:           -1.175085
--------------------------
Free energy:   -2797.338209
Extrapolated:  -2797.132151

Showing only first 2 kpts
 Kpt  Band  Eigenvalues  Occupancy
  0   217     -4.78447    1.86582
  0   218     -4.54556    1.12103
  0   219     -4.40829    0.48850
  0   220     -4.29225    0.18392

  1   217     -4.57644    1.26922
  1   218     -4.29142    0.18255
  1   219     -3.71901    0.00066
  1   220     -3.60961    0.00022


Fermi level: -4.52124

No gap

Forces in eV/Ang:
  0 Zn    0.00323    0.00186   -0.17238
  1 Zn   -0.03030   -0.01750    0.19418
  2 Zn   -0.00994   -0.00069    0.02357
  3 Zn   -0.00368   -0.02682    0.02023
  4 Zn   -0.01798   -0.00375   -0.18555
  5 Zn    0.00379   -0.00786    0.18414
  6 Zn   -0.01758   -0.01015   -0.12576
  7 Zn    0.15281    0.08823   -0.02234
  8 Zn   -0.01224   -0.01369   -0.18555
  9 Zn   -0.00491    0.00722    0.18414
 10 Zn   -0.00557   -0.00826    0.02357
 11 Zn   -0.02507    0.01022    0.02023
 12 Zn   -0.00263   -0.01876   -0.16747
 13 Zn    0.02260   -0.00743    0.18887
 14 Zn   -0.01556   -0.00899    0.04129
 15 Zn   -0.00303   -0.00175    0.02333
 16 Zn   -0.01756    0.00711   -0.16747
 17 Zn    0.00486    0.02329    0.18887
 18 Zn    0.01695    0.00157    0.01213
 19 Zn    0.00903    0.14993    0.11324
 20 Zn   -0.00872   -0.00503   -0.17874
 21 Zn   -0.05337   -0.03082    0.09032
 22 Zn    0.00983    0.01389    0.01213
 23 Zn    0.13436   -0.06714    0.11324
 24 Zn   -0.00515    0.02448   -0.16471
 25 Zn    0.00703    0.06597    0.08823
 26 Zn    0.03029   -0.01996    0.01717
 27 Zn   -0.00634   -0.20010   -0.02364
 28 Zn    0.03497    0.02019   -0.18101
 29 Zn   -0.00949   -0.00548    0.16273
 30 Zn   -0.00214    0.03621    0.01717
 31 Zn   -0.17646    0.09456   -0.02364
 32 Zn    0.01862   -0.01670   -0.16471
 33 Zn    0.06065   -0.02689    0.08823
 34 Zn   -0.02065   -0.01192    0.09167
 35 Zn   -0.03716   -0.02146    0.08973
 36 O    -0.08364   -0.04829   -0.15832

BFGS:    8 00:55:57    -2797.132151        0.2016
System changes: positions 

Initializing position-dependent things.

Density initialized from wave functions
                                             
                                             
                                             
                                             
               Zn     Zn O   Zn              
                                             
                 Zn     Zn     Zn            
                   Zn     Zn     Zn          
           Zn     Zn     Zn                  
             Zn     Zn     Zn                
                                             
              ZZn    ZZn    ZZn              
                                             
                Zn     Zn     Zn             
          Zn     ZZn    ZZn     Zn           
                                             
            Zn     Zn     Zn                 
              Zn     Zn     Zn               
                                             
                                             
                                             
                                             

Positions:
   0 Zn     0.000000    0.000000   10.000000    ( 0.0000,  0.0000,  0.0000)
   1 Zn     1.414214    0.816497   12.309401    ( 0.0000,  0.0000,  0.0000)
   2 Zn     0.002195    1.619708   14.672993    ( 0.0000,  0.0000,  0.0000)
   3 Zn     1.410046    2.450228   17.094145    ( 0.0000,  0.0000,  0.0000)
   4 Zn    -1.414214    2.449490   10.000000    ( 0.0000,  0.0000,  0.0000)
   5 Zn     0.000000    3.265986   12.309401    ( 0.0000,  0.0000,  0.0000)
   6 Zn    -1.407445    4.086391   14.606748    ( 0.0000,  0.0000,  0.0000)
   7 Zn    -0.082625    4.851276   17.021883    ( 0.0000,  0.0000,  0.0000)
   8 Zn    -2.828427    4.898979   10.000000    ( 0.0000,  0.0000,  0.0000)
   9 Zn    -1.414214    5.715476   12.309401    ( 0.0000,  0.0000,  0.0000)
  10 Zn    -2.838835    6.540516   14.672993    ( 0.0000,  0.0000,  0.0000)
  11 Zn    -1.415657    7.344491   17.094145    ( 0.0000,  0.0000,  0.0000)
  12 Zn     2.828427    0.000000   10.000000    ( 0.0000,  0.0000,  0.0000)
  13 Zn     4.242641    0.816497   12.309401    ( 0.0000,  0.0000,  0.0000)
  14 Zn     2.835363    1.636997   14.634345    ( 0.0000,  0.0000,  0.0000)
  15 Zn     4.248309    2.452762   17.093435    ( 0.0000,  0.0000,  0.0000)
  16 Zn     1.414214    2.449490   10.000000    ( 0.0000,  0.0000,  0.0000)
  17 Zn     2.828427    3.265986   12.309401    ( 0.0000,  0.0000,  0.0000)
  18 Zn     1.416389    4.086280   14.674684    ( 0.0000,  0.0000,  0.0000)
  19 Zn     2.823302    4.666285   17.186482    ( 0.0000,  0.0000,  0.0000)
  20 Zn     0.000000    4.898979   10.000000    ( 0.0000,  0.0000,  0.0000)
  21 Zn     1.414214    5.715476   12.309401    ( 0.0000,  0.0000,  0.0000)
  22 Zn     0.004376    6.531958   14.674684    ( 0.0000,  0.0000,  0.0000)
[...]
  14 Zn     2.832390    1.635281   14.678532    ( 0.0000,  0.0000,  0.0000)
  15 Zn     4.252831    2.455373   17.124042    ( 0.0000,  0.0000,  0.0000)
  16 Zn     1.414214    2.449490   10.000000    ( 0.0000,  0.0000,  0.0000)
  17 Zn     2.828427    3.265986   12.309401    ( 0.0000,  0.0000,  0.0000)
  18 Zn     1.426764    4.079274   14.680909    ( 0.0000,  0.0000,  0.0000)
  19 Zn     2.820373    4.630336   17.274317    ( 0.0000,  0.0000,  0.0000)
  20 Zn     0.000000    4.898979   10.000000    ( 0.0000,  0.0000,  0.0000)
  21 Zn     1.414214    5.715476   12.309401    ( 0.0000,  0.0000,  0.0000)
  22 Zn     0.003496    6.544446   14.680909    ( 0.0000,  0.0000,  0.0000)
  23 Zn     1.177534    7.475816   17.274317    ( 0.0000,  0.0000,  0.0000)
  24 Zn     5.656854    0.000000   10.000000    ( 0.0000,  0.0000,  0.0000)
  25 Zn     7.071068    0.816497   12.309401    ( 0.0000,  0.0000,  0.0000)
  26 Zn     5.654565    1.617412   14.683166    ( 0.0000,  0.0000,  0.0000)
  27 Zn     7.078377    2.515462   16.996668    ( 0.0000,  0.0000,  0.0000)
  28 Zn     4.242641    2.449490   10.000000    ( 0.0000,  0.0000,  0.0000)
  29 Zn     5.656854    3.265986   12.309401    ( 0.0000,  0.0000,  0.0000)
  30 Zn     4.228002    4.088291   14.683166    ( 0.0000,  0.0000,  0.0000)
  31 Zn     5.717643    4.872324   16.996668    ( 0.0000,  0.0000,  0.0000)
  32 Zn     2.828427    4.898979   10.000000    ( 0.0000,  0.0000,  0.0000)
  33 Zn     4.242641    5.715476   12.309401    ( 0.0000,  0.0000,  0.0000)
  34 Zn     2.825845    6.530482   14.641472    ( 0.0000,  0.0000,  0.0000)
  35 Zn     4.448288    7.467200   17.256049    ( 0.0000,  0.0000,  0.0000)
  36 O      2.809993    6.521330   17.744936    ( 0.0000,  0.0000,  0.0000)

Unit cell:
           periodic     x           y           z      points  spacing
  1. axis:    yes    8.485281    0.000000    0.000000    40     0.1837
  2. axis:    yes   -4.242641    7.348469    0.000000    40     0.1837
  3. axis:    no     0.000000    0.000000   26.928203   148     0.1819

  Lengths:   8.485281   8.485281  26.928203
  Angles:   90.000000  90.000000 120.000000

Effective grid spacing dv^(1/3) = 0.1921

     iter     time        total  log10-change:
                         energy  eigst   dens
iter:   1 02:48:35 -2797.167998  -3.85
iter:   2 02:49:01 -2797.167955  -4.32  -4.01c
iter:   3 02:49:28 -2797.167941c -4.81  -4.18c
iter:   4 02:49:54 -2797.167923c -5.26  -4.36c
iter:   5 02:50:21 -2797.167925c -5.63  -4.52c
iter:   6 02:50:47 -2797.167926c -5.90  -4.75c
iter:   7 02:51:14 -2797.167925c -6.17  -4.83c
iter:   8 02:51:40 -2797.167925c -6.46  -5.10c
iter:   9 02:52:07 -2797.167924c -6.92  -5.16c
iter:  10 02:52:33 -2797.167924c -7.22  -5.32c
iter:  11 02:53:00 -2797.167925c -7.53c -5.40c

Converged after 11 iterations.

Dipole moment: (-8.362811, -10.222473, -0.029651) |e|*Ang

Energy contributions relative to reference atoms: (reference = -1761048.611807)

Kinetic:       +640.373460
Potential:     -536.243169
External:        +0.000000
XC:            -2899.913114
Entropy (-ST):   -0.412504
Local:           -1.178850
--------------------------
Free energy:   -2797.374177
Extrapolated:  -2797.167925

Showing only first 2 kpts
 Kpt  Band  Eigenvalues  Occupancy
  0   217     -4.74515    1.86851
  0   218     -4.49219    1.06213
  0   219     -4.38364    0.55334
  0   220     -4.24744    0.17846

  1   217     -4.52339    1.21481
  1   218     -4.25953    0.19910
  1   219     -3.67904    0.00067
  1   220     -3.57595    0.00024


Fermi level: -4.47975

No gap

Forces in eV/Ang:
  0 Zn    0.00175    0.00101   -0.17552
  1 Zn   -0.02157   -0.01245    0.22063
  2 Zn   -0.00125   -0.00601   -0.00416
  3 Zn   -0.00406   -0.00790    0.00654
  4 Zn   -0.01683    0.00377   -0.18612
  5 Zn    0.02317   -0.01570    0.18423
  6 Zn    0.01562    0.00902   -0.01398
  7 Zn    0.00972    0.00561   -0.00644
  8 Zn   -0.00515   -0.01646   -0.18612
  9 Zn   -0.00201    0.02792    0.18423
 10 Zn   -0.00583    0.00192   -0.00416
 11 Zn   -0.00888    0.00043    0.00654
 12 Zn   -0.00551   -0.00958   -0.16932
 13 Zn    0.01068    0.00682    0.21725
 14 Zn   -0.00162   -0.00094    0.00063
 15 Zn    0.00573    0.00331    0.01882
 16 Zn   -0.01105    0.00002   -0.16932
 17 Zn    0.01124    0.00584    0.21725
 18 Zn   -0.00632    0.01064    0.00090
 19 Zn   -0.00555    0.02498    0.01491
 20 Zn   -0.01650   -0.00953   -0.17711
 21 Zn   -0.03107   -0.01794    0.12333
 22 Zn    0.00606   -0.01080    0.00090
 23 Zn    0.01886   -0.01730    0.01491
 24 Zn   -0.00091    0.02358   -0.16589
 25 Zn    0.00898    0.03240    0.11629
 26 Zn   -0.01029   -0.00241    0.00412
 27 Zn   -0.00921   -0.01692    0.00385
 28 Zn    0.02787    0.01609   -0.18101
 29 Zn   -0.04160   -0.02402    0.15694
 30 Zn   -0.00723   -0.00770    0.00412
 31 Zn   -0.01925    0.00048    0.00385
 32 Zn    0.01997   -0.01258   -0.16589
 33 Zn    0.03255   -0.00842    0.11629
 34 Zn    0.00206    0.00119   -0.01215
 35 Zn   -0.00354   -0.00205    0.00347
 36 O     0.05859    0.03383    0.03307

BFGS:   23 02:53:12    -2797.167925        0.0753
System changes: positions 

Initializing position-dependent things.

Density initialized from wave functions
                                             
                                             
                                             
                                             
               Zn    Zn  O   Zn              
                                             
                 Zn     Zn     Zn            
                   Zn     Zn                 
           Zn     Zn     Zn      Zn          
             Zn     Zn     Zn                
                                             
              ZZn    ZZn    ZZn              
                                             
                Zn     Zn     Zn             
          Zn     ZZn    ZZn     Zn           
                                             
            Zn     Zn     Zn                 
              Zn     Zn     Zn               
                                             
                                             
                                             
                                             

Positions:
   0 Zn     0.000000    0.000000   10.000000    ( 0.0000,  0.0000,  0.0000)
   1 Zn     1.414214    0.816497   12.309401    ( 0.0000,  0.0000,  0.0000)
   2 Zn     0.004370    1.614714   14.679750    ( 0.0000,  0.0000,  0.0000)
   3 Zn     1.402484    2.441989   17.119149    ( 0.0000,  0.0000,  0.0000)
   4 Zn    -1.414214    2.449490   10.000000    ( 0.0000,  0.0000,  0.0000)
   5 Zn     0.000000    3.265986   12.309401    ( 0.0000,  0.0000,  0.0000)
   6 Zn    -1.424355    4.076628   14.570077    ( 0.0000,  0.0000,  0.0000)
   7 Zn    -0.057253    4.865924   16.980326    ( 0.0000,  0.0000,  0.0000)
   8 Zn    -2.828427    4.898979   10.000000    ( 0.0000,  0.0000,  0.0000)
   9 Zn    -1.414214    5.715476   12.309401    ( 0.0000,  0.0000,  0.0000)
  10 Zn    -2.842072    6.544897   14.679750    ( 0.0000,  0.0000,  0.0000)
  11 Zn    -1.426574    7.342062   17.119149    ( 0.0000,  0.0000,  0.0000)
  12 Zn     2.828427    0.000000   10.000000    ( 0.0000,  0.0000,  0.0000)
  13 Zn     4.242641    0.816497   12.309401    ( 0.0000,  0.0000,  0.0000)
  14 Zn     2.832153    1.635144   14.680015    ( 0.0000,  0.0000,  0.0000)
  15 Zn     4.253796    2.455930   17.127114    ( 0.0000,  0.0000,  0.0000)
  16 Zn     1.414214    2.449490   10.000000    ( 0.0000,  0.0000,  0.0000)
  17 Zn     2.828427    3.265986   12.309401    ( 0.0000,  0.0000,  0.0000)
  18 Zn     1.426203    4.080352   14.680927    ( 0.0000,  0.0000,  0.0000)
  19 Zn     2.819725    4.632005   17.277542    ( 0.0000,  0.0000,  0.0000)
  20 Zn     0.000000    4.898979   10.000000    ( 0.0000,  0.0000,  0.0000)
  21 Zn     1.414214    5.715476   12.309401    ( 0.0000,  0.0000,  0.0000)
  22 Zn     0.004149    6.543421   14.680927    ( 0.0000,  0.0000,  0.0000)
  23 Zn     1.178656    7.474421   17.277542    ( 0.0000,  0.0000,  0.0000)
  24 Zn     5.656854    0.000000   10.000000    ( 0.0000,  0.0000,  0.0000)
  25 Zn     7.071068    0.816497   12.309401    ( 0.0000,  0.0000,  0.0000)
  26 Zn     5.653401    1.616787   14.683739    ( 0.0000,  0.0000,  0.0000)
  27 Zn     7.077764    2.514063   16.996069    ( 0.0000,  0.0000,  0.0000)
  28 Zn     4.242641    2.449490   10.000000    ( 0.0000,  0.0000,  0.0000)
  29 Zn     5.656854    3.265986   12.309401    ( 0.0000,  0.0000,  0.0000)
  30 Zn     4.226879    4.087595   14.683739    ( 0.0000,  0.0000,  0.0000)
  31 Zn     5.716125    4.872492   16.996069    ( 0.0000,  0.0000,  0.0000)
  32 Zn     2.828427    4.898979   10.000000    ( 0.0000,  0.0000,  0.0000)
  33 Zn     4.242641    5.715476   12.309401    ( 0.0000,  0.0000,  0.0000)
  34 Zn     2.825972    6.530555   14.642136    ( 0.0000,  0.0000,  0.0000)
  35 Zn     4.451851    7.469257   17.256675    ( 0.0000,  0.0000,  0.0000)
  36 O      2.812251    6.522633   17.750514    ( 0.0000,  0.0000,  0.0000)

Unit cell:
           periodic     x           y           z      points  spacing
  1. axis:    yes    8.485281    0.000000    0.000000    40     0.1837
  2. axis:    yes   -4.242641    7.348469    0.000000    40     0.1837
  3. axis:    no     0.000000    0.000000   26.928203   148     0.1819

  Lengths:   8.485281   8.485281  26.928203
  Angles:   90.000000  90.000000 120.000000

Effective grid spacing dv^(1/3) = 0.1921

     iter     time        total  log10-change:
                         energy  eigst   dens
iter:   1 02:54:12 -2797.169516  -3.04
iter:   2 02:54:39 -2797.168719  -3.52  -3.47
iter:   3 02:55:05 -2797.168703c -3.91  -3.76
iter:   4 02:55:32 -2797.168498c -4.38  -3.85
iter:   5 02:55:59 -2797.168495c -4.77  -4.13c
iter:   6 02:56:25 -2797.168501c -5.05  -4.34c
iter:   7 02:56:52 -2797.168498c -5.39  -4.38c
iter:   8 02:57:19 -2797.168500c -5.49  -4.58c
iter:   9 02:57:45 -2797.168500c -5.78  -4.69c
iter:  10 02:58:12 -2797.168499c -6.15  -4.77c
iter:  11 02:58:39 -2797.168500c -6.53  -4.92c
iter:  12 02:59:05 -2797.168501c -6.86  -5.12c
iter:  13 02:59:32 -2797.168501c -7.18  -5.21c
iter:  14 02:59:59 -2797.168502c -7.47c -5.25c

Converged after 14 iterations.

Dipole moment: (-8.326677, -10.234613, -0.030760) |e|*Ang

Energy contributions relative to reference atoms: (reference = -1761048.611807)

Kinetic:       +640.240500
Potential:     -536.143737
External:        +0.000000
XC:            -2899.880120
Entropy (-ST):   -0.412431
Local:           -1.178930
--------------------------
Free energy:   -2797.374718
Extrapolated:  -2797.168502

Showing only first 2 kpts
 Kpt  Band  Eigenvalues  Occupancy
  0   217     -4.74662    1.86880
  0   218     -4.49244    1.05724
  0   219     -4.38501    0.55386
  0   220     -4.24808    0.17749

  1   217     -4.52478    1.21556
  1   218     -4.26020    0.19809
  1   219     -3.68015    0.00067
  1   220     -3.57733    0.00024


Fermi level: -4.48098

No gap

Forces in eV/Ang:
  0 Zn    0.00181    0.00104   -0.17584
  1 Zn   -0.02101   -0.01213    0.22004
  2 Zn   -0.00316   -0.00249   -0.00459
  3 Zn    0.00674    0.01548    0.00660
  4 Zn   -0.01648    0.00315   -0.18629
  5 Zn    0.02386   -0.01672    0.18335
  6 Zn    0.00948    0.00548   -0.00837
  7 Zn    0.00499    0.00288   -0.00311
  8 Zn   -0.00551   -0.01584   -0.18629
  9 Zn   -0.00255    0.02902    0.18335
 10 Zn   -0.00374   -0.00149   -0.00459
 11 Zn    0.01678   -0.00190    0.00660
 12 Zn   -0.00570   -0.00963   -0.16977
 13 Zn    0.01044    0.00711    0.21855
 14 Zn   -0.00159   -0.00092   -0.00045
 15 Zn    0.00250    0.00144    0.01865
 16 Zn   -0.01119   -0.00012   -0.16977
 17 Zn    0.01137    0.00549    0.21855
 18 Zn   -0.00336    0.00617    0.00143
 19 Zn   -0.00543    0.01789    0.01584
 20 Zn   -0.01659   -0.00958   -0.17756
 21 Zn   -0.03036   -0.01753    0.12331
 22 Zn    0.00366   -0.00599    0.00143
 23 Zn    0.01278   -0.01365    0.01584
 24 Zn   -0.00069    0.02389   -0.16663
 25 Zn    0.00856    0.03238    0.11678
 26 Zn   -0.00832   -0.00056    0.00353
 27 Zn   -0.00853   -0.00860    0.00344
 28 Zn    0.02771    0.01600   -0.18150
 29 Zn   -0.04225   -0.02439    0.15772
 30 Zn   -0.00464   -0.00692    0.00353
 31 Zn   -0.01171   -0.00309    0.00344
 32 Zn    0.02035   -0.01254   -0.16663
 33 Zn    0.03232   -0.00878    0.11678
 34 Zn    0.00168    0.00097   -0.01299
 35 Zn   -0.04067   -0.02348    0.01287
 36 O     0.04122    0.02380    0.00169

BFGS:   24 03:00:12    -2797.168502        0.0487
Timing:                                      incl.     excl.
-------------------------------------------------------------------
Density initialized from wave functions:    21.099    20.290   0.2% |
 Symmetrize density:                         0.809     0.809   0.0% |
Forces:                                    320.663   320.663   2.5% ||
Hamiltonian:                                85.065     0.004   0.0% |
 Atomic:                                     0.006     0.006   0.0% |
  XC Correction:                             0.000     0.000   0.0% |
 Calculate atomic Hamiltonians:              0.009     0.009   0.0% |
 Communicate:                                4.339     4.339   0.0% |
 Hartree integrate/restrict:                 0.220     0.220   0.0% |
 Initialize Hamiltonian:                     0.001     0.001   0.0% |
 Poisson:                                    4.382     0.157   0.0% |
  Communicate from 1D:                       0.364     0.364   0.0% |
  Communicate from 2D:                       0.747     0.747   0.0% |
  Communicate to 1D:                         0.195     0.195   0.0% |
  Communicate to 2D:                         0.793     0.793   0.0% |
  FFT 1D:                                    1.093     1.093   0.0% |
  FFT 2D:                                    1.034     1.034   0.0% |
 XC 3D grid:                                75.879    18.908   0.1% |
  VdW-DF integral:                          56.971     3.156   0.0% |
   Convolution:                              5.144     5.144   0.0% |
   FFT:                                      3.736     3.736   0.0% |
   gather:                                  17.251    17.251   0.1% |
   hmm1:                                     1.011     1.011   0.0% |
   hmm2:                                     2.231     2.231   0.0% |
   iFFT:                                     3.523     3.523   0.0% |
   potential:                               16.758     0.381   0.0% |
    collect:                                 1.133     1.133   0.0% |
    p1:                                      9.997     9.997   0.1% |
    p2:                                      3.403     3.403   0.0% |
    sum:                                     1.844     1.844   0.0% |
   splines:                                  4.160     4.160   0.0% |
 vbar:                                       0.226     0.226   0.0% |
LCAO initialization:                        22.626     0.833   0.0% |
 LCAO eigensolver:                          14.269     0.004   0.0% |
  Calculate projections:                     0.000     0.000   0.0% |
  DenseAtomicCorrection:                     0.000     0.000   0.0% |
  Distribute overlap matrix:                13.674    13.674   0.1% |
  Orbital Layouts:                           0.494     0.494   0.0% |
  Potential matrix:                          0.017     0.017   0.0% |
  Sum over cells:                            0.081     0.081   0.0% |
 LCAO to grid:                               6.113     6.113   0.0% |
 Set positions (LCAO WFS):                   1.412     1.043   0.0% |
  Basic WFS set positions:                   0.002     0.002   0.0% |
  Basis functions set positions:             0.000     0.000   0.0% |
  P tci:                                     0.000     0.000   0.0% |
  ST tci:                                    0.278     0.278   0.0% |
  mktci:                                     0.088     0.088   0.0% |
Redistribute:                                0.013     0.013   0.0% |
SCF-cycle:                               11877.607   239.175   1.8% ||
 Davidson:                               10164.010  3365.011  25.8% |---------|
  Apply hamiltonian:                       274.973   274.973   2.1% ||
  Subspace diag:                           994.462     0.055   0.0% |
   calc_h_matrix:                          516.626   259.003   2.0% ||
    Apply hamiltonian:                     257.623   257.623   2.0% ||
   diagonalize:                             23.195    23.195   0.2% |
   rotate_psi:                             454.585   454.585   3.5% ||
  calc. matrices:                         4535.941  1743.973  13.4% |----|
   Apply hamiltonian:                     2791.968  2791.968  21.4% |--------|
  diagonalize:                             115.067   115.067   0.9% |
  rotate_psi:                              878.556   878.556   6.7% |--|
 Density:                                   36.558     0.010   0.0% |
  Atomic density matrices:                   2.113     2.113   0.0% |
  Mix:                                       6.476     6.476   0.0% |
  Multipole moments:                         0.208     0.208   0.0% |
  Pseudo density:                           27.752    15.662   0.1% |
   Symmetrize density:                      12.090    12.090   0.1% |
 Hamiltonian:                             1352.923     0.052   0.0% |
  Atomic:                                    0.106     0.104   0.0% |
   XC Correction:                            0.002     0.002   0.0% |
  Calculate atomic Hamiltonians:             0.138     0.138   0.0% |
  Communicate:                              73.711    73.711   0.6% |
  Hartree integrate/restrict:                3.935     3.935   0.0% |
  Poisson:                                  73.553     2.659   0.0% |
   Communicate from 1D:                      6.012     6.012   0.0% |
   Communicate from 2D:                     12.529    12.529   0.1% |
   Communicate to 1D:                        3.296     3.296   0.0% |
   Communicate to 2D:                       13.330    13.330   0.1% |
   FFT 1D:                                  18.301    18.301   0.1% |
   FFT 2D:                                  17.424    17.424   0.1% |
  XC 3D grid:                             1200.663   314.715   2.4% ||
   VdW-DF integral:                        885.947    53.138   0.4% |
    Convolution:                            86.531    86.531   0.7% |
    FFT:                                    62.540    62.540   0.5% |
    gather:                                287.356   287.356   2.2% ||
    hmm1:                                   17.142    17.142   0.1% |
    hmm2:                                   37.159    37.159   0.3% |
    iFFT:                                   59.223    59.223   0.5% |
    potential:                             282.855     6.452   0.0% |
     collect:                               18.875    18.875   0.1% |
     p1:                                   167.989   167.989   1.3% ||
     p2:                                    57.289    57.289   0.4% |
     sum:                                   32.251    32.251   0.2% |
    splines:                                 0.002     0.002   0.0% |
  vbar:                                      0.767     0.767   0.0% |
 Orthonormalize:                            84.941     0.005   0.0% |
  calc_s_matrix:                             6.611     6.611   0.1% |
  inverse-cholesky:                         65.308    65.308   0.5% |
  projections:                               0.001     0.001   0.0% |
  rotate_psi_s:                             13.016    13.016   0.1% |
Set symmetry:                                0.002     0.002   0.0% |
Other:                                     694.300   694.300   5.3% |-|
-------------------------------------------------------------------
Total:                                             13021.377 100.0%

Memory usage: 1.45 GiB
Date: Thu Sep 28 03:00:12 2023
