
  ___ ___ ___ _ _ _  
 |   |   |_  | | | | 
 | | | | | . | | | | 
 |__ |  _|___|_____|  22.8.0
 |___|_|             

User:   s204775@a037.nifl.fysik.dtu.dk
Date:   Fri Sep 29 01:33:18 2023
Arch:   x86_64
Pid:    5588
CWD:    /home/cat/s204775/projects/Bachelor_project/OCCOH_missing_features
Python: 3.10.4
gpaw:   /home/modules/software/GPAW/22.8.0-intel-2022a/lib/python3.10/site-packages/gpaw
_gpaw:  /home/modules/software/GPAW/22.8.0-intel-2022a/lib/python3.10/site-packages/
        _gpaw.cpython-310-x86_64-linux-gnu.so
ase:    /home/modules/software/ASE/3.22.1-intel-2022a/lib/python3.10/site-packages/ase (version 3.22.1)
numpy:  /home/modules/software/SciPy-bundle/2022.05-intel-2022a/lib/python3.10/site-packages/numpy (version 1.22.3)
scipy:  /home/modules/software/SciPy-bundle/2022.05-intel-2022a/lib/python3.10/site-packages/scipy (version 1.8.1)
libxc:  5.2.3
units:  Angstrom and eV
cores: 40
OpenMP: False
OMP_NUM_THREADS: 1

Input parameters:
  basis: dzp
  h: 0.18
  kpts: {size: (4, 4, 1)}
  xc: BEEF-vdW

System changes: positions, numbers, cell, pbc, initial_charges, initial_magmoms 

Initialize ...

species:
  Ag:
    name: Silver
    id: 33ddeab48f408598355e2011f1241e14
    Z: 47.0
    valence: 17
    core: 30
    charge: 0.0
    file: /home/modules/software/GPAW-setups/0.9.20000/Ag.PBE.gz
    compensation charges: {type: gauss,
                           rc: 0.40,
                           lmax: 2}
    cutoffs: {filter: 2.35,
              core: 2.19}
    valence states:
      #              energy  rcut
      - 5s(1.00)    -4.401   1.286
      - 4p(6.00)   -58.577   1.328
      - 5p(0.00)    -0.738   1.328
      - 4d(10.00)    -7.446   1.180
      -  s          22.811   1.286
      -  d          19.766   1.180
  
    # LCAO basis set for Ag:
    #   Name: dzp
    #   File: /home/modules/software/GPAW-setups/0.9.20000/Ag.dzp.basis.gz
    #   Number of radial functions: 9
    #   Number of spherical harmonics: 27
    #     l=0, rc=9.2812 Bohr: 5s-sz confined orbital
    #     l=1, rc=3.3750 Bohr: 4p-sz confined orbital
    #     l=1, rc=14.2344 Bohr: 5p-sz confined orbital
    #     l=2, rc=5.4531 Bohr: 4d-sz confined orbital
    #     l=0, rc=5.5156 Bohr: 5s-dz split-valence wave
    #     l=1, rc=2.3281 Bohr: 4p-dz split-valence wave
    #     l=1, rc=8.7656 Bohr: 5p-dz split-valence wave
    #     l=2, rc=3.2656 Bohr: 4d-dz split-valence wave
    #     l=1, rc=9.2812 Bohr: p-type Gaussian polarization
    #   Number of RI-basis functions 0

  H:
    name: Hydrogen
    id: d65de229564ff8ea4db303e23b6d1ecf
    Z: 1.0
    valence: 1
    core: 0
    charge: 0.0
    file: /home/modules/software/GPAW-setups/0.9.20000/H.PBE.gz
    compensation charges: {type: gauss,
                           rc: 0.15,
                           lmax: 2}
    cutoffs: {filter: 0.85,
              core: 0.53}
    valence states:
      #              energy  rcut
      - 1s(1.00)    -6.494   0.476
      -  s          20.717   0.476
      -  p           0.000   0.476
  
    # LCAO basis set for H:
    #   Name: dzp
    #   File: /home/modules/software/GPAW-setups/0.9.20000/H.dzp.basis.gz
    #   Number of radial functions: 3
    #   Number of spherical harmonics: 5
    #     l=0, rc=6.4219 Bohr: 1s-sz confined orbital
    #     l=0, rc=3.6094 Bohr: 1s-dz split-valence wave
    #     l=1, rc=6.4219 Bohr: p-type Gaussian polarization
    #   Number of RI-basis functions 0

  O:
    name: Oxygen
    id: 32ecd46bf208036f09c70b0ec9a88b78
    Z: 8.0
    valence: 6
    core: 2
    charge: 0.0
    file: /home/modules/software/GPAW-setups/0.9.20000/O.PBE.gz
    compensation charges: {type: gauss,
                           rc: 0.21,
                           lmax: 2}
    cutoffs: {filter: 1.17,
              core: 0.83}
    valence states:
      #              energy  rcut
      - 2s(2.00)   -23.961   0.688
      - 2p(4.00)    -9.029   0.598
      -  s           3.251   0.688
      -  p          18.182   0.598
      -  d           0.000   0.619
  
    # LCAO basis set for O:
    #   Name: dzp
    #   File: /home/modules/software/GPAW-setups/0.9.20000/O.dzp.basis.gz
    #   Number of radial functions: 5
    #   Number of spherical harmonics: 13
    #     l=0, rc=4.3438 Bohr: 2s-sz confined orbital
    #     l=1, rc=5.3906 Bohr: 2p-sz confined orbital
    #     l=0, rc=2.2969 Bohr: 2s-dz split-valence wave
    #     l=1, rc=2.8906 Bohr: 2p-dz split-valence wave
    #     l=2, rc=5.3906 Bohr: d-type Gaussian polarization
    #   Number of RI-basis functions 0

  C:
    name: Carbon
    id: 4aa54d4b901d75f77cc0ea3eec22967b
    Z: 6.0
    valence: 4
    core: 2
    charge: 0.0
    file: /home/modules/software/GPAW-setups/0.9.20000/C.PBE.gz
    compensation charges: {type: gauss,
                           rc: 0.20,
                           lmax: 2}
    cutoffs: {filter: 1.14,
              core: 1.14}
    valence states:
      #              energy  rcut
      - 2s(2.00)   -13.751   0.635
      - 2p(2.00)    -5.284   0.635
      -  s          13.461   0.635
      -  p          21.927   0.635
      -  d           0.000   0.635
  
    # LCAO basis set for C:
    #   Name: dzp
    #   File: /home/modules/software/GPAW-setups/0.9.20000/C.dzp.basis.gz
    #   Number of radial functions: 5
    #   Number of spherical harmonics: 13
    #     l=0, rc=5.5469 Bohr: 2s-sz confined orbital
    #     l=1, rc=6.6719 Bohr: 2p-sz confined orbital
    #     l=0, rc=3.0312 Bohr: 2s-dz split-valence wave
    #     l=1, rc=3.7500 Bohr: 2p-dz split-valence wave
    #     l=2, rc=6.6719 Bohr: d-type Gaussian polarization
    #   Number of RI-basis functions 0

Reference energy: -5211671.199730  # eV

Spin-paired calculation

Convergence criteria:
 Maximum [total energy] change in last 3 cyles: 0.0005 eV / electron
 Maximum integral of absolute [dens]ity change: 0.0001 electrons / valence electron
 Maximum integral of absolute [eigenst]ate change: 4e-08 eV^2 / valence electron
 Maximum number of scf [iter]ations: 333
 (Square brackets indicate name in SCF output, whereas a 'c' in
 the SCF output indicates the quantity has converged.)

Symmetries present (total): 1

  ( 1  0  0)
  ( 0  1  0)
  ( 0  0  1)

16 k-points: 4 x 4 x 1 Monkhorst-Pack grid
8 k-points in the irreducible part of the Brillouin zone
       k-points in crystal coordinates                weights
   0:     0.12500000   -0.37500000    0.00000000          2/16
   1:     0.12500000   -0.12500000    0.00000000          2/16
   2:     0.12500000    0.12500000    0.00000000          2/16
   3:     0.12500000    0.37500000    0.00000000          2/16
   4:     0.37500000   -0.37500000    0.00000000          2/16
   5:     0.37500000   -0.12500000    0.00000000          2/16
   6:     0.37500000    0.12500000    0.00000000          2/16
   7:     0.37500000    0.37500000    0.00000000          2/16

Wave functions: Uniform real-space grid
  Kinetic energy operator: 8*3+1=25 point O(h^6) finite-difference Laplacian
  ScaLapack parameters: grid=1x1, blocksize=None
  Wavefunction extrapolation:
    Improved wavefunction reuse through dual PAW basis 

Occupation numbers: Fermi-Dirac:
  width: 0.1000  # eV
 

Eigensolver
   Davidson(niter=2) 

Densities:
  Coarse grid: 44*44*152 grid
  Fine grid: 88*88*304 grid
  Total Charge: 0.000000 

Density mixing:
  Method: separate
  Backend: pulay
  Linear mixing parameter: 0.05
  old densities: 5
  Damping of long wavelength oscillations: 50 

Hamiltonian:
  XC and Coulomb potentials evaluated on a 88*88*304 grid
  Using the BEEF-vdW Exchange-Correlation functional
  Interpolation: tri-quintic (5. degree polynomial)
  Poisson solver: FastPoissonSolver using
    Stencil: 8*3+1=25 point O(h^6) finite-difference Laplacian
    FFT axes: [0, 1]
    FST axes: [2]
 

XC parameters: BEEF-vdW with 2 nearest neighbor stencil

Memory estimate:
  Process memory now: 208.23 MiB
  Calculator: 793.00 MiB
    Density: 64.97 MiB
      Arrays: 11.52 MiB
      Localized functions: 49.02 MiB
      Mixer: 4.43 MiB
    Hamiltonian: 11.27 MiB
      Arrays: 7.53 MiB
      XC: 0.00 MiB
      Poisson: 0.00 MiB
      vbar: 3.73 MiB
    Wavefunctions: 716.76 MiB
      Arrays psit_nG: 340.31 MiB
      Eigensolver: 367.26 MiB
      Projections: 0.83 MiB
      Projectors: 8.36 MiB

Total number of cores used: 40
Parallelization over k-points: 8
Domain decomposition: 1 x 1 x 5

Number of atoms: 41
Number of atomic orbitals: 1029
Number of bands in calculation: 384
Number of valence electrons: 633
Bands to converge: occupied

... initialized

Initializing position-dependent things.

Density initialized from atomic densities
Creating initial wave functions:
  384 bands from LCAO basis set

                                                  
                                                  
                                                  
                                                  
                                                  
                                                  
                                                  
                           O                      
                          H                       
                  Ag     AOC    Ag                
                    Ag    CAg      Ag             
            Ag     Ag     Ag                      
              Ag     AAg    AAg      Ag           
                                                  
               AAg    AAg    AAg                  
                                                  
                 Ag     Ag     Ag                 
                                                  
           Ag     AAg    AAg     Ag               
             Ag     Ag     Ag                     
                                                  
               Ag     Ag     Ag                   
                                                  
                                                  
                                                  
                                                  

Positions:
   0 Ag    -0.000000    0.000000    9.999999    ( 0.0000,  0.0000,  0.0000)
   1 Ag     1.496122    0.863786   12.443156    ( 0.0000,  0.0000,  0.0000)
   2 Ag    -0.000000    1.721500   14.879470    ( 0.0000,  0.0000,  0.0000)
   3 Ag     2.990772    0.000104   17.332927    ( 0.0000,  0.0000,  0.0000)
   4 Ag    -1.496122    2.591359    9.999999    ( 0.0000,  0.0000,  0.0000)
   5 Ag     0.000000    3.455145   12.443156    ( 0.0000,  0.0000,  0.0000)
   6 Ag    -1.490401    4.322235   14.880555    ( 0.0000,  0.0000,  0.0000)
   7 Ag     1.495476    2.590033   17.332927    ( 0.0000,  0.0000,  0.0000)
   8 Ag    -2.992244    5.182718    9.999999    ( 0.0000,  0.0000,  0.0000)
   9 Ag    -1.496122    6.046505   12.443156    ( 0.0000,  0.0000,  0.0000)
  10 Ag    -2.997503    6.913327   14.879470    ( 0.0000,  0.0000,  0.0000)
  11 Ag     0.000000    5.182718   17.332986    ( 0.0000,  0.0000,  0.0000)
  12 Ag     2.992244    0.000000    9.999999    ( 0.0000,  0.0000,  0.0000)
  13 Ag     4.488366    0.863786   12.443156    ( 0.0000,  0.0000,  0.0000)
  14 Ag     2.995517    1.729463   14.878053    ( 0.0000,  0.0000,  0.0000)
  15 Ag     5.985960    0.000104   17.332927    ( 0.0000,  0.0000,  0.0000)
  16 Ag     1.496122    2.591359    9.999999    ( 0.0000,  0.0000,  0.0000)
  17 Ag     2.992244    3.455145   12.443156    ( 0.0000,  0.0000,  0.0000)
  18 Ag     1.490401    4.322235   14.880555    ( 0.0000,  0.0000,  0.0000)
  19 Ag     4.488366    2.591359   17.331088    ( 0.0000,  0.0000,  0.0000)
  20 Ag     0.000000    5.182718    9.999999    ( 0.0000,  0.0000,  0.0000)
  21 Ag     1.496122    6.046505   12.443156    ( 0.0000,  0.0000,  0.0000)
  22 Ag     0.000000    6.903685   14.880555    ( 0.0000,  0.0000,  0.0000)
  23 Ag     2.993069    5.183941   17.332927    ( 0.0000,  0.0000,  0.0000)
  24 Ag     5.984488    0.000000    9.999999    ( 0.0000,  0.0000,  0.0000)
  25 Ag     7.480609    0.863786   12.443156    ( 0.0000,  0.0000,  0.0000)
  26 Ag     5.981214    1.729463   14.878053    ( 0.0000,  0.0000,  0.0000)
  27 Ag     8.976731   -0.000000   17.337351    ( 0.0000,  0.0000,  0.0000)
  28 Ag     4.488366    2.591359    9.999999    ( 0.0000,  0.0000,  0.0000)
  29 Ag     5.984488    3.455145   12.443156    ( 0.0000,  0.0000,  0.0000)
  30 Ag     4.488366    4.315152   14.878053    ( 0.0000,  0.0000,  0.0000)
  31 Ag     7.481256    2.590033   17.332927    ( 0.0000,  0.0000,  0.0000)
  32 Ag     2.992244    5.182718    9.999999    ( 0.0000,  0.0000,  0.0000)
  33 Ag     4.488366    6.046505   12.443156    ( 0.0000,  0.0000,  0.0000)
  34 Ag     2.997503    6.913327   14.879470    ( 0.0000,  0.0000,  0.0000)
  35 Ag     5.983662    5.183941   17.332927    ( 0.0000,  0.0000,  0.0000)
  36 H      4.553033    0.028779   20.668334    ( 0.0000,  0.0000,  0.0000)
  37 O      4.530516   -0.336857   19.876261    ( 0.0000,  0.0000,  0.0000)
  38 C      4.534269    0.529598   18.877168    ( 0.0000,  0.0000,  0.0000)
  39 C      4.460955    2.025566   19.119275    ( 0.0000,  0.0000,  0.0000)
  40 O      4.513508    2.654114   20.402655    ( 0.0000,  0.0000,  0.0000)

Unit cell:
           periodic     x           y           z      points  spacing
  1. axis:    yes    8.976731    0.000000    0.000000    44     0.1767
  2. axis:    yes   -4.488366    7.774077    0.000000    44     0.1767
  3. axis:    no     0.000000    0.000000   27.329469   152     0.1798

  Lengths:   8.976731   8.976731  27.329469
  Angles:   90.000000  90.000000 120.000000

Effective grid spacing dv^(1/3) = 0.1864

     iter     time        total  log10-change:
                         energy  eigst   dens
iter:   1 01:35:05 -5433.916217
iter:   2 01:35:52 -5415.934063  -0.82  -1.34
iter:   3 01:36:38 -5411.081432  -1.83  -1.50
iter:   4 01:37:25 -5410.341223  -2.27  -1.54
iter:   5 01:38:11 -5409.623283  -1.22  -1.58
iter:   6 01:38:58 -5409.189511  -2.14  -1.83
iter:   7 01:39:45 -5410.426648  -1.40  -1.91
iter:   8 01:40:32 -5409.834997  -2.58  -2.11
iter:   9 01:41:18 -5408.990114  -2.33  -2.14
iter:  10 01:42:05 -5409.107127  -2.77  -2.33
iter:  11 01:42:52 -5408.778139  -2.42  -2.35
iter:  12 01:43:39 -5408.731178  -2.97  -2.59
iter:  13 01:44:25 -5408.716681c -3.07  -2.60
iter:  14 01:45:12 -5408.725007c -3.57  -2.83
iter:  15 01:45:59 -5408.709742c -3.73  -3.12
iter:  16 01:46:45 -5408.706206c -4.12  -3.23
iter:  17 01:47:32 -5408.705918c -4.15  -3.38
iter:  18 01:48:19 -5408.705730c -4.66  -3.66
iter:  19 01:49:05 -5408.705758c -5.38  -3.78
iter:  20 01:49:52 -5408.705704c -5.97  -3.79
iter:  21 01:50:39 -5408.705710c -5.76  -3.81
iter:  22 01:51:26 -5408.705789c -5.92  -3.94
iter:  23 01:52:12 -5408.705819c -6.28  -4.06c
iter:  24 01:52:59 -5408.705770c -6.42  -4.19c
iter:  25 01:53:46 -5408.705837c -6.57  -4.34c
iter:  26 01:54:32 -5408.705804c -6.65  -4.50c
iter:  27 01:55:19 -5408.705816c -7.03  -4.70c
iter:  28 01:56:06 -5408.705810c -7.90c -4.75c

Converged after 28 iterations.

Dipole moment: (-6.583335, -4.434475, -0.513239) |e|*Ang

Energy contributions relative to reference atoms: (reference = -5211671.199730)

Kinetic:       +912.278786
Potential:     -892.888832
External:        +0.000000
XC:            -5433.098901
Entropy (-ST):   -0.377539
Local:           +5.191906
--------------------------
Free energy:   -5408.894579
Extrapolated:  -5408.705810

Showing only first 2 kpts
 Kpt  Band  Eigenvalues  Occupancy
  0   314     -5.40670    1.96941
  0   315     -5.12075    1.57344
  0   316     -5.02288    1.16183
  0   317     -4.91798    0.65370

  1   314     -5.73057    1.99878
  1   315     -5.66605    1.99768
  1   316     -5.38666    1.96275
  1   317     -5.22080    1.81871


Fermi level: -4.99023

No gap

Forces in eV/Ang:
  0 Ag   -0.00352   -0.00563   -0.04751
  1 Ag   -0.02540   -0.00852    0.00602
  2 Ag    0.00565   -0.00290    0.02951
  3 Ag   -0.36948   -0.18862   -0.22381
  4 Ag    0.00220   -0.02448   -0.02701
  5 Ag   -0.00205    0.02160    0.04562
  6 Ag   -0.01584    0.03154    0.04391
  7 Ag   -0.07905    0.01356    0.00440
  8 Ag   -0.02170    0.01304   -0.01531
  9 Ag    0.00431   -0.02180    0.00562
 10 Ag    0.08320    0.00901    0.08801
 11 Ag   -0.00010   -0.21163   -0.07916
 12 Ag    0.00780    0.02115   -0.01987
 13 Ag   -0.00130    0.06166   -0.02245
 14 Ag    0.02152    0.01387   -0.08725
 15 Ag    0.51669   -0.19496   -0.39882
 16 Ag   -0.00157   -0.01549   -0.03036
 17 Ag    0.02373   -0.02381    0.00587
 18 Ag    0.01987    0.02809    0.03564
 19 Ag    0.01230    2.20481   -3.78316
 20 Ag    0.00924    0.00584   -0.01981
 21 Ag   -0.01254   -0.02312    0.01090
 22 Ag    0.00410   -0.00256   -0.11560
 23 Ag   -0.01947    0.05278   -0.02499
 24 Ag   -0.00139    0.01491   -0.02749
 25 Ag    0.01975   -0.00378    0.00890
 26 Ag   -0.02352    0.01987   -0.07292
 27 Ag   -0.00144   -0.01154   -0.02983
 28 Ag   -0.00069   -0.02780   -0.00261
 29 Ag   -0.02675   -0.02280    0.00554
 30 Ag    0.00147   -0.09106   -0.04520
 31 Ag    0.07338    0.00230   -0.01080
 32 Ag    0.01456    0.01609   -0.03739
 33 Ag    0.00138    0.02944    0.01668
 34 Ag   -0.08536    0.01352    0.08709
 35 Ag    0.01770    0.05000   -0.03888
 36 H     0.10756    3.11974    6.21669
 37 O    -0.11492   -3.80963   -4.61135
 38 C    -0.41101    2.29188   -0.00076
 39 C     0.54640   -0.19105    9.16525
 40 O    -0.35017   -3.17661   -6.06936

      Step     Time          Energy         fmax
BFGS:    0 01:56:28    -5408.705810        9.1835
System changes: positions 

Initializing position-dependent things.

Density initialized from wave functions
                                                  
                                                  
                                                  
                                                  
                                                  
                                                  
                                                  
                           O                      
                          H                       
                  Ag     OgC     Ag               
                          C                       
            Ag     AAg    AAg      Ag             
              Ag     AAg    AAg      Ag           
                                                  
               AAg    AAg    AAg                  
                                                  
                 Ag     Ag     Ag                 
                                                  
           Ag     AAg    AAg     Ag               
             Ag     Ag     Ag                     
                                                  
               Ag     Ag     Ag                   
                                                  
                                                  
                                                  
                                                  

Positions:
   0 Ag    -0.000000    0.000000    9.999999    ( 0.0000,  0.0000,  0.0000)
   1 Ag     1.496122    0.863786   12.443156    ( 0.0000,  0.0000,  0.0000)
   2 Ag     0.000081    1.721459   14.879891    ( 0.0000,  0.0000,  0.0000)
   3 Ag     2.985493   -0.002591   17.329730    ( 0.0000,  0.0000,  0.0000)
   4 Ag    -1.496122    2.591359    9.999999    ( 0.0000,  0.0000,  0.0000)
   5 Ag     0.000000    3.455145   12.443156    ( 0.0000,  0.0000,  0.0000)
   6 Ag    -1.490627    4.322686   14.881183    ( 0.0000,  0.0000,  0.0000)
   7 Ag     1.494346    2.590226   17.332990    ( 0.0000,  0.0000,  0.0000)
   8 Ag    -2.992244    5.182718    9.999999    ( 0.0000,  0.0000,  0.0000)
   9 Ag    -1.496122    6.046505   12.443156    ( 0.0000,  0.0000,  0.0000)
  10 Ag    -2.996314    6.913456   14.880727    ( 0.0000,  0.0000,  0.0000)
  11 Ag    -0.000001    5.179695   17.331855    ( 0.0000,  0.0000,  0.0000)
  12 Ag     2.992244    0.000000    9.999999    ( 0.0000,  0.0000,  0.0000)
  13 Ag     4.488366    0.863786   12.443156    ( 0.0000,  0.0000,  0.0000)
  14 Ag     2.995824    1.729661   14.876807    ( 0.0000,  0.0000,  0.0000)
  15 Ag     5.993341   -0.002682   17.327230    ( 0.0000,  0.0000,  0.0000)
  16 Ag     1.496122    2.591359    9.999999    ( 0.0000,  0.0000,  0.0000)
  17 Ag     2.992244    3.455145   12.443156    ( 0.0000,  0.0000,  0.0000)
  18 Ag     1.490685    4.322636   14.881065    ( 0.0000,  0.0000,  0.0000)
  19 Ag     4.488541    2.622856   17.277043    ( 0.0000,  0.0000,  0.0000)
  20 Ag     0.000000    5.182718    9.999999    ( 0.0000,  0.0000,  0.0000)
  21 Ag     1.496122    6.046505   12.443156    ( 0.0000,  0.0000,  0.0000)
  22 Ag     0.000059    6.903648   14.878904    ( 0.0000,  0.0000,  0.0000)
  23 Ag     2.992791    5.184695   17.332570    ( 0.0000,  0.0000,  0.0000)
  24 Ag     5.984488    0.000000    9.999999    ( 0.0000,  0.0000,  0.0000)
  25 Ag     7.480609    0.863786   12.443156    ( 0.0000,  0.0000,  0.0000)
  26 Ag     5.980878    1.729746   14.877011    ( 0.0000,  0.0000,  0.0000)
  27 Ag     8.976711   -0.000165   17.336925    ( 0.0000,  0.0000,  0.0000)
  28 Ag     4.488366    2.591359    9.999999    ( 0.0000,  0.0000,  0.0000)
  29 Ag     5.984488    3.455145   12.443156    ( 0.0000,  0.0000,  0.0000)
  30 Ag     4.488387    4.313851   14.877407    ( 0.0000,  0.0000,  0.0000)
  31 Ag     7.482304    2.590065   17.332773    ( 0.0000,  0.0000,  0.0000)
  32 Ag     2.992244    5.182718    9.999999    ( 0.0000,  0.0000,  0.0000)
  33 Ag     4.488366    6.046505   12.443156    ( 0.0000,  0.0000,  0.0000)
  34 Ag     2.996283    6.913520   14.880714    ( 0.0000,  0.0000,  0.0000)
  35 Ag     5.983915    5.184656   17.332372    ( 0.0000,  0.0000,  0.0000)
  36 H      4.554569    0.073346   20.757143    ( 0.0000,  0.0000,  0.0000)
  37 O      4.528874   -0.391281   19.810384    ( 0.0000,  0.0000,  0.0000)
  38 C      4.528397    0.562339   18.877157    ( 0.0000,  0.0000,  0.0000)
  39 C      4.468761    2.022837   19.250207    ( 0.0000,  0.0000,  0.0000)
  40 O      4.508506    2.608734   20.315949    ( 0.0000,  0.0000,  0.0000)

Unit cell:
           periodic     x           y           z      points  spacing
  1. axis:    yes    8.976731    0.000000    0.000000    44     0.1767
  2. axis:    yes   -4.488366    7.774077    0.000000    44     0.1767
  3. axis:    no     0.000000    0.000000   27.329469   152     0.1798

  Lengths:   8.976731   8.976731  27.329469
  Angles:   90.000000  90.000000 120.000000

Effective grid spacing dv^(1/3) = 0.1864

     iter     time        total  log10-change:
                         energy  eigst   dens
iter:   1 01:58:17 -5413.590902  -0.93
iter:   2 01:59:05 -5412.080411  -1.80  -2.25
iter:   3 01:59:53 -5410.758614  -1.92  -2.33
iter:   4 02:00:40 -5410.529446  -2.15  -2.54
iter:   5 02:01:28 -5410.382208  -2.33  -2.68
iter:   6 02:02:16 -5410.311571c -2.53  -2.72
iter:   7 02:03:04 -5410.282082c -2.79  -2.90
iter:   8 02:03:51 -5410.271166c -3.06  -3.01
iter:   9 02:04:39 -5410.262859c -3.54  -3.21
iter:  10 02:05:27 -5410.260773c -4.27  -3.33
iter:  11 02:06:14 -5410.260951c -4.46  -3.48
iter:  12 02:07:02 -5410.261035c -5.10  -3.56
iter:  13 02:07:50 -5410.261335c -4.98  -3.71
iter:  14 02:08:38 -5410.261358c -5.27  -3.80
iter:  15 02:09:26 -5410.261169c -5.28  -4.10c
iter:  16 02:10:13 -5410.261260c -5.66  -4.22c
iter:  17 02:11:01 -5410.261227c -5.92  -4.28c
iter:  18 02:11:48 -5410.261195c -6.20  -4.44c
iter:  19 02:12:36 -5410.261170c -6.39  -4.53c
iter:  20 02:13:24 -5410.261171c -6.82  -4.50c
iter:  21 02:14:11 -5410.261169c -7.09  -4.58c
iter:  22 02:14:59 -5410.261169c -7.64c -4.88c

Converged after 22 iterations.

Dipole moment: (-5.825489, -5.541211, -0.151373) |e|*Ang

Energy contributions relative to reference atoms: (reference = -5211671.199730)

Kinetic:       +909.615990
Potential:     -891.766089
External:        +0.000000
XC:            -5433.116304
Entropy (-ST):   -0.376363
Local:           +5.193415
--------------------------
Free energy:   -5410.449350
Extrapolated:  -5410.261169

Showing only first 2 kpts
 Kpt  Band  Eigenvalues  Occupancy
  0   314     -5.12497    1.97142
  0   315     -4.83477    1.58230
  0   316     -4.73304    1.15602
  0   317     -4.62729    0.64474

  1   314     -5.49243    1.99927
  1   315     -5.38961    1.99795
  1   316     -5.10662    1.96577
  1   317     -4.92436    1.80543


Fermi level: -4.70158

No gap

Forces in eV/Ang:
  0 Ag   -0.00287   -0.00472   -0.04981
  1 Ag   -0.02705   -0.01191    0.00433
  2 Ag    0.00471    0.00308    0.02156
  3 Ag   -0.29082   -0.04262   -0.18057
  4 Ag    0.00317   -0.02282   -0.02508
  5 Ag   -0.00108    0.02208    0.04378
  6 Ag   -0.00785    0.02962    0.03204
  7 Ag   -0.04877    0.00529    0.00708
  8 Ag   -0.02138    0.01172   -0.01426
  9 Ag    0.00454   -0.01937    0.00084
 10 Ag    0.07858    0.00641    0.08158
 11 Ag   -0.00004   -0.21682   -0.08894
 12 Ag    0.00503    0.02008   -0.02056
 13 Ag   -0.00065    0.06200   -0.02255
 14 Ag   -0.00710   -0.00348   -0.11043
 15 Ag    0.40408   -0.03176   -0.31485
 16 Ag   -0.00311   -0.01445   -0.02815
 17 Ag    0.02370   -0.02390    0.00657
 18 Ag    0.01265    0.02637    0.02467
 19 Ag   -0.02896    1.10763   -1.08879
 20 Ag    0.01001    0.00379   -0.02162
 21 Ag   -0.01279   -0.02289    0.00582
 22 Ag    0.00386   -0.00931   -0.09664
 23 Ag   -0.02281    0.04496   -0.02609
 24 Ag    0.00091    0.01321   -0.02852
 25 Ag    0.02087   -0.00605    0.00852
 26 Ag    0.00565    0.00263   -0.10130
 27 Ag    0.00336   -0.00874   -0.02712
 28 Ag   -0.00009   -0.02455   -0.00033
 29 Ag   -0.02737   -0.02474    0.00790
 30 Ag   -0.00063   -0.02972   -0.11792
 31 Ag    0.04650   -0.00384   -0.00554
 32 Ag    0.01352    0.01538   -0.03500
 33 Ag    0.00136    0.03337    0.02414
 34 Ag   -0.07869    0.00920    0.07597
 35 Ag    0.02115    0.04570   -0.03933
 36 H    -0.08441   -1.34610   -2.14730
 37 O     0.12342    0.81953    4.13659
 38 C    -0.28507    1.48396   -0.53422
 39 C     0.30434   -1.31225    0.76412
 40 O    -0.14583   -0.51107   -0.14412

BFGS:    1 02:15:22    -5410.261169        4.2188
System changes: positions 

Initializing position-dependent things.

Density initialized from wave functions
                                                  
                                                  
                                                  
                                                  
                                                  
                                                  
                                                  
                           O                      
                          H                       
                  Ag     OgC    Ag                
                          C                       
            Ag     AAg    AAg      Ag             
              Ag     AAg    AAg      Ag           
                                                  
               AAg    AAg    AAg                  
                                                  
                 Ag     Ag     Ag                 
                                                  
           Ag     AAg    AAg     Ag               
             Ag     Ag     Ag                     
                                                  
               Ag     Ag     Ag                   
                                                  
                                                  
                                                  
                                                  

Positions:
   0 Ag    -0.000000    0.000000    9.999999    ( 0.0000,  0.0000,  0.0000)
   1 Ag     1.496122    0.863786   12.443156    ( 0.0000,  0.0000,  0.0000)
   2 Ag     0.000152    1.721495   14.880223    ( 0.0000,  0.0000,  0.0000)
   3 Ag     2.981062   -0.003452   17.326987    ( 0.0000,  0.0000,  0.0000)
   4 Ag    -1.496122    2.591359    9.999999    ( 0.0000,  0.0000,  0.0000)
   5 Ag     0.000000    3.455145   12.443156    ( 0.0000,  0.0000,  0.0000)
   6 Ag    -1.490756    4.323127   14.881676    ( 0.0000,  0.0000,  0.0000)
   7 Ag     1.493576    2.590318   17.333091    ( 0.0000,  0.0000,  0.0000)
   8 Ag    -2.992244    5.182718    9.999999    ( 0.0000,  0.0000,  0.0000)
   9 Ag    -1.496122    6.046505   12.443156    ( 0.0000,  0.0000,  0.0000)
  10 Ag    -2.995143    6.913555   14.881945    ( 0.0000,  0.0000,  0.0000)
  11 Ag    -0.000002    5.176492   17.330554    ( 0.0000,  0.0000,  0.0000)
  12 Ag     2.992244    0.000000    9.999999    ( 0.0000,  0.0000,  0.0000)
  13 Ag     4.488366    0.863786   12.443156    ( 0.0000,  0.0000,  0.0000)
  14 Ag     2.995764    1.729636   14.875208    ( 0.0000,  0.0000,  0.0000)
  15 Ag     5.999503   -0.003409   17.322434    ( 0.0000,  0.0000,  0.0000)
  16 Ag     1.496122    2.591359    9.999999    ( 0.0000,  0.0000,  0.0000)
  17 Ag     2.992244    3.455145   12.443156    ( 0.0000,  0.0000,  0.0000)
  18 Ag     1.490883    4.323029   14.881447    ( 0.0000,  0.0000,  0.0000)
  19 Ag     4.488177    2.640989   17.256676    ( 0.0000,  0.0000,  0.0000)
  20 Ag     0.000000    5.182718    9.999999    ( 0.0000,  0.0000,  0.0000)
  21 Ag     1.496122    6.046505   12.443156    ( 0.0000,  0.0000,  0.0000)
  22 Ag     0.000116    6.903521   14.877443    ( 0.0000,  0.0000,  0.0000)
  23 Ag     2.992459    5.185374   17.332185    ( 0.0000,  0.0000,  0.0000)
  24 Ag     5.984488    0.000000    9.999999    ( 0.0000,  0.0000,  0.0000)
  25 Ag     7.480609    0.863786   12.443156    ( 0.0000,  0.0000,  0.0000)
  26 Ag     5.980916    1.729813   14.875556    ( 0.0000,  0.0000,  0.0000)
  27 Ag     8.976753   -0.000299   17.336519    ( 0.0000,  0.0000,  0.0000)
  28 Ag     4.488366    2.591359    9.999999    ( 0.0000,  0.0000,  0.0000)
  29 Ag     5.984488    3.455145   12.443156    ( 0.0000,  0.0000,  0.0000)
  30 Ag     4.488380    4.313315   14.875775    ( 0.0000,  0.0000,  0.0000)
  31 Ag     7.483035    2.590018   17.332682    ( 0.0000,  0.0000,  0.0000)
  32 Ag     2.992244    5.182718    9.999999    ( 0.0000,  0.0000,  0.0000)
  33 Ag     4.488366    6.046505   12.443156    ( 0.0000,  0.0000,  0.0000)
  34 Ag     2.995107    6.913663   14.881856    ( 0.0000,  0.0000,  0.0000)
  35 Ag     5.984223    5.185339   17.331790    ( 0.0000,  0.0000,  0.0000)
  36 H      4.553621    0.060438   20.738504    ( 0.0000,  0.0000,  0.0000)
  37 O      4.530327   -0.386429   19.857883    ( 0.0000,  0.0000,  0.0000)
  38 C      4.523977    0.585590   18.870084    ( 0.0000,  0.0000,  0.0000)
  39 C      4.473649    2.005165   19.274748    ( 0.0000,  0.0000,  0.0000)
  40 O      4.506024    2.596968   20.304488    ( 0.0000,  0.0000,  0.0000)

Unit cell:
           periodic     x           y           z      points  spacing
  1. axis:    yes    8.976731    0.000000    0.000000    44     0.1767
  2. axis:    yes   -4.488366    7.774077    0.000000    44     0.1767
  3. axis:    no     0.000000    0.000000   27.329469   152     0.1798

  Lengths:   8.976731   8.976731  27.329469
  Angles:   90.000000  90.000000 120.000000

Effective grid spacing dv^(1/3) = 0.1864

     iter     time        total  log10-change:
                         energy  eigst   dens
iter:   1 02:17:09 -5411.215839  -1.82
iter:   2 02:17:57 -5410.731684  -2.52  -2.34
iter:   3 02:18:45 -5410.610561  -3.15  -2.60
iter:   4 02:19:32 -5410.550468c -3.08  -2.91
iter:   5 02:20:20 -5410.534294c -3.51  -3.07
iter:   6 02:21:08 -5410.524493c -3.41  -3.27
iter:   7 02:21:55 -5410.520467c -3.53  -3.35
iter:   8 02:22:43 -5410.520006c -4.07  -3.59
iter:   9 02:23:31 -5410.520014c -4.52  -3.71
iter:  10 02:24:18 -5410.519909c -5.03  -3.78
iter:  11 02:25:06 -5410.519760c -5.09  -3.86
iter:  12 02:25:54 -5410.519766c -6.03  -4.13c
iter:  13 02:26:41 -5410.519879c -5.44  -4.23c
iter:  14 02:27:29 -5410.519732c -6.00  -4.18c
iter:  15 02:28:17 -5410.519750c -6.79  -4.64c
iter:  16 02:29:04 -5410.519720c -7.07  -4.73c
iter:  17 02:29:52 -5410.519735c -7.19  -4.85c
iter:  18 02:30:40 -5410.519730c -7.68c -4.97c

Converged after 18 iterations.

Dipole moment: (-6.106024, -5.051426, -0.157203) |e|*Ang

Energy contributions relative to reference atoms: (reference = -5211671.199730)

Kinetic:       +912.525303
Potential:     -893.997882
External:        +0.000000
XC:            -5434.061734
Entropy (-ST):   -0.375674
Local:           +5.202420
--------------------------
Free energy:   -5410.707567
Extrapolated:  -5410.519730

Showing only first 2 kpts
 Kpt  Band  Eigenvalues  Occupancy
  0   314     -5.11506    1.96666
  0   315     -4.84405    1.59388
  0   316     -4.74320    1.17747
  0   317     -4.62437    0.60748

  1   314     -5.48924    1.99920
  1   315     -5.39254    1.99789
  1   316     -5.12397    1.96946
  1   317     -4.92005    1.78705


Fermi level: -4.70733

No gap

Forces in eV/Ang:
  0 Ag   -0.00214   -0.00482   -0.05167
  1 Ag   -0.03070   -0.01508    0.00300
  2 Ag    0.00331    0.00253    0.02350
  3 Ag   -0.21040   -0.01437   -0.10506
  4 Ag    0.00332   -0.02053   -0.02374
  5 Ag   -0.00129    0.02236    0.04508
  6 Ag   -0.00794    0.02539    0.02867
  7 Ag   -0.04747    0.01125   -0.00046
  8 Ag   -0.02049    0.01084   -0.01389
  9 Ag    0.00387   -0.01904   -0.00141
 10 Ag    0.07488    0.00858    0.07965
 11 Ag    0.00099   -0.19325   -0.07413
 12 Ag    0.00428    0.01868   -0.01960
 13 Ag    0.00022    0.06112   -0.02464
 14 Ag   -0.01772   -0.00687   -0.11614
 15 Ag    0.29808   -0.00275   -0.21033
 16 Ag   -0.00374   -0.01273   -0.02755
 17 Ag    0.02328   -0.02231    0.00637
 18 Ag    0.01301    0.02372    0.02072
 19 Ag   -0.02354    0.84826   -0.69929
 20 Ag    0.01103    0.00329   -0.02265
 21 Ag   -0.01217   -0.02307    0.00338
 22 Ag    0.00338   -0.01152   -0.08268
 23 Ag   -0.02416    0.04454   -0.02481
 24 Ag    0.00089    0.01089   -0.02791
 25 Ag    0.02389   -0.00842    0.00737
 26 Ag    0.01753    0.00034   -0.11158
 27 Ag    0.00693   -0.00875   -0.03189
 28 Ag    0.00029   -0.02251    0.00113
 29 Ag   -0.02644   -0.02390    0.00749
 30 Ag   -0.00174   -0.00122   -0.14352
 31 Ag    0.04561    0.00225   -0.01190
 32 Ag    0.01183    0.01461   -0.03364
 33 Ag    0.00141    0.03755    0.03053
 34 Ag   -0.07263    0.00926    0.07023
 35 Ag    0.02147    0.04825   -0.03803
 36 H    -0.02858   -0.44949   -0.42221
 37 O    -0.01350    0.57380    1.29204
 38 C    -0.24624    0.46268    0.31614
 39 C     0.21587   -2.01517   -1.09169
 40 O    -0.05931    0.60649    1.48620

BFGS:    2 02:31:02    -5410.519730        2.3020
System changes: positions 

Initializing position-dependent things.

Density initialized from wave functions
                                                  
                                                  
                                                  
                                                  
                                                  
                                                  
                                                  
                           O                      
                          H                       
                  Ag     OgC    Ag                
                          C                       
            Ag     AAg    AAg      Ag             
              Ag     AAg    AAg      Ag           
                                                  
               AAg    AAg    AAg                  
                                                  
                 Ag     Ag     Ag                 
                                                  
           Ag     AAg    AAg     Ag               
             Ag     Ag     Ag                     
                                                  
               Ag     Ag     Ag                   
                                                  
                                                  
                                                  
                                                  

Positions:
   0 Ag    -0.000000    0.000000    9.999999    ( 0.0000,  0.0000,  0.0000)
   1 Ag     1.496122    0.863786   12.443156    ( 0.0000,  0.0000,  0.0000)
   2 Ag     0.000250    1.721558   14.880842    ( 0.0000,  0.0000,  0.0000)
   3 Ag     2.974848   -0.004221   17.323639    ( 0.0000,  0.0000,  0.0000)
   4 Ag    -1.496122    2.591359    9.999999    ( 0.0000,  0.0000,  0.0000)
   5 Ag     0.000000    3.455145   12.443156    ( 0.0000,  0.0000,  0.0000)
   6 Ag    -1.490976    4.323830   14.882473    ( 0.0000,  0.0000,  0.0000)
   7 Ag     1.492272    2.590586   17.333126    ( 0.0000,  0.0000,  0.0000)
   8 Ag    -2.992244    5.182718    9.999999    ( 0.0000,  0.0000,  0.0000)
   9 Ag    -1.496122    6.046505   12.443156    ( 0.0000,  0.0000,  0.0000)
  10 Ag    -2.993132    6.913770   14.884073    ( 0.0000,  0.0000,  0.0000)
  11 Ag     0.000017    5.171229   17.328506    ( 0.0000,  0.0000,  0.0000)
  12 Ag     2.992244    0.000000    9.999999    ( 0.0000,  0.0000,  0.0000)
  13 Ag     4.488366    0.863786   12.443156    ( 0.0000,  0.0000,  0.0000)
  14 Ag     2.995406    1.729501   14.872207    ( 0.0000,  0.0000,  0.0000)
  15 Ag     6.008255   -0.003899   17.316051    ( 0.0000,  0.0000,  0.0000)
  16 Ag     1.496122    2.591359    9.999999    ( 0.0000,  0.0000,  0.0000)
  17 Ag     2.992244    3.455145   12.443156    ( 0.0000,  0.0000,  0.0000)
  18 Ag     1.491235    4.323677   14.882037    ( 0.0000,  0.0000,  0.0000)
  19 Ag     4.487574    2.666656   17.231910    ( 0.0000,  0.0000,  0.0000)
  20 Ag     0.000000    5.182718    9.999999    ( 0.0000,  0.0000,  0.0000)
  21 Ag     1.496122    6.046505   12.443156    ( 0.0000,  0.0000,  0.0000)
  22 Ag     0.000209    6.903240   14.875136    ( 0.0000,  0.0000,  0.0000)
  23 Ag     2.991834    5.186564   17.331522    ( 0.0000,  0.0000,  0.0000)
  24 Ag     5.984488    0.000000    9.999999    ( 0.0000,  0.0000,  0.0000)
  25 Ag     7.480609    0.863786   12.443156    ( 0.0000,  0.0000,  0.0000)
  26 Ag     5.981260    1.729860   14.872714    ( 0.0000,  0.0000,  0.0000)
  27 Ag     8.976905   -0.000534   17.335705    ( 0.0000,  0.0000,  0.0000)
  28 Ag     4.488366    2.591359    9.999999    ( 0.0000,  0.0000,  0.0000)
  29 Ag     5.984488    3.455145   12.443156    ( 0.0000,  0.0000,  0.0000)
  30 Ag     4.488345    4.313006   14.872253    ( 0.0000,  0.0000,  0.0000)
  31 Ag     7.484283    2.590045   17.332404    ( 0.0000,  0.0000,  0.0000)
  32 Ag     2.992244    5.182718    9.999999    ( 0.0000,  0.0000,  0.0000)
  33 Ag     4.488366    6.046505   12.443156    ( 0.0000,  0.0000,  0.0000)
  34 Ag     2.993137    6.913914   14.883767    ( 0.0000,  0.0000,  0.0000)
  35 Ag     5.984783    5.186603   17.330776    ( 0.0000,  0.0000,  0.0000)
  36 H      4.552746    0.048490   20.726911    ( 0.0000,  0.0000,  0.0000)
  37 O      4.530578   -0.375833   19.899555    ( 0.0000,  0.0000,  0.0000)
  38 C      4.517033    0.605844   18.873390    ( 0.0000,  0.0000,  0.0000)
  39 C      4.480284    1.958169   19.269810    ( 0.0000,  0.0000,  0.0000)
  40 O      4.503593    2.601823   20.324726    ( 0.0000,  0.0000,  0.0000)

Unit cell:
           periodic     x           y           z      points  spacing
  1. axis:    yes    8.976731    0.000000    0.000000    44     0.1767
  2. axis:    yes   -4.488366    7.774077    0.000000    44     0.1767
  3. axis:    no     0.000000    0.000000   27.329469   152     0.1798

  Lengths:   8.976731   8.976731  27.329469
  Angles:   90.000000  90.000000 120.000000

Effective grid spacing dv^(1/3) = 0.1864

     iter     time        total  log10-change:
                         energy  eigst   dens
iter:   1 02:32:50 -5410.841197  -1.71
iter:   2 02:33:38 -5410.689995  -2.61  -2.67
iter:   3 02:34:25 -5410.637505c -3.12  -2.77
iter:   4 02:35:13 -5410.603488c -3.26  -2.96
iter:   5 02:36:01 -5410.590637c -3.64  -3.02
iter:   6 02:36:48 -5410.581285c -3.63  -3.20
iter:   7 02:37:36 -5410.575955c -3.61  -3.31
iter:   8 02:38:23 -5410.575640c -4.06  -3.53
iter:   9 02:39:10 -5410.574948c -4.70  -3.67
iter:  10 02:39:58 -5410.574816c -5.16  -3.85
iter:  11 02:40:46 -5410.575042c -5.32  -3.94
iter:  12 02:41:33 -5410.574886c -5.61  -4.12c
iter:  13 02:42:21 -5410.574914c -6.20  -4.24c
iter:  14 02:43:08 -5410.574886c -6.42  -4.40c
iter:  15 02:43:56 -5410.574872c -6.84  -4.50c
iter:  16 02:44:43 -5410.574856c -6.98  -4.54c
iter:  17 02:45:31 -5410.574849c -6.97  -4.66c
iter:  18 02:46:18 -5410.574853c -7.11  -4.89c
iter:  19 02:47:06 -5410.574856c -7.47c -5.13c

Converged after 19 iterations.

Dipole moment: (-6.568606, -4.445926, -0.311721) |e|*Ang

Energy contributions relative to reference atoms: (reference = -5211671.199730)

Kinetic:       +911.466181
Potential:     -892.783453
External:        +0.000000
XC:            -5434.265832
Entropy (-ST):   -0.376230
Local:           +5.196364
--------------------------
Free energy:   -5410.762971
Extrapolated:  -5410.574856

Showing only first 2 kpts
 Kpt  Band  Eigenvalues  Occupancy
  0   314     -5.20907    1.95575
  0   315     -4.97432    1.61729
  0   316     -4.86866    1.18996
  0   317     -4.74432    0.59519

  1   314     -5.59131    1.99901
  1   315     -5.50823    1.99773
  1   316     -5.25940    1.97302
  1   317     -5.02507    1.75062


Fermi level: -4.83020

No gap

Forces in eV/Ang:
  0 Ag   -0.00171   -0.00508   -0.05164
  1 Ag   -0.03433   -0.01867    0.00057
  2 Ag    0.00176    0.00123    0.02514
  3 Ag   -0.09717    0.00357   -0.03846
  4 Ag    0.00301   -0.01854   -0.02202
  5 Ag   -0.00223    0.02231    0.04945
  6 Ag   -0.00762    0.01652    0.02302
  7 Ag   -0.04321    0.01745   -0.00655
  8 Ag   -0.01818    0.01089   -0.01378
  9 Ag    0.00184   -0.01924   -0.00271
 10 Ag    0.06689    0.01425    0.07034
 11 Ag    0.00337   -0.14811   -0.04788
 12 Ag    0.00361    0.01639   -0.01774
 13 Ag    0.00123    0.05858   -0.02940
 14 Ag   -0.02863   -0.00781   -0.11792
 15 Ag    0.14266    0.01369   -0.09433
 16 Ag   -0.00399   -0.01075   -0.02751
 17 Ag    0.02271   -0.01881    0.00269
 18 Ag    0.01344    0.01657    0.01482
 19 Ag   -0.01421    0.52870   -0.35032
 20 Ag    0.01304    0.00407   -0.02197
 21 Ag   -0.00982   -0.02304    0.00186
 22 Ag    0.00280   -0.01071   -0.06181
 23 Ag   -0.02800    0.05056   -0.01685
 24 Ag    0.00106    0.00712   -0.02665
 25 Ag    0.02682   -0.01103    0.00525
 26 Ag    0.02972    0.00016   -0.11822
 27 Ag    0.01068   -0.00693   -0.03570
 28 Ag    0.00070   -0.02127    0.00189
 29 Ag   -0.02456   -0.02114    0.00283
 30 Ag   -0.00341    0.03109   -0.16651
 31 Ag    0.04224    0.00845   -0.01706
 32 Ag    0.00780    0.01487   -0.03273
 33 Ag    0.00105    0.04083    0.03991
 34 Ag   -0.06126    0.01171    0.05576
 35 Ag    0.02331    0.05700   -0.03104
 36 H     0.04036    0.98602    2.09112
 37 O    -0.01805   -0.60910   -1.96306
 38 C    -0.15517   -0.68360    0.55036
 39 C     0.22266    0.47419    1.71015
 40 O    -0.13385   -0.83830   -1.29902

BFGS:    3 02:47:29    -5410.574856        2.3123
System changes: positions 

Initializing position-dependent things.

Density initialized from wave functions
                                                  
                                                  
                                                  
                                                  
                                                  
                                                  
                                                  
                           O                      
                          H                       
                  Ag     OgC    Ag                
                          C                       
            Ag     AAg    AAg      Ag             
              Ag     AAg    AAg      Ag           
                                                  
               AAg    AAg    AAg                  
                                                  
                 Ag     Ag     Ag                 
                                                  
           Ag     AAg    AAg     Ag               
             Ag     Ag     Ag                     
                                                  
               Ag     Ag     Ag                   
                                                  
                                                  
                                                  
                                                  

Positions:
   0 Ag    -0.000000    0.000000    9.999999    ( 0.0000,  0.0000,  0.0000)
   1 Ag     1.496122    0.863786   12.443156    ( 0.0000,  0.0000,  0.0000)
   2 Ag     0.000271    1.721574   14.881098    ( 0.0000,  0.0000,  0.0000)
   3 Ag     2.973653   -0.004192   17.323121    ( 0.0000,  0.0000,  0.0000)
   4 Ag    -1.496122    2.591359    9.999999    ( 0.0000,  0.0000,  0.0000)
   5 Ag     0.000000    3.455145   12.443156    ( 0.0000,  0.0000,  0.0000)
   6 Ag    -1.491054    4.324016   14.882719    ( 0.0000,  0.0000,  0.0000)
   7 Ag     1.491822    2.590753   17.333070    ( 0.0000,  0.0000,  0.0000)
   8 Ag    -2.992244    5.182718    9.999999    ( 0.0000,  0.0000,  0.0000)
   9 Ag    -1.496122    6.046505   12.443156    ( 0.0000,  0.0000,  0.0000)
  10 Ag    -2.992426    6.913908   14.884816    ( 0.0000,  0.0000,  0.0000)
  11 Ag     0.000048    5.169615   17.327962    ( 0.0000,  0.0000,  0.0000)
  12 Ag     2.992244    0.000000    9.999999    ( 0.0000,  0.0000,  0.0000)
  13 Ag     4.488366    0.863786   12.443156    ( 0.0000,  0.0000,  0.0000)
  14 Ag     2.995125    1.729419   14.870985    ( 0.0000,  0.0000,  0.0000)
  15 Ag     6.009989   -0.003760   17.314875    ( 0.0000,  0.0000,  0.0000)
  16 Ag     1.496122    2.591359    9.999999    ( 0.0000,  0.0000,  0.0000)
  17 Ag     2.992244    3.455145   12.443156    ( 0.0000,  0.0000,  0.0000)
  18 Ag     1.491372    4.323860   14.882199    ( 0.0000,  0.0000,  0.0000)
  19 Ag     4.487402    2.672507   17.228129    ( 0.0000,  0.0000,  0.0000)
  20 Ag     0.000000    5.182718    9.999999    ( 0.0000,  0.0000,  0.0000)
  21 Ag     1.496122    6.046505   12.443156    ( 0.0000,  0.0000,  0.0000)
  22 Ag     0.000239    6.903127   14.874462    ( 0.0000,  0.0000,  0.0000)
  23 Ag     2.991549    5.187078   17.331334    ( 0.0000,  0.0000,  0.0000)
  24 Ag     5.984488    0.000000    9.999999    ( 0.0000,  0.0000,  0.0000)
  25 Ag     7.480609    0.863786   12.443156    ( 0.0000,  0.0000,  0.0000)
  26 Ag     5.981551    1.729860   14.871497    ( 0.0000,  0.0000,  0.0000)
  27 Ag     8.977010   -0.000608   17.335343    ( 0.0000,  0.0000,  0.0000)
  28 Ag     4.488366    2.591359    9.999999    ( 0.0000,  0.0000,  0.0000)
  29 Ag     5.984488    3.455145   12.443156    ( 0.0000,  0.0000,  0.0000)
  30 Ag     4.488312    4.313281   14.870557    ( 0.0000,  0.0000,  0.0000)
  31 Ag     7.484721    2.590119   17.332238    ( 0.0000,  0.0000,  0.0000)
  32 Ag     2.992244    5.182718    9.999999    ( 0.0000,  0.0000,  0.0000)
  33 Ag     4.488366    6.046505   12.443156    ( 0.0000,  0.0000,  0.0000)
  34 Ag     2.992483    6.914030   14.884368    ( 0.0000,  0.0000,  0.0000)
  35 Ag     5.985023    5.187179   17.330443    ( 0.0000,  0.0000,  0.0000)
  36 H      4.553001    0.055316   20.742491    ( 0.0000,  0.0000,  0.0000)
  37 O      4.530484   -0.379311   19.886877    ( 0.0000,  0.0000,  0.0000)
  38 C      4.515294    0.600720   18.878372    ( 0.0000,  0.0000,  0.0000)
  39 C      4.482560    1.959128   19.282024    ( 0.0000,  0.0000,  0.0000)
  40 O      4.502338    2.595610   20.316338    ( 0.0000,  0.0000,  0.0000)

Unit cell:
           periodic     x           y           z      points  spacing
  1. axis:    yes    8.976731    0.000000    0.000000    44     0.1767
  2. axis:    yes   -4.488366    7.774077    0.000000    44     0.1767
  3. axis:    no     0.000000    0.000000   27.329469   152     0.1798

  Lengths:   8.976731   8.976731  27.329469
  Angles:   90.000000  90.000000 120.000000

Effective grid spacing dv^(1/3) = 0.1864

     iter     time        total  log10-change:
                         energy  eigst   dens
iter:   1 02:49:17 -5410.704044  -2.64
iter:   2 02:50:05 -5410.676525  -3.49  -3.03
iter:   3 02:50:53 -5410.662084c -3.88  -3.12
iter:   4 02:51:41 -5410.655038c -3.90  -3.26
iter:   5 02:52:29 -5410.650626c -4.25  -3.44
iter:   6 02:53:17 -5410.648788c -4.19  -3.60
iter:   7 02:54:05 -5410.648764c -4.36  -3.79
iter:   8 02:54:52 -5410.648472c -4.93  -3.91
iter:   9 02:55:40 -5410.648575c -5.44  -4.18c
iter:  10 02:56:28 -5410.648559c -6.13  -4.21c
iter:  11 02:57:16 -5410.648571c -6.30  -4.27c
iter:  12 02:58:04 -5410.648575c -6.36  -4.58c
iter:  13 02:58:52 -5410.648607c -6.86  -4.70c
iter:  14 02:59:40 -5410.648603c -7.22  -4.86c
iter:  15 03:00:27 -5410.648601c -7.14  -4.87c
iter:  16 03:01:15 -5410.648590c -7.27  -4.91c
iter:  17 03:02:03 -5410.648595c -7.74c -5.11c

Converged after 17 iterations.

Dipole moment: (-6.468663, -4.649765, -0.244487) |e|*Ang

Energy contributions relative to reference atoms: (reference = -5211671.199730)

Kinetic:       +911.685053
Potential:     -893.104239
External:        +0.000000
XC:            -5434.239282
Entropy (-ST):   -0.376051
Local:           +5.197899
--------------------------
Free energy:   -5410.836620
Extrapolated:  -5410.648595

Showing only first 2 kpts
 Kpt  Band  Eigenvalues  Occupancy
  0   314     -5.15884    1.95696
  0   315     -4.92165    1.61846
  0   316     -4.81437    1.18399
  0   317     -4.69149    0.59612

  1   314     -5.54355    1.99906
  1   315     -5.45748    1.99778
  1   316     -5.20322    1.97217
  1   317     -4.97364    1.75415


Fermi level: -4.77714

No gap

Forces in eV/Ang:
  0 Ag   -0.00166   -0.00501   -0.05418
  1 Ag   -0.03499   -0.01981   -0.00052
  2 Ag    0.00156    0.00125    0.02271
  3 Ag   -0.08837    0.02097   -0.03801
  4 Ag    0.00332   -0.01855   -0.02454
  5 Ag   -0.00218    0.02260    0.04861
  6 Ag   -0.00613    0.01752    0.02117
  7 Ag   -0.03545    0.01231   -0.00158
  8 Ag   -0.01864    0.01080   -0.01628
  9 Ag    0.00177   -0.01882   -0.00260
 10 Ag    0.06578    0.01380    0.06848
 11 Ag    0.00332   -0.14987   -0.05016
 12 Ag    0.00286    0.01662   -0.02056
 13 Ag    0.00120    0.05797   -0.03096
 14 Ag   -0.02460   -0.01028   -0.10885
 15 Ag    0.12647    0.03306   -0.08473
 16 Ag   -0.00411   -0.01083   -0.03004
 17 Ag    0.02153   -0.01938   -0.00028
 18 Ag    0.01158    0.01769    0.01340
 19 Ag   -0.01130    0.45348   -0.27310
 20 Ag    0.01287    0.00341   -0.02456
 21 Ag   -0.01020   -0.02268    0.00183
 22 Ag    0.00278   -0.00852   -0.05725
 23 Ag   -0.02902    0.05293   -0.01486
 24 Ag    0.00172    0.00737   -0.02951
 25 Ag    0.02750   -0.01196    0.00408
 26 Ag    0.02603   -0.00237   -0.10979
 27 Ag    0.01150   -0.00609   -0.02926
 28 Ag    0.00048   -0.02062   -0.00099
 29 Ag   -0.02344   -0.02136    0.00025
 30 Ag   -0.00331    0.03688   -0.16979
 31 Ag    0.03379    0.00385   -0.01131
 32 Ag    0.00842    0.01459   -0.03521
 33 Ag    0.00150    0.04354    0.03833
 34 Ag   -0.05949    0.01139    0.05358
 35 Ag    0.02448    0.05883   -0.02803
 36 H     0.00045    0.16739    0.62030
 37 O    -0.01241    0.05713   -0.16301
 38 C    -0.14333   -0.40042    0.24812
 39 C     0.18817   -0.29042    0.51206
 40 O    -0.07126   -0.20162   -0.21024

BFGS:    4 03:02:26    -5410.648595        0.6425
System changes: positions 

Initializing position-dependent things.

Density initialized from wave functions
                                                  
                                                  
                                                  
                                                  
                                                  
                                                  
                                                  
                           O                      
                          H                       
                  Ag     OgC     Ag               
                          C                       
            Ag     AAg    AAg      Ag             
              Ag     AAg    AAg      Ag           
                                                  
               AAg    AAg    AAg                  
                                                  
                 Ag     Ag     Ag                 
                                                  
           Ag     AAg    AAg     Ag               
             Ag     Ag     Ag                     
                                                  
               Ag     Ag     Ag                   
                                                  
                                                  
                                                  
                                                  

Positions:
   0 Ag    -0.000000    0.000000    9.999999    ( 0.0000,  0.0000,  0.0000)
   1 Ag     1.496122    0.863786   12.443156    ( 0.0000,  0.0000,  0.0000)
   2 Ag     0.000333    1.721618   14.881772    ( 0.0000,  0.0000,  0.0000)
   3 Ag     2.969957   -0.003998   17.321330    ( 0.0000,  0.0000,  0.0000)
   4 Ag    -1.496122    2.591359    9.999999    ( 0.0000,  0.0000,  0.0000)
   5 Ag     0.000000    3.455145   12.443156    ( 0.0000,  0.0000,  0.0000)
   6 Ag    -1.491253    4.324592   14.883409    ( 0.0000,  0.0000,  0.0000)
   7 Ag     1.490666    2.591108   17.333036    ( 0.0000,  0.0000,  0.0000)
   8 Ag    -2.992244    5.182718    9.999999    ( 0.0000,  0.0000,  0.0000)
   9 Ag    -1.496122    6.046505   12.443156    ( 0.0000,  0.0000,  0.0000)
  10 Ag    -2.990423    6.914272   14.886910    ( 0.0000,  0.0000,  0.0000)
  11 Ag     0.000126    5.164874   17.326299    ( 0.0000,  0.0000,  0.0000)
  12 Ag     2.992244    0.000000    9.999999    ( 0.0000,  0.0000,  0.0000)
  13 Ag     4.488366    0.863786   12.443156    ( 0.0000,  0.0000,  0.0000)
  14 Ag     2.994478    1.729164   14.867746    ( 0.0000,  0.0000,  0.0000)
  15 Ag     6.015244   -0.003228   17.311194    ( 0.0000,  0.0000,  0.0000)
  16 Ag     1.496122    2.591359    9.999999    ( 0.0000,  0.0000,  0.0000)
  17 Ag     2.992244    3.455145   12.443156    ( 0.0000,  0.0000,  0.0000)
  18 Ag     1.491727    4.324424   14.882660    ( 0.0000,  0.0000,  0.0000)
  19 Ag     4.486978    2.689786   17.215021    ( 0.0000,  0.0000,  0.0000)
  20 Ag     0.000000    5.182718    9.999999    ( 0.0000,  0.0000,  0.0000)
  21 Ag     1.496122    6.046505   12.443156    ( 0.0000,  0.0000,  0.0000)
  22 Ag     0.000326    6.902859   14.872554    ( 0.0000,  0.0000,  0.0000)
  23 Ag     2.990742    5.188565   17.330822    ( 0.0000,  0.0000,  0.0000)
  24 Ag     5.984488    0.000000    9.999999    ( 0.0000,  0.0000,  0.0000)
  25 Ag     7.480609    0.863786   12.443156    ( 0.0000,  0.0000,  0.0000)
  26 Ag     5.982223    1.729828   14.868284    ( 0.0000,  0.0000,  0.0000)
  27 Ag     8.977302   -0.000808   17.334461    ( 0.0000,  0.0000,  0.0000)
  28 Ag     4.488366    2.591359    9.999999    ( 0.0000,  0.0000,  0.0000)
  29 Ag     5.984488    3.455145   12.443156    ( 0.0000,  0.0000,  0.0000)
  30 Ag     4.488229    4.313983   14.865873    ( 0.0000,  0.0000,  0.0000)
  31 Ag     7.485828    2.590220   17.331901    ( 0.0000,  0.0000,  0.0000)
  32 Ag     2.992244    5.182718    9.999999    ( 0.0000,  0.0000,  0.0000)
  33 Ag     4.488366    6.046505   12.443156    ( 0.0000,  0.0000,  0.0000)
  34 Ag     2.990628    6.914351   14.886076    ( 0.0000,  0.0000,  0.0000)
  35 Ag     5.985713    5.188816   17.329541    ( 0.0000,  0.0000,  0.0000)
  36 H      4.552847    0.057455   20.755960    ( 0.0000,  0.0000,  0.0000)
  37 O      4.530373   -0.376893   19.891501    ( 0.0000,  0.0000,  0.0000)
  38 C      4.510206    0.597130   18.884934    ( 0.0000,  0.0000,  0.0000)
  39 C      4.488670    1.943048   19.296994    ( 0.0000,  0.0000,  0.0000)
  40 O      4.499862    2.589681   20.312588    ( 0.0000,  0.0000,  0.0000)

Unit cell:
           periodic     x           y           z      points  spacing
  1. axis:    yes    8.976731    0.000000    0.000000    44     0.1767
  2. axis:    yes   -4.488366    7.774077    0.000000    44     0.1767
  3. axis:    no     0.000000    0.000000   27.329469   152     0.1798

  Lengths:   8.976731   8.976731  27.329469
  Angles:   90.000000  90.000000 120.000000

Effective grid spacing dv^(1/3) = 0.1864

     iter     time        total  log10-change:
                         energy  eigst   dens
iter:   1 03:04:14 -5410.724641  -2.57
iter:   2 03:05:01 -5410.698962  -3.40  -2.98
iter:   3 03:05:49 -5410.689111c -3.95  -3.14
iter:   4 03:06:37 -5410.683491c -4.04  -3.29
iter:   5 03:07:25 -5410.681480c -4.40  -3.54
iter:   6 03:08:12 -5410.680978c -4.55  -3.70
iter:   7 03:09:00 -5410.680948c -4.78  -3.83
iter:   8 03:09:47 -5410.680755c -5.35  -3.95
iter:   9 03:10:35 -5410.680872c -5.62  -4.07c
iter:  10 03:11:23 -5410.680771c -5.83  -4.26c
iter:  11 03:12:10 -5410.680765c -6.36  -4.25c
iter:  12 03:12:58 -5410.680747c -6.92  -4.46c
iter:  13 03:13:45 -5410.680744c -6.54  -4.55c
iter:  14 03:14:33 -5410.680742c -7.38  -4.76c
iter:  15 03:15:21 -5410.680746c -7.17  -4.82c
iter:  16 03:16:08 -5410.680743c -7.35  -4.98c
iter:  17 03:16:56 -5410.680743c -7.76c -5.07c

Converged after 17 iterations.

Dipole moment: (-6.531440, -4.682718, -0.211406) |e|*Ang

Energy contributions relative to reference atoms: (reference = -5211671.199730)

Kinetic:       +912.607618
Potential:     -893.857171
External:        +0.000000
XC:            -5434.444262
Entropy (-ST):   -0.375269
Local:           +5.200707
--------------------------
Free energy:   -5410.868377
Extrapolated:  -5410.680743

Showing only first 2 kpts
 Kpt  Band  Eigenvalues  Occupancy
  0   314     -5.12725    1.95477
  0   315     -4.90078    1.63563
  0   316     -4.78479    1.16922
  0   317     -4.66335    0.58939

  1   314     -5.51682    1.99906
  1   315     -5.43154    1.99780
  1   316     -5.17860    1.97269
  1   317     -4.94414    1.74766


Fermi level: -4.75062

No gap

Forces in eV/Ang:
  0 Ag   -0.00161   -0.00496   -0.05375
  1 Ag   -0.03767   -0.02216   -0.00190
  2 Ag    0.00083    0.00156    0.01844
  3 Ag   -0.04478    0.04165   -0.02113
  4 Ag    0.00357   -0.01784   -0.02333
  5 Ag   -0.00232    0.02267    0.05103
  6 Ag   -0.00610    0.01294    0.01477
  7 Ag   -0.02408    0.01100   -0.00509
  8 Ag   -0.01806    0.01064   -0.01563
  9 Ag    0.00005   -0.01920   -0.00363
 10 Ag    0.05709    0.01375    0.05989
 11 Ag    0.00401   -0.13713   -0.04759
 12 Ag    0.00207    0.01602   -0.02001
 13 Ag    0.00168    0.05777   -0.03599
 14 Ag   -0.02314   -0.00829   -0.09890
 15 Ag    0.06199    0.05369   -0.04019
 16 Ag   -0.00420   -0.01028   -0.02958
 17 Ag    0.02008   -0.01886   -0.00465
 18 Ag    0.01123    0.01355    0.00747
 19 Ag   -0.00470    0.31431   -0.09462
 20 Ag    0.01315    0.00305   -0.02370
 21 Ag   -0.00874   -0.02305    0.00049
 22 Ag    0.00238   -0.00730   -0.04435
 23 Ag   -0.03032    0.05570   -0.01483
 24 Ag    0.00245    0.00635   -0.02907
 25 Ag    0.02985   -0.01382    0.00229
 26 Ag    0.02526   -0.00013   -0.10283
 27 Ag    0.01409   -0.00558   -0.02707
 28 Ag    0.00029   -0.01961   -0.00048
 29 Ag   -0.02173   -0.02074   -0.00415
 30 Ag   -0.00370    0.05446   -0.17930
 31 Ag    0.02168    0.00367   -0.01324
 32 Ag    0.00769    0.01441   -0.03406
 33 Ag    0.00194    0.04819    0.04095
 34 Ag   -0.04853    0.01050    0.04256
 35 Ag    0.02566    0.06166   -0.02693
 36 H    -0.01145   -0.00092    0.26920
 37 O     0.01212    0.01746    0.29196
 38 C    -0.11169   -0.38369    0.02314
 39 C     0.12614   -0.39296   -0.10402
 40 O    -0.00643    0.15354    0.31794

BFGS:    5 03:17:21    -5410.680743        0.4256
System changes: positions 

Initializing position-dependent things.

Density initialized from wave functions
                                                  
                                                  
                                                  
                                                  
                                                  
                                                  
                                                  
                           O                      
                          H                       
                  Ag     OgC     Ag               
                          C                       
            Ag     AAg    AAg      Ag             
              Ag     AAg    AAg      Ag           
                                                  
               AAg    AAg    AAg                  
                                                  
                 Ag     Ag     Ag                 
                                                  
           Ag     AAg    AAg     Ag               
             Ag     Ag     Ag                     
                                                  
               Ag     Ag     Ag                   
                                                  
                                                  
                                                  
                                                  

Positions:
   0 Ag    -0.000000    0.000000    9.999999    ( 0.0000,  0.0000,  0.0000)
   1 Ag     1.496122    0.863786   12.443156    ( 0.0000,  0.0000,  0.0000)
   2 Ag     0.000425    1.721708   14.882926    ( 0.0000,  0.0000,  0.0000)
   3 Ag     2.964597   -0.002959   17.318657    ( 0.0000,  0.0000,  0.0000)
   4 Ag    -1.496122    2.591359    9.999999    ( 0.0000,  0.0000,  0.0000)
   5 Ag     0.000000    3.455145   12.443156    ( 0.0000,  0.0000,  0.0000)
   6 Ag    -1.491622    4.325523   14.884508    ( 0.0000,  0.0000,  0.0000)
   7 Ag     1.488829    2.591754   17.332861    ( 0.0000,  0.0000,  0.0000)
   8 Ag    -2.992244    5.182718    9.999999    ( 0.0000,  0.0000,  0.0000)
   9 Ag    -1.496122    6.046505   12.443156    ( 0.0000,  0.0000,  0.0000)
  10 Ag    -2.986922    6.914973   14.890582    ( 0.0000,  0.0000,  0.0000)
  11 Ag     0.000300    5.156444   17.323321    ( 0.0000,  0.0000,  0.0000)
  12 Ag     2.992244    0.000000    9.999999    ( 0.0000,  0.0000,  0.0000)
  13 Ag     4.488366    0.863786   12.443156    ( 0.0000,  0.0000,  0.0000)
  14 Ag     2.993268    1.728730   14.861926    ( 0.0000,  0.0000,  0.0000)
  15 Ag     6.022811   -0.001557   17.305905    ( 0.0000,  0.0000,  0.0000)
  16 Ag     1.496122    2.591359    9.999999    ( 0.0000,  0.0000,  0.0000)
  17 Ag     2.992244    3.455145   12.443156    ( 0.0000,  0.0000,  0.0000)
  18 Ag     1.492385    4.325349   14.883342    ( 0.0000,  0.0000,  0.0000)
  19 Ag     4.486391    2.717190   17.196861    ( 0.0000,  0.0000,  0.0000)
  20 Ag     0.000000    5.182718    9.999999    ( 0.0000,  0.0000,  0.0000)
  21 Ag     1.496122    6.046505   12.443156    ( 0.0000,  0.0000,  0.0000)
  22 Ag     0.000477    6.902391   14.869396    ( 0.0000,  0.0000,  0.0000)
  23 Ag     2.989171    5.191461   17.329885    ( 0.0000,  0.0000,  0.0000)
  24 Ag     5.984488    0.000000    9.999999    ( 0.0000,  0.0000,  0.0000)
  25 Ag     7.480609    0.863786   12.443156    ( 0.0000,  0.0000,  0.0000)
  26 Ag     5.983507    1.729825   14.862413    ( 0.0000,  0.0000,  0.0000)
  27 Ag     8.977936   -0.001163   17.332858    ( 0.0000,  0.0000,  0.0000)
  28 Ag     4.488366    2.591359    9.999999    ( 0.0000,  0.0000,  0.0000)
  29 Ag     5.984488    3.455145   12.443156    ( 0.0000,  0.0000,  0.0000)
  30 Ag     4.488058    4.315913   14.856702    ( 0.0000,  0.0000,  0.0000)
  31 Ag     7.487552    2.590420   17.331204    ( 0.0000,  0.0000,  0.0000)
  32 Ag     2.992244    5.182718    9.999999    ( 0.0000,  0.0000,  0.0000)
  33 Ag     4.488366    6.046505   12.443156    ( 0.0000,  0.0000,  0.0000)
  34 Ag     2.987479    6.914937   14.888937    ( 0.0000,  0.0000,  0.0000)
  35 Ag     5.987052    5.192005   17.327900    ( 0.0000,  0.0000,  0.0000)
  36 H      4.552386    0.060017   20.777132    ( 0.0000,  0.0000,  0.0000)
  37 O      4.530820   -0.375821   19.905082    ( 0.0000,  0.0000,  0.0000)
  38 C      4.501825    0.587264   18.891621    ( 0.0000,  0.0000,  0.0000)
  39 C      4.498382    1.916310   19.313782    ( 0.0000,  0.0000,  0.0000)
  40 O      4.496889    2.585318   20.314066    ( 0.0000,  0.0000,  0.0000)

Unit cell:
           periodic     x           y           z      points  spacing
  1. axis:    yes    8.976731    0.000000    0.000000    44     0.1767
  2. axis:    yes   -4.488366    7.774077    0.000000    44     0.1767
  3. axis:    no     0.000000    0.000000   27.329469   152     0.1798

  Lengths:   8.976731   8.976731  27.329469
  Angles:   90.000000  90.000000 120.000000

Effective grid spacing dv^(1/3) = 0.1864

     iter     time        total  log10-change:
                         energy  eigst   dens
iter:   1 03:19:09 -5410.736170  -2.25
iter:   2 03:19:57 -5410.722546  -3.17  -3.04
iter:   3 03:20:45 -5410.718685c -3.79  -3.14
iter:   4 03:21:32 -5410.710715c -3.80  -3.25
iter:   5 03:22:20 -5410.710368c -4.24  -3.49
iter:   6 03:23:08 -5410.710233c -4.54  -3.65
iter:   7 03:23:55 -5410.709579c -4.80  -3.75
iter:   8 03:24:43 -5410.709283c -5.17  -3.89
iter:   9 03:25:31 -5410.709437c -5.48  -4.11c
iter:  10 03:26:18 -5410.709327c -6.17  -4.23c
iter:  11 03:27:06 -5410.709368c -6.28  -4.44c
iter:  12 03:27:54 -5410.709346c -6.56  -4.59c
iter:  13 03:28:42 -5410.709355c -7.18  -4.65c
iter:  14 03:29:29 -5410.709366c -7.03  -4.72c
iter:  15 03:30:17 -5410.709369c -7.38  -4.83c
iter:  16 03:31:05 -5410.709366c -7.68c -4.92c

Converged after 16 iterations.

Dipole moment: (-6.577904, -4.895389, -0.196612) |e|*Ang

Energy contributions relative to reference atoms: (reference = -5211671.199730)

Kinetic:       +912.776084
Potential:     -894.013353
External:        +0.000000
XC:            -5434.483064
Entropy (-ST):   -0.373733
Local:           +5.197833
--------------------------
Free energy:   -5410.896233
Extrapolated:  -5410.709366

Showing only first 2 kpts
 Kpt  Band  Eigenvalues  Occupancy
  0   314     -5.10696    1.95115
  0   315     -4.89671    1.65983
  0   316     -4.76833    1.14945
  0   317     -4.64877    0.58041

  1   314     -5.50220    1.99904
  1   315     -5.41871    1.99779
  1   316     -5.16946    1.97355
  1   317     -4.92760    1.73840


Fermi level: -4.73821

No gap

Forces in eV/Ang:
  0 Ag   -0.00162   -0.00510   -0.04929
  1 Ag   -0.04328   -0.02675   -0.00505
  2 Ag   -0.00013    0.00106    0.00900
  3 Ag    0.01457    0.06151   -0.00229
  4 Ag    0.00466   -0.01697   -0.01921
  5 Ag   -0.00255    0.02253    0.05386
  6 Ag   -0.00598    0.00578    0.00277
  7 Ag    0.00029    0.00665   -0.00874
  8 Ag   -0.01718    0.01116   -0.01218
  9 Ag   -0.00278   -0.01959   -0.00548
 10 Ag    0.04572    0.01639    0.04026
 11 Ag    0.00550   -0.10533   -0.03761
 12 Ag    0.00042    0.01464   -0.01701
 13 Ag    0.00216    0.05523   -0.04454
 14 Ag   -0.01257   -0.00537   -0.07201
 15 Ag   -0.02805    0.07088    0.01749
 16 Ag   -0.00493   -0.00962   -0.02660
 17 Ag    0.01505   -0.01799   -0.01564
 18 Ag    0.01031    0.00685   -0.00349
 19 Ag    0.00799    0.14628    0.10472
 20 Ag    0.01358    0.00253   -0.01937
 21 Ag   -0.00662   -0.02321   -0.00212
 22 Ag    0.00211    0.00013   -0.02259
 23 Ag   -0.03266    0.05595   -0.01105
 24 Ag    0.00405    0.00422   -0.02622
 25 Ag    0.03517   -0.01762   -0.00185
 26 Ag    0.01567    0.00284   -0.07976
 27 Ag    0.01659   -0.00098   -0.02169
 28 Ag   -0.00016   -0.01803    0.00121
 29 Ag   -0.01629   -0.01908   -0.01520
 30 Ag   -0.00387    0.07027   -0.18287
 31 Ag   -0.00371   -0.00003   -0.01451
 32 Ag    0.00654    0.01491   -0.03004
 33 Ag    0.00298    0.05893    0.04076
 34 Ag   -0.03434    0.01250    0.02151
 35 Ag    0.02678    0.06015   -0.02187
 36 H    -0.01776   -0.12601   -0.08583
 37 O     0.05192   -0.09615    0.58635
 38 C    -0.06676   -0.35674   -0.07483
 39 C     0.07468   -0.07026   -0.12625
 40 O     0.02677    0.12982    0.21714

BFGS:    6 03:31:27    -5410.709366        0.5964
System changes: positions 

Initializing position-dependent things.

Density initialized from wave functions
                                                  
                                                  
                                                  
                                                  
                                                  
                                                  
                                                  
                           O                      
                          H                       
                  Ag     OgC     Ag               
                          C                       
            Ag     AAg    AAg      Ag             
              Ag     AAg     Ag      Ag           
                            Ag                    
               AAg    AAg    AAg                  
                                                  
                 Ag     Ag     Ag                 
                                                  
           Ag     AAg    AAg     Ag               
             Ag     Ag     Ag                     
                                                  
               Ag     Ag     Ag                   
                                                  
                                                  
                                                  
                                                  

Positions:
   0 Ag    -0.000000    0.000000    9.999999    ( 0.0000,  0.0000,  0.0000)
   1 Ag     1.496122    0.863786   12.443156    ( 0.0000,  0.0000,  0.0000)
   2 Ag     0.000489    1.721790   14.883917    ( 0.0000,  0.0000,  0.0000)
   3 Ag     2.960941   -0.001097   17.316628    ( 0.0000,  0.0000,  0.0000)
   4 Ag    -1.496122    2.591359    9.999999    ( 0.0000,  0.0000,  0.0000)
   5 Ag     0.000000    3.455145   12.443156    ( 0.0000,  0.0000,  0.0000)
   6 Ag    -1.492009    4.326302   14.885344    ( 0.0000,  0.0000,  0.0000)
   7 Ag     1.487535    2.592344   17.332558    ( 0.0000,  0.0000,  0.0000)
   8 Ag    -2.992244    5.182718    9.999999    ( 0.0000,  0.0000,  0.0000)
   9 Ag    -1.496122    6.046505   12.443156    ( 0.0000,  0.0000,  0.0000)
  10 Ag    -2.983510    6.915803   14.893980    ( 0.0000,  0.0000,  0.0000)
  11 Ag     0.000534    5.148366   17.320459    ( 0.0000,  0.0000,  0.0000)
  12 Ag     2.992244    0.000000    9.999999    ( 0.0000,  0.0000,  0.0000)
  13 Ag     4.488366    0.863786   12.443156    ( 0.0000,  0.0000,  0.0000)
  14 Ag     2.992190    1.728324   14.856383    ( 0.0000,  0.0000,  0.0000)
  15 Ag     6.027819    0.000927   17.302342    ( 0.0000,  0.0000,  0.0000)
  16 Ag     1.496122    2.591359    9.999999    ( 0.0000,  0.0000,  0.0000)
  17 Ag     2.992244    3.455145   12.443156    ( 0.0000,  0.0000,  0.0000)
  18 Ag     1.493062    4.326143   14.883756    ( 0.0000,  0.0000,  0.0000)
  19 Ag     4.486135    2.740260   17.185098    ( 0.0000,  0.0000,  0.0000)
  20 Ag     0.000000    5.182718    9.999999    ( 0.0000,  0.0000,  0.0000)
  21 Ag     1.496122    6.046505   12.443156    ( 0.0000,  0.0000,  0.0000)
  22 Ag     0.000627    6.902076   14.866683    ( 0.0000,  0.0000,  0.0000)
  23 Ag     2.987409    5.194612   17.328999    ( 0.0000,  0.0000,  0.0000)
  24 Ag     5.984488    0.000000    9.999999    ( 0.0000,  0.0000,  0.0000)
  25 Ag     7.480609    0.863786   12.443156    ( 0.0000,  0.0000,  0.0000)
  26 Ag     5.984696    1.729887   14.856686    ( 0.0000,  0.0000,  0.0000)
  27 Ag     8.978708   -0.001426   17.331281    ( 0.0000,  0.0000,  0.0000)
  28 Ag     4.488366    2.591359    9.999999    ( 0.0000,  0.0000,  0.0000)
  29 Ag     5.984488    3.455145   12.443156    ( 0.0000,  0.0000,  0.0000)
  30 Ag     4.487861    4.318607   14.846608    ( 0.0000,  0.0000,  0.0000)
  31 Ag     7.488699    2.590555   17.330414    ( 0.0000,  0.0000,  0.0000)
  32 Ag     2.992244    5.182718    9.999999    ( 0.0000,  0.0000,  0.0000)
  33 Ag     4.488366    6.046505   12.443156    ( 0.0000,  0.0000,  0.0000)
  34 Ag     2.984538    6.915612   14.891398    ( 0.0000,  0.0000,  0.0000)
  35 Ag     5.988531    5.195441   17.326295    ( 0.0000,  0.0000,  0.0000)
  36 H      4.551791    0.060804   20.792989    ( 0.0000,  0.0000,  0.0000)
  37 O      4.532167   -0.378213   19.923075    ( 0.0000,  0.0000,  0.0000)
  38 C      4.494415    0.573642   18.896161    ( 0.0000,  0.0000,  0.0000)
  39 C      4.506990    1.897199   19.327231    ( 0.0000,  0.0000,  0.0000)
  40 O      4.495014    2.582543   20.315906    ( 0.0000,  0.0000,  0.0000)

Unit cell:
           periodic     x           y           z      points  spacing
  1. axis:    yes    8.976731    0.000000    0.000000    44     0.1767
  2. axis:    yes   -4.488366    7.774077    0.000000    44     0.1767
  3. axis:    no     0.000000    0.000000   27.329469   152     0.1798

  Lengths:   8.976731   8.976731  27.329469
  Angles:   90.000000  90.000000 120.000000

Effective grid spacing dv^(1/3) = 0.1864

     iter     time        total  log10-change:
                         energy  eigst   dens
iter:   1 03:33:16 -5410.771241  -2.39
iter:   2 03:34:03 -5410.738949  -3.28  -2.91
iter:   3 03:34:51 -5410.733156c -3.93  -3.12
iter:   4 03:35:39 -5410.727363c -3.96  -3.34
iter:   5 03:36:26 -5410.727010c -4.41  -3.57
iter:   6 03:37:14 -5410.726933c -4.89  -3.73
iter:   7 03:38:02 -5410.726639c -4.91  -3.80
iter:   8 03:38:49 -5410.726569c -5.52  -4.04c
iter:   9 03:39:37 -5410.726522c -5.65  -4.13c
iter:  10 03:40:25 -5410.726524c -6.18  -4.41c
iter:  11 03:41:12 -5410.726523c -6.67  -4.46c
iter:  12 03:42:00 -5410.726507c -6.44  -4.52c
iter:  13 03:42:48 -5410.726518c -7.19  -4.69c
iter:  14 03:43:35 -5410.726519c -7.36  -4.79c
iter:  15 03:44:23 -5410.726522c -7.88c -4.98c

Converged after 15 iterations.

Dipole moment: (-6.519740, -5.280971, -0.187452) |e|*Ang

Energy contributions relative to reference atoms: (reference = -5211671.199730)

Kinetic:       +912.646871
Potential:     -893.938226
External:        +0.000000
XC:            -5434.445546
Entropy (-ST):   -0.372052
Local:           +5.196404
--------------------------
Free energy:   -5410.912548
Extrapolated:  -5410.726522

Showing only first 2 kpts
 Kpt  Band  Eigenvalues  Occupancy
  0   314     -5.09602    1.94909
  0   315     -4.89557    1.67524
  0   316     -4.75906    1.13686
  0   317     -4.64102    0.57609

  1   314     -5.49518    1.99904
  1   315     -5.41121    1.99777
  1   316     -5.16464    1.97404
  1   317     -4.91958    1.73537


Fermi level: -4.73151

No gap

Forces in eV/Ang:
  0 Ag   -0.00163   -0.00469   -0.05355
  1 Ag   -0.04631   -0.02993   -0.00752
  2 Ag   -0.00099    0.00235    0.00602
  3 Ag    0.04566    0.06022    0.01871
  4 Ag    0.00487   -0.01662   -0.02175
  5 Ag   -0.00286    0.02297    0.05730
  6 Ag   -0.00566    0.00030   -0.00368
  7 Ag    0.01299    0.00287   -0.01012
  8 Ag   -0.01621    0.01116   -0.01541
  9 Ag   -0.00473   -0.01992   -0.00680
 10 Ag    0.03044    0.01440    0.02806
 11 Ag    0.00545   -0.07774   -0.03063
 12 Ag    0.00018    0.01430   -0.01944
 13 Ag    0.00282    0.05498   -0.05395
 14 Ag   -0.00385    0.00266   -0.04826
 15 Ag   -0.08545    0.06749    0.06445
 16 Ag   -0.00473   -0.00958   -0.03018
 17 Ag    0.01136   -0.01922   -0.02497
 18 Ag    0.00901    0.00213   -0.00926
 19 Ag    0.01990    0.04011    0.18556
 20 Ag    0.01359    0.00281   -0.02234
 21 Ag   -0.00516   -0.02303   -0.00389
 22 Ag    0.00231    0.00081   -0.00556
 23 Ag   -0.03254    0.06091   -0.00871
 24 Ag    0.00428    0.00338   -0.02876
 25 Ag    0.03769   -0.02030   -0.00513
 26 Ag    0.00800    0.01031   -0.05915
 27 Ag    0.01887    0.00029   -0.01647
 28 Ag   -0.00058   -0.01784   -0.00069
 29 Ag   -0.01222   -0.01966   -0.02495
 30 Ag   -0.00360    0.08182   -0.17099
 31 Ag   -0.01582   -0.00204   -0.01393
 32 Ag    0.00564    0.01485   -0.03275
 33 Ag    0.00386    0.06874    0.04049
 34 Ag   -0.01771    0.01063    0.00963
 35 Ag    0.02657    0.06374   -0.01761
 36 H    -0.01359   -0.10110   -0.10425
 37 O     0.08352   -0.22050    0.53653
 38 C    -0.03039   -0.24580   -0.00378
 39 C     0.00014    0.03605   -0.17126
 40 O     0.04020    0.08048    0.10942

BFGS:    7 03:44:45    -5410.726522        0.5861
System changes: positions 

Initializing position-dependent things.

Density initialized from wave functions
                                                  
                                                  
                                                  
                                                  
                                                  
                                                  
                                                  
                           O                      
                          H                       
                  Ag     AOC     Ag               
                          C                       
            Ag     AAg    AAg      Ag             
              Ag     AAg     Ag      Ag           
                            Ag                    
               AAg    AAg    AAg                  
                                                  
                 Ag     Ag     Ag                 
                                                  
           Ag     AAg    AAg     Ag               
             Ag     Ag     Ag                     
                                                  
               Ag     Ag     Ag                   
                                                  
                                                  
                                                  
                                                  

Positions:
   0 Ag    -0.000000    0.000000    9.999999    ( 0.0000,  0.0000,  0.0000)
   1 Ag     1.496122    0.863786   12.443156    ( 0.0000,  0.0000,  0.0000)
   2 Ag     0.000539    1.721944   14.885182    ( 0.0000,  0.0000,  0.0000)
   3 Ag     2.957776    0.002153   17.314836    ( 0.0000,  0.0000,  0.0000)
   4 Ag    -1.496122    2.591359    9.999999    ( 0.0000,  0.0000,  0.0000)
   5 Ag     0.000000    3.455145   12.443156    ( 0.0000,  0.0000,  0.0000)
   6 Ag    -1.492564    4.327173   14.886208    ( 0.0000,  0.0000,  0.0000)
   7 Ag     1.486347    2.593061   17.332006    ( 0.0000,  0.0000,  0.0000)
   8 Ag    -2.992244    5.182718    9.999999    ( 0.0000,  0.0000,  0.0000)
   9 Ag    -1.496122    6.046505   12.443156    ( 0.0000,  0.0000,  0.0000)
  10 Ag    -2.979087    6.917022   14.898391    ( 0.0000,  0.0000,  0.0000)
  11 Ag     0.000906    5.137712   17.316607    ( 0.0000,  0.0000,  0.0000)
  12 Ag     2.992244    0.000000    9.999999    ( 0.0000,  0.0000,  0.0000)
  13 Ag     4.488366    0.863786   12.443156    ( 0.0000,  0.0000,  0.0000)
  14 Ag     2.990922    1.727977   14.849187    ( 0.0000,  0.0000,  0.0000)
  15 Ag     6.031588    0.005024   17.299824    ( 0.0000,  0.0000,  0.0000)
  16 Ag     1.496122    2.591359    9.999999    ( 0.0000,  0.0000,  0.0000)
  17 Ag     2.992244    3.455145   12.443156    ( 0.0000,  0.0000,  0.0000)
  18 Ag     1.494011    4.327075   14.884028    ( 0.0000,  0.0000,  0.0000)
  19 Ag     4.486312    2.767079   17.175427    ( 0.0000,  0.0000,  0.0000)
  20 Ag     0.000000    5.182718    9.999999    ( 0.0000,  0.0000,  0.0000)
  21 Ag     1.496122    6.046505   12.443156    ( 0.0000,  0.0000,  0.0000)
  22 Ag     0.000850    6.901715   14.863548    ( 0.0000,  0.0000,  0.0000)
  23 Ag     2.984741    5.199494   17.327822    ( 0.0000,  0.0000,  0.0000)
  24 Ag     5.984488    0.000000    9.999999    ( 0.0000,  0.0000,  0.0000)
  25 Ag     7.480609    0.863786   12.443156    ( 0.0000,  0.0000,  0.0000)
  26 Ag     5.986182    1.730226   14.849044    ( 0.0000,  0.0000,  0.0000)
  27 Ag     8.979985   -0.001722   17.329170    ( 0.0000,  0.0000,  0.0000)
  28 Ag     4.488366    2.591359    9.999999    ( 0.0000,  0.0000,  0.0000)
  29 Ag     5.984488    3.455145   12.443156    ( 0.0000,  0.0000,  0.0000)
[...]
  31 Ag     7.480875    2.591796   17.328897    ( 0.0000,  0.0000,  0.0000)
  32 Ag     2.992244    5.182718    9.999999    ( 0.0000,  0.0000,  0.0000)
  33 Ag     4.488366    6.046505   12.443156    ( 0.0000,  0.0000,  0.0000)
  34 Ag     2.983725    6.941415   14.905121    ( 0.0000,  0.0000,  0.0000)
  35 Ag     5.983334    5.220368   17.316776    ( 0.0000,  0.0000,  0.0000)
  36 H      4.537736    0.089460   20.967299    ( 0.0000,  0.0000,  0.0000)
  37 O      4.530278   -0.443581   20.153368    ( 0.0000,  0.0000,  0.0000)
  38 C      4.492441    0.389950   19.049878    ( 0.0000,  0.0000,  0.0000)
  39 C      4.507395    1.803945   19.343199    ( 0.0000,  0.0000,  0.0000)
  40 O      4.487135    2.416701   20.390689    ( 0.0000,  0.0000,  0.0000)

Unit cell:
           periodic     x           y           z      points  spacing
  1. axis:    yes    8.976731    0.000000    0.000000    44     0.1767
  2. axis:    yes   -4.488366    7.774077    0.000000    44     0.1767
  3. axis:    no     0.000000    0.000000   27.329469   152     0.1798

  Lengths:   8.976731   8.976731  27.329469
  Angles:   90.000000  90.000000 120.000000

Effective grid spacing dv^(1/3) = 0.1864

     iter     time        total  log10-change:
                         energy  eigst   dens
iter:   1 08:07:02 -5410.854052  -2.40
iter:   2 08:07:50 -5410.844838  -3.32  -3.02
iter:   3 08:08:37 -5410.841069c -3.96  -3.16
iter:   4 08:09:25 -5410.837247c -4.02  -3.27
iter:   5 08:10:13 -5410.836246c -4.44  -3.61
iter:   6 08:11:00 -5410.836030c -4.87  -3.74
iter:   7 08:11:48 -5410.836318c -5.11  -3.88
iter:   8 08:12:35 -5410.836184c -5.37  -3.98
iter:   9 08:13:23 -5410.836159c -6.01  -4.41c
iter:  10 08:14:11 -5410.836192c -6.26  -4.41c
iter:  11 08:14:58 -5410.836141c -6.66  -4.61c
iter:  12 08:15:46 -5410.836165c -6.89  -4.70c
iter:  13 08:16:33 -5410.836169c -7.34  -4.88c
iter:  14 08:17:21 -5410.836177c -7.52c -4.94c

Converged after 14 iterations.

Dipole moment: (-4.399321, -10.028613, -0.285747) |e|*Ang

Energy contributions relative to reference atoms: (reference = -5211671.199730)

Kinetic:       +906.678338
Potential:     -889.334555
External:        +0.000000
XC:            -5433.184274
Entropy (-ST):   -0.371557
Local:           +5.190093
--------------------------
Free energy:   -5411.021955
Extrapolated:  -5410.836177

Showing only first 2 kpts
 Kpt  Band  Eigenvalues  Occupancy
  0   314     -5.18697    1.95421
  0   315     -4.95073    1.60158
  0   316     -4.85108    1.19486
  0   317     -4.73942    0.65395

  1   314     -5.59465    1.99921
  1   315     -5.47441    1.99736
  1   316     -5.20195    1.96045
  1   317     -5.02651    1.79116


Fermi level: -4.81161

No gap

Forces in eV/Ang:
  0 Ag   -0.00177   -0.00782   -0.04686
  1 Ag   -0.03096   -0.01654    0.03548
  2 Ag    0.00126   -0.00152    0.01599
  3 Ag   -0.00334   -0.02827   -0.02783
  4 Ag    0.00288   -0.02065   -0.02045
  5 Ag   -0.00305    0.03018    0.06008
  6 Ag    0.01318   -0.00617    0.00111
  7 Ag   -0.00112   -0.00326   -0.00162
  8 Ag   -0.01995    0.01423   -0.01468
  9 Ag   -0.00462   -0.01178    0.02205
 10 Ag    0.01346   -0.00038   -0.00163
 11 Ag   -0.00177   -0.01621   -0.00448
 12 Ag    0.00511    0.02001   -0.01870
 13 Ag    0.00406    0.06196   -0.02426
 14 Ag   -0.02552   -0.02751    0.01089
 15 Ag   -0.00183   -0.00345   -0.02694
 16 Ag   -0.00079   -0.01286   -0.03190
 17 Ag    0.01188   -0.03685   -0.00640
 18 Ag   -0.00830   -0.00517   -0.00221
 19 Ag   -0.00851   -0.00271    0.02302
 20 Ag    0.01088    0.00325   -0.01913
 21 Ag   -0.00237   -0.01024    0.02532
 22 Ag    0.00427   -0.01001   -0.01402
 23 Ag   -0.02149    0.02122   -0.01333
 24 Ag   -0.00116    0.01131   -0.02460
 25 Ag    0.03053   -0.00698    0.02881
 26 Ag    0.02525   -0.02477    0.00728
 27 Ag    0.00732    0.00579    0.00756
 28 Ag   -0.00233   -0.02601   -0.00288
 29 Ag   -0.01062   -0.02853   -0.01487
 30 Ag    0.00207    0.00966    0.01554
 31 Ag    0.02356   -0.00196    0.00420
 32 Ag    0.01217    0.01485   -0.03480
 33 Ag    0.00806    0.07871    0.06061
 34 Ag   -0.01667    0.00396    0.01159
 35 Ag    0.02423    0.02546   -0.00814
 36 H    -0.00855   -0.02169    0.03736
 37 O     0.01677    0.04040   -0.04884
 38 C    -0.01022    0.02284    0.01105
 39 C    -0.00498   -0.01231    0.04735
 40 O    -0.00806   -0.04269   -0.11527

BFGS:   31 08:17:43    -5410.836177        0.1232
System changes: positions 

Initializing position-dependent things.

Density initialized from wave functions
                                                  
                                                  
                                                  
                                                  
                                                  
                                                  
                                                  
                           O                      
                          H                       
                  Ag     OgC     Ag               
                          C                       
            Ag     AAg    AAg      Ag             
                      Ag     Ag      Ag           
              Ag     Ag     Ag                    
               AAg    AAg    AAg                  
                                                  
                 Ag     Ag     Ag                 
                                                  
           Ag     AAg    AAg     Ag               
             Ag     Ag     Ag                     
                                                  
               Ag     Ag     Ag                   
                                                  
                                                  
                                                  
                                                  

Positions:
   0 Ag    -0.000000    0.000000    9.999999    ( 0.0000,  0.0000,  0.0000)
   1 Ag     1.496122    0.863786   12.443156    ( 0.0000,  0.0000,  0.0000)
   2 Ag     0.009032    1.738777   14.885416    ( 0.0000,  0.0000,  0.0000)
   3 Ag     2.980591   -0.004437   17.398799    ( 0.0000,  0.0000,  0.0000)
   4 Ag    -1.496122    2.591359    9.999999    ( 0.0000,  0.0000,  0.0000)
   5 Ag     0.000000    3.455145   12.443156    ( 0.0000,  0.0000,  0.0000)
   6 Ag    -1.498038    4.336696   14.882503    ( 0.0000,  0.0000,  0.0000)
   7 Ag     1.517509    2.596039   17.340143    ( 0.0000,  0.0000,  0.0000)
   8 Ag    -2.992244    5.182718    9.999999    ( 0.0000,  0.0000,  0.0000)
   9 Ag    -1.496122    6.046505   12.443156    ( 0.0000,  0.0000,  0.0000)
  10 Ag    -2.969755    6.938564   14.910046    ( 0.0000,  0.0000,  0.0000)
  11 Ag     0.007504    5.129982   17.308818    ( 0.0000,  0.0000,  0.0000)
  12 Ag     2.992244    0.000000    9.999999    ( 0.0000,  0.0000,  0.0000)
  13 Ag     4.488366    0.863786   12.443156    ( 0.0000,  0.0000,  0.0000)
  14 Ag     3.009458    1.732182   14.882318    ( 0.0000,  0.0000,  0.0000)
  15 Ag     6.004695   -0.004217   17.391126    ( 0.0000,  0.0000,  0.0000)
  16 Ag     1.496122    2.591359    9.999999    ( 0.0000,  0.0000,  0.0000)
  17 Ag     2.992244    3.455145   12.443156    ( 0.0000,  0.0000,  0.0000)
  18 Ag     1.504391    4.336741   14.880604    ( 0.0000,  0.0000,  0.0000)
  19 Ag     4.514613    2.741870   17.302178    ( 0.0000,  0.0000,  0.0000)
  20 Ag     0.000000    5.182718    9.999999    ( 0.0000,  0.0000,  0.0000)
  21 Ag     1.496122    6.046505   12.443156    ( 0.0000,  0.0000,  0.0000)
  22 Ag     0.005331    6.913022   14.883174    ( 0.0000,  0.0000,  0.0000)
  23 Ag     2.999207    5.218202   17.319156    ( 0.0000,  0.0000,  0.0000)
  24 Ag     5.984488    0.000000    9.999999    ( 0.0000,  0.0000,  0.0000)
  25 Ag     7.480609    0.863786   12.443156    ( 0.0000,  0.0000,  0.0000)
  26 Ag     5.978425    1.737811   14.876649    ( 0.0000,  0.0000,  0.0000)
  27 Ag     8.982176    0.035562   17.338074    ( 0.0000,  0.0000,  0.0000)
  28 Ag     4.488366    2.591359    9.999999    ( 0.0000,  0.0000,  0.0000)
  29 Ag     5.984488    3.455145   12.443156    ( 0.0000,  0.0000,  0.0000)
  30 Ag     4.489720    4.327452   14.845444    ( 0.0000,  0.0000,  0.0000)
  31 Ag     7.481834    2.591220   17.326998    ( 0.0000,  0.0000,  0.0000)
  32 Ag     2.992244    5.182718    9.999999    ( 0.0000,  0.0000,  0.0000)
  33 Ag     4.488366    6.046505   12.443156    ( 0.0000,  0.0000,  0.0000)
  34 Ag     2.981604    6.942486   14.904239    ( 0.0000,  0.0000,  0.0000)
  35 Ag     5.983929    5.221919   17.314691    ( 0.0000,  0.0000,  0.0000)
  36 H      4.538670    0.085577   20.967721    ( 0.0000,  0.0000,  0.0000)
  37 O      4.532732   -0.443010   20.150857    ( 0.0000,  0.0000,  0.0000)
  38 C      4.491556    0.391825   19.047615    ( 0.0000,  0.0000,  0.0000)
  39 C      4.509148    1.801543   19.339820    ( 0.0000,  0.0000,  0.0000)
  40 O      4.490944    2.427485   20.377668    ( 0.0000,  0.0000,  0.0000)

Unit cell:
           periodic     x           y           z      points  spacing
  1. axis:    yes    8.976731    0.000000    0.000000    44     0.1767
  2. axis:    yes   -4.488366    7.774077    0.000000    44     0.1767
  3. axis:    no     0.000000    0.000000   27.329469   152     0.1798

  Lengths:   8.976731   8.976731  27.329469
  Angles:   90.000000  90.000000 120.000000

Effective grid spacing dv^(1/3) = 0.1864

     iter     time        total  log10-change:
                         energy  eigst   dens
iter:   1 08:19:31 -5410.840356  -3.02
iter:   2 08:20:19 -5410.838844  -3.94  -3.36
iter:   3 08:21:06 -5410.836951c -4.36  -3.53
iter:   4 08:21:54 -5410.836814c -4.70  -3.76
iter:   5 08:22:42 -5410.836871c -5.37  -3.90
iter:   6 08:23:29 -5410.836823c -5.47  -4.07c
iter:   7 08:24:17 -5410.836669c -5.79  -4.17c
iter:   8 08:25:04 -5410.836701c -6.11  -4.28c
iter:   9 08:25:52 -5410.836746c -6.56  -4.61c
iter:  10 08:26:40 -5410.836742c -7.31  -4.70c
iter:  11 08:27:27 -5410.836738c -7.10  -4.74c
iter:  12 08:28:15 -5410.836736c -7.49c -5.07c

Converged after 12 iterations.

Dipole moment: (-4.566794, -9.908406, -0.276266) |e|*Ang

Energy contributions relative to reference atoms: (reference = -5211671.199730)

Kinetic:       +907.136293
Potential:     -889.689561
External:        +0.000000
XC:            -5433.289102
Entropy (-ST):   -0.372072
Local:           +5.191670
--------------------------
Free energy:   -5411.022772
Extrapolated:  -5410.836736

Showing only first 2 kpts
 Kpt  Band  Eigenvalues  Occupancy
  0   314     -5.17645    1.95280
  0   315     -4.94381    1.60318
  0   316     -4.84441    1.19849
  0   317     -4.73295    0.65819

  1   314     -5.58376    1.99918
  1   315     -5.46793    1.99738
  1   316     -5.19666    1.96127
  1   317     -5.01703    1.78728


Fermi level: -4.80418

No gap

Forces in eV/Ang:
  0 Ag   -0.00181   -0.00801   -0.04713
  1 Ag   -0.03098   -0.01576    0.03019
  2 Ag    0.00146   -0.00112    0.01457
  3 Ag   -0.00126   -0.01981   -0.02478
  4 Ag    0.00231   -0.02017   -0.02004
  5 Ag   -0.00333    0.02964    0.05727
  6 Ag    0.01017   -0.00457    0.00145
  7 Ag    0.00005   -0.00062   -0.00162
  8 Ag   -0.02027    0.01349   -0.01408
  9 Ag   -0.00496   -0.01299    0.01695
 10 Ag    0.00799   -0.00177    0.00197
 11 Ag   -0.00064   -0.01006   -0.00560
 12 Ag    0.00504    0.02011   -0.01837
 13 Ag    0.00345    0.06333   -0.02595
 14 Ag   -0.01710   -0.02034    0.00609
 15 Ag   -0.00331   -0.00165   -0.01626
 16 Ag   -0.00043   -0.01237   -0.03162
 17 Ag    0.01475   -0.03578   -0.00445
 18 Ag   -0.00651   -0.00410   -0.00085
 19 Ag   -0.00201   -0.00161    0.02512
 20 Ag    0.01115    0.00294   -0.01936
 21 Ag   -0.00138   -0.01076    0.02127
 22 Ag    0.00321   -0.00821   -0.00840
 23 Ag   -0.01257    0.01290   -0.00946
 24 Ag   -0.00109    0.01130   -0.02445
 25 Ag    0.03008   -0.00738    0.02472
 26 Ag    0.01692   -0.01765    0.00429
 27 Ag    0.00459    0.00435    0.00348
 28 Ag   -0.00218   -0.02521   -0.00262
 29 Ag   -0.01359   -0.02712   -0.01303
 30 Ag    0.00188   -0.00679    0.00905
 31 Ag    0.01507   -0.00113    0.00444
 32 Ag    0.01231    0.01426   -0.03446
 33 Ag    0.00730    0.08050    0.05777
 34 Ag   -0.01038    0.00202    0.01007
 35 Ag    0.01541    0.01509   -0.00484
 36 H    -0.00747   -0.01497    0.01930
 37 O     0.01157    0.01423   -0.04335
 38 C    -0.00782    0.00151   -0.00306
 39 C    -0.01117   -0.01358   -0.02700
 40 O    -0.01622   -0.02987    0.03051

BFGS:   32 08:28:37    -5410.836736        0.0471
Timing:                                      incl.     excl.
-------------------------------------------------------------------
Density initialized from wave functions:     5.371     5.370   0.0% |
 Symmetrize density:                         0.001     0.001   0.0% |
Forces:                                    748.385   748.385   3.0% ||
Hamiltonian:                               107.502     0.004   0.0% |
 Atomic:                                     3.740     0.020   0.0% |
  XC Correction:                             3.720     3.720   0.0% |
 Calculate atomic Hamiltonians:              1.279     1.279   0.0% |
 Communicate:                                0.262     0.262   0.0% |
 Hartree integrate/restrict:                 0.374     0.374   0.0% |
 Initialize Hamiltonian:                     0.001     0.001   0.0% |
 Poisson:                                    5.748     0.264   0.0% |
  Communicate from 1D:                       0.531     0.531   0.0% |
  Communicate from 2D:                       0.963     0.963   0.0% |
  Communicate to 1D:                         0.268     0.268   0.0% |
  Communicate to 2D:                         1.129     1.129   0.0% |
  FFT 1D:                                    1.343     1.343   0.0% |
  FFT 2D:                                    1.250     1.250   0.0% |
 XC 3D grid:                                95.841    25.191   0.1% |
  VdW-DF integral:                          70.649     4.836   0.0% |
   Convolution:                              7.932     7.932   0.0% |
   FFT:                                      4.829     4.829   0.0% |
   gather:                                  17.318    17.318   0.1% |
   hmm1:                                     1.523     1.523   0.0% |
   hmm2:                                     3.261     3.261   0.0% |
   iFFT:                                     4.612     4.612   0.0% |
   potential:                               22.725     0.574   0.0% |
    collect:                                 1.744     1.744   0.0% |
    p1:                                     13.737    13.737   0.1% |
    p2:                                      4.886     4.886   0.0% |
    sum:                                     1.784     1.784   0.0% |
   splines:                                  3.613     3.613   0.0% |
 vbar:                                       0.252     0.252   0.0% |
LCAO initialization:                        45.072     2.126   0.0% |
 LCAO eigensolver:                          28.240     0.006   0.0% |
  Calculate projections:                     0.000     0.000   0.0% |
  DenseAtomicCorrection:                     0.000     0.000   0.0% |
  Distribute overlap matrix:                27.185    27.185   0.1% |
  Orbital Layouts:                           0.860     0.860   0.0% |
  Potential matrix:                          0.056     0.056   0.0% |
  Sum over cells:                            0.133     0.133   0.0% |
 LCAO to grid:                              13.147    13.147   0.1% |
 Set positions (LCAO WFS):                   1.560     1.085   0.0% |
  Basic WFS set positions:                   0.001     0.001   0.0% |
  Basis functions set positions:             0.000     0.000   0.0% |
  P tci:                                     0.000     0.000   0.0% |
  ST tci:                                    0.386     0.386   0.0% |
  mktci:                                     0.087     0.087   0.0% |
Redistribute:                                0.018     0.018   0.0% |
SCF-cycle:                               22298.858    93.451   0.4% |
 Davidson:                               20572.342  6468.496  26.0% |---------|
  Apply hamiltonian:                       395.155   395.155   1.6% ||
  Subspace diag:                          2035.828     0.082   0.0% |
   calc_h_matrix:                          977.983   570.052   2.3% ||
    Apply hamiltonian:                     407.931   407.931   1.6% ||
   diagonalize:                             33.640    33.640   0.1% |
   rotate_psi:                            1024.123  1024.123   4.1% |-|
  calc. matrices:                         9495.855  3710.117  14.9% |-----|
   Apply hamiltonian:                     5785.738  5785.738  23.2% |--------|
  diagonalize:                             286.463   286.463   1.1% |
  rotate_psi:                             1890.544  1890.544   7.6% |--|
 Density:                                   35.514     0.009   0.0% |
  Atomic density matrices:                   2.080     2.080   0.0% |
  Mix:                                       7.389     7.389   0.0% |
  Multipole moments:                         0.146     0.146   0.0% |
  Pseudo density:                           25.890    25.877   0.1% |
   Symmetrize density:                       0.012     0.012   0.0% |
 Hamiltonian:                             1374.570     0.048   0.0% |
  Atomic:                                   48.985     0.263   0.0% |
   XC Correction:                           48.722    48.722   0.2% |
  Calculate atomic Hamiltonians:            16.680    16.680   0.1% |
  Communicate:                               2.360     2.360   0.0% |
  Hartree integrate/restrict:                4.910     4.910   0.0% |
  Poisson:                                  75.709     3.398   0.0% |
   Communicate from 1D:                      6.991     6.991   0.0% |
   Communicate from 2D:                     12.598    12.598   0.1% |
   Communicate to 1D:                        3.598     3.598   0.0% |
   Communicate to 2D:                       14.845    14.845   0.1% |
   FFT 1D:                                  17.737    17.737   0.1% |
   FFT 2D:                                  16.542    16.542   0.1% |
  XC 3D grid:                             1224.959   330.585   1.3% ||
   VdW-DF integral:                        894.374    63.343   0.3% |
    Convolution:                           103.698   103.698   0.4% |
    FFT:                                    63.155    63.155   0.3% |
    gather:                                228.182   228.182   0.9% |
    hmm1:                                   19.549    19.549   0.1% |
    hmm2:                                   42.582    42.582   0.2% |
    iFFT:                                   60.572    60.572   0.2% |
    potential:                             313.289     7.805   0.0% |
     collect:                               22.693    22.693   0.1% |
     p1:                                   180.652   180.652   0.7% |
     p2:                                    64.174    64.174   0.3% |
     sum:                                   37.967    37.967   0.2% |
    splines:                                 0.002     0.002   0.0% |
  vbar:                                      0.919     0.919   0.0% |
 Orthonormalize:                           222.981     0.006   0.0% |
  calc_s_matrix:                            16.721    16.721   0.1% |
  inverse-cholesky:                        171.805   171.805   0.7% |
  projections:                               0.001     0.001   0.0% |
  rotate_psi_s:                             34.448    34.448   0.1% |
Set symmetry:                                0.001     0.001   0.0% |
Other:                                    1714.247  1714.247   6.9% |--|
-------------------------------------------------------------------
Total:                                             24919.454 100.0%

Memory usage: 1.91 GiB
Date: Fri Sep 29 08:28:37 2023
