
  ___ ___ ___ _ _ _  
 |   |   |_  | | | | 
 | | | | | . | | | | 
 |__ |  _|___|_____|  22.8.0
 |___|_|             

User:   s204775@c093.nifl.fysik.dtu.dk
Date:   Fri Sep 29 01:34:04 2023
Arch:   x86_64
Pid:    10560
CWD:    /home/cat/s204775/projects/Bachelor_project/OCCOH_missing_features
Python: 3.10.4
gpaw:   /home/modules/software/GPAW/22.8.0-intel-2022a/lib/python3.10/site-packages/gpaw
_gpaw:  /home/modules/software/GPAW/22.8.0-intel-2022a/lib/python3.10/site-packages/
        _gpaw.cpython-310-x86_64-linux-gnu.so
ase:    /home/modules/software/ASE/3.22.1-intel-2022a/lib/python3.10/site-packages/ase (version 3.22.1)
numpy:  /home/modules/software/SciPy-bundle/2022.05-intel-2022a/lib/python3.10/site-packages/numpy (version 1.22.3)
scipy:  /home/modules/software/SciPy-bundle/2022.05-intel-2022a/lib/python3.10/site-packages/scipy (version 1.8.1)
libxc:  5.2.3
units:  Angstrom and eV
cores: 40
OpenMP: False
OMP_NUM_THREADS: 1

Input parameters:
  basis: dzp
  h: 0.18
  kpts: {size: (4, 4, 1)}
  xc: BEEF-vdW

System changes: positions, numbers, cell, pbc, initial_charges, initial_magmoms 

Initialize ...

species:
  Au:
    name: Gold
    id: b12133f335f6ca0d89c4b1ccaa844e9a
    Z: 79.0
    valence: 11
    core: 68
    charge: 0.0
    file: /home/modules/software/GPAW-setups/0.9.20000/Au.PBE.gz
    compensation charges: {type: gauss,
                           rc: 0.42,
                           lmax: 2}
    cutoffs: {filter: 2.33,
              core: 2.81}
    valence states:
      #              energy  rcut
      - 6s(1.00)    -5.728   1.323
      - 6p(0.00)    -0.775   1.323
      - 5d(10.00)    -6.891   1.323
      -  s          21.484   1.323
      -  p          26.436   1.323
      -  d          20.321   1.323
  
    # LCAO basis set for Au:
    #   Name: dzp
    #   File: /home/modules/software/GPAW-setups/0.9.20000/Au.dzp.basis.gz
    #   Number of radial functions: 5
    #   Number of spherical harmonics: 15
    #     l=0, rc=8.5938 Bohr: 6s-sz confined orbital
    #     l=2, rc=5.9219 Bohr: 5d-sz confined orbital
    #     l=0, rc=4.9844 Bohr: 6s-dz split-valence wave
    #     l=2, rc=3.5156 Bohr: 5d-dz split-valence wave
    #     l=1, rc=8.5938 Bohr: p-type Gaussian polarization
    #   Number of RI-basis functions 0

  H:
    name: Hydrogen
    id: d65de229564ff8ea4db303e23b6d1ecf
    Z: 1.0
    valence: 1
    core: 0
    charge: 0.0
    file: /home/modules/software/GPAW-setups/0.9.20000/H.PBE.gz
    compensation charges: {type: gauss,
                           rc: 0.15,
                           lmax: 2}
    cutoffs: {filter: 0.85,
              core: 0.53}
    valence states:
      #              energy  rcut
      - 1s(1.00)    -6.494   0.476
      -  s          20.717   0.476
      -  p           0.000   0.476
  
    # LCAO basis set for H:
    #   Name: dzp
    #   File: /home/modules/software/GPAW-setups/0.9.20000/H.dzp.basis.gz
    #   Number of radial functions: 3
    #   Number of spherical harmonics: 5
    #     l=0, rc=6.4219 Bohr: 1s-sz confined orbital
    #     l=0, rc=3.6094 Bohr: 1s-dz split-valence wave
    #     l=1, rc=6.4219 Bohr: p-type Gaussian polarization
    #   Number of RI-basis functions 0

  O:
    name: Oxygen
    id: 32ecd46bf208036f09c70b0ec9a88b78
    Z: 8.0
    valence: 6
    core: 2
    charge: 0.0
    file: /home/modules/software/GPAW-setups/0.9.20000/O.PBE.gz
    compensation charges: {type: gauss,
                           rc: 0.21,
                           lmax: 2}
    cutoffs: {filter: 1.17,
              core: 0.83}
    valence states:
      #              energy  rcut
      - 2s(2.00)   -23.961   0.688
      - 2p(4.00)    -9.029   0.598
      -  s           3.251   0.688
      -  p          18.182   0.598
      -  d           0.000   0.619
  
    # LCAO basis set for O:
    #   Name: dzp
    #   File: /home/modules/software/GPAW-setups/0.9.20000/O.dzp.basis.gz
    #   Number of radial functions: 5
    #   Number of spherical harmonics: 13
    #     l=0, rc=4.3438 Bohr: 2s-sz confined orbital
    #     l=1, rc=5.3906 Bohr: 2p-sz confined orbital
    #     l=0, rc=2.2969 Bohr: 2s-dz split-valence wave
    #     l=1, rc=2.8906 Bohr: 2p-dz split-valence wave
    #     l=2, rc=5.3906 Bohr: d-type Gaussian polarization
    #   Number of RI-basis functions 0

  C:
    name: Carbon
    id: 4aa54d4b901d75f77cc0ea3eec22967b
    Z: 6.0
    valence: 4
    core: 2
    charge: 0.0
    file: /home/modules/software/GPAW-setups/0.9.20000/C.PBE.gz
    compensation charges: {type: gauss,
                           rc: 0.20,
                           lmax: 2}
    cutoffs: {filter: 1.14,
              core: 1.14}
    valence states:
      #              energy  rcut
      - 2s(2.00)   -13.751   0.635
      - 2p(2.00)    -5.284   0.635
      -  s          13.461   0.635
      -  p          21.927   0.635
      -  d           0.000   0.635
  
    # LCAO basis set for C:
    #   Name: dzp
    #   File: /home/modules/software/GPAW-setups/0.9.20000/C.dzp.basis.gz
    #   Number of radial functions: 5
    #   Number of spherical harmonics: 13
    #     l=0, rc=5.5469 Bohr: 2s-sz confined orbital
    #     l=1, rc=6.6719 Bohr: 2p-sz confined orbital
    #     l=0, rc=3.0312 Bohr: 2s-dz split-valence wave
    #     l=1, rc=3.7500 Bohr: 2p-dz split-valence wave
    #     l=2, rc=6.6719 Bohr: d-type Gaussian polarization
    #   Number of RI-basis functions 0

Reference energy: -18603687.210930  # eV

Spin-paired calculation

Convergence criteria:
 Maximum [total energy] change in last 3 cyles: 0.0005 eV / electron
 Maximum integral of absolute [dens]ity change: 0.0001 electrons / valence electron
 Maximum integral of absolute [eigenst]ate change: 4e-08 eV^2 / valence electron
 Maximum number of scf [iter]ations: 333
 (Square brackets indicate name in SCF output, whereas a 'c' in
 the SCF output indicates the quantity has converged.)

Symmetries present (total): 1

  ( 1  0  0)
  ( 0  1  0)
  ( 0  0  1)

16 k-points: 4 x 4 x 1 Monkhorst-Pack grid
8 k-points in the irreducible part of the Brillouin zone
       k-points in crystal coordinates                weights
   0:     0.12500000   -0.37500000    0.00000000          2/16
   1:     0.12500000   -0.12500000    0.00000000          2/16
   2:     0.12500000    0.12500000    0.00000000          2/16
   3:     0.12500000    0.37500000    0.00000000          2/16
   4:     0.37500000   -0.37500000    0.00000000          2/16
   5:     0.37500000   -0.12500000    0.00000000          2/16
   6:     0.37500000    0.12500000    0.00000000          2/16
   7:     0.37500000    0.37500000    0.00000000          2/16

Wave functions: Uniform real-space grid
  Kinetic energy operator: 8*3+1=25 point O(h^6) finite-difference Laplacian
  ScaLapack parameters: grid=1x1, blocksize=None
  Wavefunction extrapolation:
    Improved wavefunction reuse through dual PAW basis 

Occupation numbers: Fermi-Dirac:
  width: 0.1000  # eV
 

Eigensolver
   Davidson(niter=2) 

Densities:
  Coarse grid: 44*44*152 grid
  Fine grid: 88*88*304 grid
  Total Charge: 0.000000 

Density mixing:
  Method: separate
  Backend: pulay
  Linear mixing parameter: 0.05
  old densities: 5
  Damping of long wavelength oscillations: 50 

Hamiltonian:
  XC and Coulomb potentials evaluated on a 88*88*304 grid
  Using the BEEF-vdW Exchange-Correlation functional
  Interpolation: tri-quintic (5. degree polynomial)
  Poisson solver: FastPoissonSolver using
    Stencil: 8*3+1=25 point O(h^6) finite-difference Laplacian
    FFT axes: [0, 1]
    FST axes: [2]
 

XC parameters: BEEF-vdW with 2 nearest neighbor stencil

Memory estimate:
  Process memory now: 221.77 MiB
  Calculator: 550.95 MiB
    Density: 64.76 MiB
      Arrays: 11.52 MiB
      Localized functions: 48.81 MiB
      Mixer: 4.43 MiB
    Hamiltonian: 11.17 MiB
      Arrays: 7.53 MiB
      XC: 0.00 MiB
      Poisson: 0.00 MiB
      vbar: 3.63 MiB
    Wavefunctions: 475.03 MiB
      Arrays psit_nG: 225.99 MiB
      Eigensolver: 240.35 MiB
      Projections: 0.55 MiB
      Projectors: 8.14 MiB

Total number of cores used: 40
Parallelization over k-points: 8
Domain decomposition: 1 x 1 x 5

Number of atoms: 41
Number of atomic orbitals: 597
Number of bands in calculation: 255
Number of valence electrons: 417
Bands to converge: occupied

... initialized

Initializing position-dependent things.

Density initialized from atomic densities
Creating initial wave functions:
  255 bands from LCAO basis set

                                               
                                               
                                               
                                               
                                               
                                               
                                               
                    O                          
                   H                           
           Au     OuC     Au                   
             Au    CAu      Au                 
            Au     Au      Au                  
              AAu    AAu     AAu               
                                               
               AAu    AAu     AAu              
                                               
                 Au     Au      Au             
                                               
           Au     AAu     AAu     Au           
             Au     Au      Au                 
                                               
               Au     Au      Au               
                                               
                                               
                                               
                                               

Positions:
   0 Au     0.000000    0.000000    9.999999    ( 0.0000,  0.0000,  0.0000)
   1 Au     1.496891    0.864230   12.444412    ( 0.0000,  0.0000,  0.0000)
   2 Au    -0.000000    1.740301   14.871092    ( 0.0000,  0.0000,  0.0000)
   3 Au    -0.000000    0.000000   17.354004    ( 0.0000,  0.0000,  0.0000)
   4 Au    -1.496891    2.592691    9.999999    ( 0.0000,  0.0000,  0.0000)
   5 Au    -0.000000    3.456922   12.444412    ( 0.0000,  0.0000,  0.0000)
   6 Au    -1.501435    4.318529   14.890878    ( 0.0000,  0.0000,  0.0000)
   7 Au    -1.494007    2.589800   17.376551    ( 0.0000,  0.0000,  0.0000)
   8 Au    -2.993782    5.185383    9.999999    ( 0.0000,  0.0000,  0.0000)
   9 Au    -1.496891    6.049613   12.444412    ( 0.0000,  0.0000,  0.0000)
  10 Au    -2.983528    6.907923   14.871092    ( 0.0000,  0.0000,  0.0000)
  11 Au    -2.994844    5.189326   17.376551    ( 0.0000,  0.0000,  0.0000)
  12 Au     2.993782    0.000000    9.999999    ( 0.0000,  0.0000,  0.0000)
  13 Au     4.490673    0.864230   12.444412    ( 0.0000,  0.0000,  0.0000)
  14 Au     2.992384    1.727654   14.893737    ( 0.0000,  0.0000,  0.0000)
  15 Au     2.989836   -0.001052   17.376551    ( 0.0000,  0.0000,  0.0000)
  16 Au     1.496891    2.592691    9.999999    ( 0.0000,  0.0000,  0.0000)
  17 Au     2.993782    3.456922   12.444412    ( 0.0000,  0.0000,  0.0000)
  18 Au     1.501435    4.318529   14.890878    ( 0.0000,  0.0000,  0.0000)
  19 Au     1.494007    2.589800   17.376551    ( 0.0000,  0.0000,  0.0000)
  20 Au    -0.000000    5.185383    9.999999    ( 0.0000,  0.0000,  0.0000)
  21 Au     1.496891    6.049613   12.444412    ( 0.0000,  0.0000,  0.0000)
  22 Au    -0.000000    6.919091   14.890878    ( 0.0000,  0.0000,  0.0000)
  23 Au    -0.000000    5.185383   17.386406    ( 0.0000,  0.0000,  0.0000)
  24 Au     5.987564    0.000000    9.999999    ( 0.0000,  0.0000,  0.0000)
  25 Au     7.484455    0.864230   12.444412    ( 0.0000,  0.0000,  0.0000)
  26 Au     5.988962    1.727654   14.893737    ( 0.0000,  0.0000,  0.0000)
  27 Au     5.991510   -0.001052   17.376551    ( 0.0000,  0.0000,  0.0000)
  28 Au     4.490673    2.592691    9.999999    ( 0.0000,  0.0000,  0.0000)
  29 Au     5.987564    3.456922   12.444412    ( 0.0000,  0.0000,  0.0000)
  30 Au     4.490673    4.322767   14.893737    ( 0.0000,  0.0000,  0.0000)
  31 Au     4.490673    2.592691   17.388532    ( 0.0000,  0.0000,  0.0000)
  32 Au     2.993782    5.185383    9.999999    ( 0.0000,  0.0000,  0.0000)
  33 Au     4.490673    6.049613   12.444412    ( 0.0000,  0.0000,  0.0000)
  34 Au     2.983528    6.907923   14.871092    ( 0.0000,  0.0000,  0.0000)
  35 Au     2.994844    5.189326   17.376551    ( 0.0000,  0.0000,  0.0000)
  36 H      1.558674    0.027219   20.713796    ( 0.0000,  0.0000,  0.0000)
  37 O      1.536157   -0.338417   19.921723    ( 0.0000,  0.0000,  0.0000)
  38 C      1.539910    0.528038   18.922630    ( 0.0000,  0.0000,  0.0000)
  39 C      1.466596    2.024006   19.164737    ( 0.0000,  0.0000,  0.0000)
  40 O      1.519149    2.652554   20.448117    ( 0.0000,  0.0000,  0.0000)

Unit cell:
           periodic     x           y           z      points  spacing
  1. axis:    yes    8.981346    0.000000    0.000000    44     0.1768
  2. axis:    yes   -4.490673    7.778074    0.000000    44     0.1768
  3. axis:    no     0.000000    0.000000   27.333237   152     0.1798

  Lengths:   8.981346   8.981346  27.333237
  Angles:   90.000000  90.000000 120.000000

Effective grid spacing dv^(1/3) = 0.1865

     iter     time        total  log10-change:
                         energy  eigst   dens
iter:   1 01:35:01 -12110.960200
iter:   2 01:35:35 -12106.315524  -0.57  -1.26
iter:   3 01:36:08 -12104.191889  -1.03  -1.31
iter:   4 01:36:42 -12100.830250  -1.09  -1.33
iter:   5 01:37:16 -12100.026176  -1.47  -1.47
iter:   6 01:37:49 -12100.053764  -1.28  -1.59
iter:   7 01:38:23 -12100.180711c -1.84  -1.86
iter:   8 01:38:57 -12099.992323c -1.85  -2.03
iter:   9 01:39:30 -12099.827020  -2.43  -2.30
iter:  10 01:40:04 -12099.799112c -2.83  -2.45
iter:  11 01:40:37 -12099.783484c -2.81  -2.56
iter:  12 01:41:11 -12099.783292c -3.05  -2.78
iter:  13 01:41:45 -12099.782728c -3.72  -2.98
iter:  14 01:42:18 -12099.779664c -4.05  -2.99
iter:  15 01:42:52 -12099.780350c -4.04  -3.12
iter:  16 01:43:25 -12099.780147c -4.68  -3.36
iter:  17 01:43:59 -12099.780171c -5.24  -3.38
iter:  18 01:44:32 -12099.780371c -4.70  -3.37
iter:  19 01:45:06 -12099.780382c -5.07  -3.43
iter:  20 01:45:40 -12099.780050c -5.41  -3.42
iter:  21 01:46:13 -12099.780009c -6.01  -3.42
iter:  22 01:46:47 -12099.779686c -4.76  -3.43
iter:  23 01:47:20 -12099.779401c -5.14  -3.62
iter:  24 01:47:54 -12099.779536c -5.47  -3.68
iter:  25 01:48:27 -12099.779472c -5.71  -3.93
iter:  26 01:49:01 -12099.779472c -5.84  -4.03c
iter:  27 01:49:35 -12099.779489c -6.06  -4.08c
iter:  28 01:50:08 -12099.779482c -6.71  -4.19c
iter:  29 01:50:42 -12099.779417c -6.21  -4.23c
iter:  30 01:51:15 -12099.779425c -6.81  -4.39c
iter:  31 01:51:49 -12099.779436c -6.83  -4.42c
iter:  32 01:52:23 -12099.779441c -7.29  -4.56c
iter:  33 01:52:56 -12099.779444c -7.23  -4.61c
iter:  34 01:53:30 -12099.779455c -7.05  -4.69c
iter:  35 01:54:03 -12099.779450c -7.98c -5.02c

Converged after 35 iterations.

Dipole moment: (-6.498984, -4.204706, -0.232042) |e|*Ang

Energy contributions relative to reference atoms: (reference = -18603687.210930)

Kinetic:       +721.738328
Potential:     -728.062438
External:        +0.000000
XC:            -12099.111936
Entropy (-ST):   -0.389661
Local:           +5.851426
--------------------------
Free energy:   -12099.974281
Extrapolated:  -12099.779450

Showing only first 2 kpts
 Kpt  Band  Eigenvalues  Occupancy
  0   206     -5.95245    1.97181
  0   207     -5.70242    1.70325
  0   208     -5.58864    1.29570
  0   209     -5.53900    1.05653

  1   206     -6.42153    1.99974
  1   207     -6.32940    1.99934
  1   208     -6.06668    1.99092
  1   209     -5.92921    1.96456


Fermi level: -5.52768

No gap

Forces in eV/Ang:
  0 Au    0.03101    0.02249   -0.16074
  1 Au    0.00772    0.01455    0.07123
  2 Au    0.04232    0.02714   -0.07450
  3 Au   -0.38829   -0.25913    0.08903
  4 Au    0.00809   -0.00966   -0.13537
  5 Au   -0.02844   -0.00031    0.04161
  6 Au    0.03255    0.02161    0.02846
  7 Au   -0.25107    0.07436   -0.03062
  8 Au   -0.00588    0.00192   -0.13176
  9 Au    0.01221   -0.01928    0.04851
 10 Au   -0.00662   -0.01052   -0.13184
 11 Au   -0.01182   -0.37085   -0.13617
 12 Au   -0.03687    0.01931   -0.12393
 13 Au    0.00409   -0.01094    0.10771
 14 Au   -0.05025    0.04704   -0.06081
 15 Au    0.55358   -0.24276   -0.08314
 16 Au   -0.00955   -0.04530   -0.10808
 17 Au    0.01086    0.01392    0.08761
 18 Au    0.00331   -0.14102   -0.00328
 19 Au   -0.01132    2.92316   -3.87250
 20 Au    0.03070    0.00761   -0.09668
 21 Au    0.00233    0.00942    0.08879
 22 Au   -0.12403    0.04930    0.15973
 23 Au   -0.06819    0.11412   -0.03364
 24 Au    0.01320   -0.02533   -0.15737
 25 Au   -0.01111    0.01379    0.12518
 26 Au    0.00631   -0.00432    0.01643
 27 Au   -0.00024   -0.01173   -0.02890
 28 Au    0.00769   -0.00305   -0.08444
 29 Au    0.01730    0.01329    0.14567
 30 Au   -0.03355    0.03006    0.03015
 31 Au    0.23596    0.07042   -0.04836
 32 Au   -0.01817    0.02023   -0.12564
 33 Au   -0.01664   -0.03428    0.10363
 34 Au    0.11719    0.03552    0.13932
 35 Au    0.06939    0.11385   -0.03593
 36 H     0.11128    3.15556    6.19580
 37 O    -0.09052   -3.50769   -5.01175
 38 C    -0.40888    1.22085    0.31066
 39 C     0.66214    0.14851    9.55043
 40 O    -0.42927   -3.41674   -6.64630

      Step     Time          Energy         fmax
BFGS:    0 01:54:21   -12099.779450        9.5745
System changes: positions 

Initializing position-dependent things.

Density initialized from wave functions
                                               
                                               
                                               
                                               
                                               
                                               
                                               
                    O                          
                   H                           
           Au     OuC     Au                   
                   C                           
            AAu    AAu     AAu                 
              AAu    AAu     AAu               
                                               
               AAu    AAu     AAu              
                                               
                 Au     Au      Au             
                                               
           Au     AAu     AAu     Au           
             Au     Au      Au                 
                                               
               Au     Au      Au               
                                               
                                               
                                               
                                               

Positions:
   0 Au     0.000000    0.000000    9.999999    ( 0.0000,  0.0000,  0.0000)
   1 Au     1.496891    0.864230   12.444412    ( 0.0000,  0.0000,  0.0000)
   2 Au     0.000605    1.740689   14.870028    ( 0.0000,  0.0000,  0.0000)
   3 Au    -0.005547   -0.003702   17.355276    ( 0.0000,  0.0000,  0.0000)
   4 Au    -1.496891    2.592691    9.999999    ( 0.0000,  0.0000,  0.0000)
   5 Au    -0.000000    3.456922   12.444412    ( 0.0000,  0.0000,  0.0000)
   6 Au    -1.500970    4.318837   14.891284    ( 0.0000,  0.0000,  0.0000)
   7 Au    -1.497594    2.590862   17.376113    ( 0.0000,  0.0000,  0.0000)
   8 Au    -2.993782    5.185383    9.999999    ( 0.0000,  0.0000,  0.0000)
   9 Au    -1.496891    6.049613   12.444412    ( 0.0000,  0.0000,  0.0000)
  10 Au    -2.983623    6.907773   14.869208    ( 0.0000,  0.0000,  0.0000)
  11 Au    -2.995013    5.184028   17.374606    ( 0.0000,  0.0000,  0.0000)
  12 Au     2.993782    0.000000    9.999999    ( 0.0000,  0.0000,  0.0000)
  13 Au     4.490673    0.864230   12.444412    ( 0.0000,  0.0000,  0.0000)
  14 Au     2.991666    1.728326   14.892869    ( 0.0000,  0.0000,  0.0000)
  15 Au     2.997744   -0.004520   17.375363    ( 0.0000,  0.0000,  0.0000)
  16 Au     1.496891    2.592691    9.999999    ( 0.0000,  0.0000,  0.0000)
  17 Au     2.993782    3.456922   12.444412    ( 0.0000,  0.0000,  0.0000)
  18 Au     1.501483    4.316514   14.890831    ( 0.0000,  0.0000,  0.0000)
  19 Au     1.493845    2.631559   17.321229    ( 0.0000,  0.0000,  0.0000)
  20 Au    -0.000000    5.185383    9.999999    ( 0.0000,  0.0000,  0.0000)
  21 Au     1.496891    6.049613   12.444412    ( 0.0000,  0.0000,  0.0000)
  22 Au    -0.001772    6.919795   14.893160    ( 0.0000,  0.0000,  0.0000)
  23 Au    -0.000974    5.187013   17.385925    ( 0.0000,  0.0000,  0.0000)
  24 Au     5.987564    0.000000    9.999999    ( 0.0000,  0.0000,  0.0000)
  25 Au     7.484455    0.864230   12.444412    ( 0.0000,  0.0000,  0.0000)
  26 Au     5.989053    1.727592   14.893972    ( 0.0000,  0.0000,  0.0000)
  27 Au     5.991507   -0.001219   17.376138    ( 0.0000,  0.0000,  0.0000)
  28 Au     4.490673    2.592691    9.999999    ( 0.0000,  0.0000,  0.0000)
  29 Au     5.987564    3.456922   12.444412    ( 0.0000,  0.0000,  0.0000)
  30 Au     4.490194    4.323196   14.894168    ( 0.0000,  0.0000,  0.0000)
  31 Au     4.494044    2.593697   17.387841    ( 0.0000,  0.0000,  0.0000)
  32 Au     2.993782    5.185383    9.999999    ( 0.0000,  0.0000,  0.0000)
  33 Au     4.490673    6.049613   12.444412    ( 0.0000,  0.0000,  0.0000)
  34 Au     2.985202    6.908431   14.873082    ( 0.0000,  0.0000,  0.0000)
  35 Au     2.995836    5.190953   17.376038    ( 0.0000,  0.0000,  0.0000)
  36 H      1.560264    0.072299   20.802308    ( 0.0000,  0.0000,  0.0000)
  37 O      1.534864   -0.388527   19.850127    ( 0.0000,  0.0000,  0.0000)
  38 C      1.534069    0.545479   18.927068    ( 0.0000,  0.0000,  0.0000)
  39 C      1.476056    2.026128   19.301172    ( 0.0000,  0.0000,  0.0000)
  40 O      1.513017    2.603744   20.353170    ( 0.0000,  0.0000,  0.0000)

Unit cell:
           periodic     x           y           z      points  spacing
  1. axis:    yes    8.981346    0.000000    0.000000    44     0.1768
  2. axis:    yes   -4.490673    7.778074    0.000000    44     0.1768
  3. axis:    no     0.000000    0.000000   27.333237   152     0.1798

  Lengths:   8.981346   8.981346  27.333237
  Angles:   90.000000  90.000000 120.000000

Effective grid spacing dv^(1/3) = 0.1865

     iter     time        total  log10-change:
                         energy  eigst   dens
iter:   1 01:55:29 -12104.690719  -0.67
iter:   2 01:56:02 -12103.164581  -1.51  -2.10
iter:   3 01:56:36 -12102.012542  -1.72  -2.17
iter:   4 01:57:10 -12101.688589  -1.83  -2.31
iter:   5 01:57:44 -12101.555490  -2.09  -2.43
iter:   6 01:58:18 -12101.429467  -2.16  -2.57
iter:   7 01:58:52 -12101.418848c -2.44  -2.77
iter:   8 01:59:26 -12101.394504c -2.92  -2.82
iter:   9 02:00:00 -12101.393700c -3.48  -3.07
iter:  10 02:00:34 -12101.391750c -3.72  -3.14
iter:  11 02:01:08 -12101.390988c -4.17  -3.23
iter:  12 02:01:42 -12101.390809c -4.54  -3.44
iter:  13 02:02:16 -12101.391381c -4.48  -3.51
iter:  14 02:02:50 -12101.391596c -5.10  -3.68
iter:  15 02:03:24 -12101.391521c -5.10  -3.79
iter:  16 02:03:58 -12101.391529c -5.30  -3.89
iter:  17 02:04:32 -12101.391451c -5.34  -3.99
iter:  18 02:05:06 -12101.391441c -5.92  -4.18c
iter:  19 02:05:40 -12101.391435c -6.59  -4.28c
iter:  20 02:06:13 -12101.391472c -6.28  -4.31c
iter:  21 02:06:47 -12101.391456c -6.65  -4.42c
iter:  22 02:07:21 -12101.391433c -6.47  -4.53c
iter:  23 02:07:55 -12101.391436c -7.32  -4.65c
iter:  24 02:08:29 -12101.391444c -7.02  -4.74c
iter:  25 02:09:03 -12101.391445c -7.24  -4.88c
iter:  26 02:09:37 -12101.391442c -7.62c -5.00c

Converged after 26 iterations.

Dipole moment: (-5.437269, -5.317509, 0.190385) |e|*Ang

Energy contributions relative to reference atoms: (reference = -18603687.210930)

Kinetic:       +720.439691
Potential:     -727.968963
External:        +0.000000
XC:            -12099.459129
Entropy (-ST):   -0.387181
Local:           +5.790550
--------------------------
Free energy:   -12101.585033
Extrapolated:  -12101.391442

Showing only first 2 kpts
 Kpt  Band  Eigenvalues  Occupancy
  0   206     -5.61874    1.97385
  0   207     -5.36695    1.71780
  0   208     -5.25005    1.30821
  0   209     -5.18715    1.00409

  1   206     -6.13628    1.99985
  1   207     -6.00119    1.99942
  1   208     -5.73118    1.99143
  1   209     -5.59019    1.96536


Fermi level: -5.18633

No gap

Forces in eV/Ang:
  0 Au    0.02843    0.02199   -0.16390
  1 Au    0.00935    0.01630    0.07138
  2 Au    0.00592    0.00411   -0.09249
  3 Au   -0.28042   -0.01485    0.10380
  4 Au    0.00759   -0.00891   -0.13589
  5 Au   -0.02982    0.00013    0.04397
  6 Au    0.02315    0.02014    0.00905
  7 Au   -0.17600    0.05426   -0.00182
  8 Au   -0.00591    0.00015   -0.13457
  9 Au    0.01418   -0.02051    0.04622
 10 Au   -0.00348   -0.01578   -0.10077
 11 Au   -0.00561   -0.36127   -0.14188
 12 Au   -0.03533    0.01957   -0.12670
 13 Au    0.00493   -0.01282    0.11260
 14 Au   -0.01283    0.01801   -0.08713
 15 Au    0.47186   -0.00088   -0.04006
 16 Au   -0.00965   -0.04322   -0.10813
 17 Au    0.01051    0.01106    0.09202
 18 Au    0.00173   -0.05404   -0.11599
 19 Au    0.00043    1.51351   -0.71403
 20 Au    0.03018    0.00522   -0.09554
 21 Au    0.00371    0.01503    0.10541
 22 Au   -0.11496    0.04367    0.14389
 23 Au   -0.07853    0.10686   -0.01605
 24 Au    0.01422   -0.02359   -0.16192
 25 Au   -0.01327    0.00965    0.12914
 26 Au    0.00533    0.00259    0.00264
 27 Au    0.00445   -0.00751   -0.01521
 28 Au    0.00837   -0.00259   -0.08342
 29 Au    0.01863    0.01404    0.14525
 30 Au   -0.02282    0.02937    0.01071
 31 Au    0.16240    0.04569   -0.01839
 32 Au   -0.01743    0.01942   -0.12631
 33 Au   -0.01905   -0.03335    0.10005
 34 Au    0.11691    0.03258    0.13016
 35 Au    0.08057    0.11328   -0.02069
 36 H    -0.10096   -1.32309   -2.24504
 37 O     0.08872    0.58478    4.50738
 38 C    -0.32146    0.92668   -0.76135
 39 C     0.34975   -1.29075   -0.32149
 40 O    -0.13040   -0.34246    0.22582

BFGS:    1 02:09:54   -12101.391442        4.5460
System changes: positions 

Initializing position-dependent things.

Density initialized from wave functions
                                               
                                               
                                               
                                               
                                               
                                               
                                               
                    O                          
                   H                           
           Au     OuC     Au                   
                   C        Au                 
            AAu    AAu     Au                  
              AAu    AAu     AAu               
                                               
               AAu    AAu     AAu              
                                               
                 Au     Au      Au             
                                               
           Au     AAu     AAu     Au           
             Au     Au      Au                 
                                               
               Au     Au      Au               
                                               
                                               
                                               
                                               

Positions:
   0 Au     0.000000    0.000000    9.999999    ( 0.0000,  0.0000,  0.0000)
   1 Au     1.496891    0.864230   12.444412    ( 0.0000,  0.0000,  0.0000)
   2 Au     0.000731    1.740774   14.868779    ( 0.0000,  0.0000,  0.0000)
   3 Au    -0.009532   -0.004207   17.356683    ( 0.0000,  0.0000,  0.0000)
   4 Au    -1.496891    2.592691    9.999999    ( 0.0000,  0.0000,  0.0000)
   5 Au    -0.000000    3.456922   12.444412    ( 0.0000,  0.0000,  0.0000)
   6 Au    -1.500641    4.319116   14.891433    ( 0.0000,  0.0000,  0.0000)
   7 Au    -1.500104    2.591632   17.376053    ( 0.0000,  0.0000,  0.0000)
   8 Au    -2.993782    5.185383    9.999999    ( 0.0000,  0.0000,  0.0000)
   9 Au    -1.496891    6.049613   12.444412    ( 0.0000,  0.0000,  0.0000)
  10 Au    -2.983674    6.907563   14.867786    ( 0.0000,  0.0000,  0.0000)
  11 Au    -2.995098    5.179054   17.372664    ( 0.0000,  0.0000,  0.0000)
  12 Au     2.993782    0.000000    9.999999    ( 0.0000,  0.0000,  0.0000)
  13 Au     4.490673    0.864230   12.444412    ( 0.0000,  0.0000,  0.0000)
  14 Au     2.991444    1.728609   14.891704    ( 0.0000,  0.0000,  0.0000)
  15 Au     3.004326   -0.004830   17.374760    ( 0.0000,  0.0000,  0.0000)
  16 Au     1.496891    2.592691    9.999999    ( 0.0000,  0.0000,  0.0000)
  17 Au     2.993782    3.456922   12.444412    ( 0.0000,  0.0000,  0.0000)
  18 Au     1.501508    4.315664   14.889377    ( 0.0000,  0.0000,  0.0000)
  19 Au     1.493837    2.654087   17.307527    ( 0.0000,  0.0000,  0.0000)
  20 Au    -0.000000    5.185383    9.999999    ( 0.0000,  0.0000,  0.0000)
  21 Au     1.496891    6.049613   12.444412    ( 0.0000,  0.0000,  0.0000)
  22 Au    -0.003362    6.920402   14.895156    ( 0.0000,  0.0000,  0.0000)
  23 Au    -0.002040    5.188490   17.385683    ( 0.0000,  0.0000,  0.0000)
  24 Au     5.987564    0.000000    9.999999    ( 0.0000,  0.0000,  0.0000)
  25 Au     7.484455    0.864230   12.444412    ( 0.0000,  0.0000,  0.0000)
  26 Au     5.989127    1.727619   14.894025    ( 0.0000,  0.0000,  0.0000)
  27 Au     5.991562   -0.001328   17.375912    ( 0.0000,  0.0000,  0.0000)
  28 Au     4.490673    2.592691    9.999999    ( 0.0000,  0.0000,  0.0000)
  29 Au     5.987564    3.456922   12.444412    ( 0.0000,  0.0000,  0.0000)
  30 Au     4.489867    4.323601   14.894339    ( 0.0000,  0.0000,  0.0000)
  31 Au     4.496365    2.594355   17.387551    ( 0.0000,  0.0000,  0.0000)
  32 Au     2.993782    5.185383    9.999999    ( 0.0000,  0.0000,  0.0000)
  33 Au     4.490673    6.049613   12.444412    ( 0.0000,  0.0000,  0.0000)
  34 Au     2.986808    6.908882   14.874881    ( 0.0000,  0.0000,  0.0000)
  35 Au     2.996929    5.192509   17.375735    ( 0.0000,  0.0000,  0.0000)
  36 H      1.559139    0.059647   20.781878    ( 0.0000,  0.0000,  0.0000)
  37 O      1.535862   -0.385540   19.900302    ( 0.0000,  0.0000,  0.0000)
  38 C      1.529546    0.558570   18.917932    ( 0.0000,  0.0000,  0.0000)
  39 C      1.481245    2.010173   19.308928    ( 0.0000,  0.0000,  0.0000)
  40 O      1.510857    2.595249   20.347798    ( 0.0000,  0.0000,  0.0000)

Unit cell:
           periodic     x           y           z      points  spacing
  1. axis:    yes    8.981346    0.000000    0.000000    44     0.1768
  2. axis:    yes   -4.490673    7.778074    0.000000    44     0.1768
  3. axis:    no     0.000000    0.000000   27.333237   152     0.1798

  Lengths:   8.981346   8.981346  27.333237
  Angles:   90.000000  90.000000 120.000000

Effective grid spacing dv^(1/3) = 0.1865

     iter     time        total  log10-change:
                         energy  eigst   dens
iter:   1 02:11:02 -12101.848984  -1.72
iter:   2 02:11:36 -12101.737319  -2.51  -2.44
iter:   3 02:12:10 -12101.705768c -3.07  -2.71
iter:   4 02:12:44 -12101.668808c -2.97  -2.87
iter:   5 02:13:18 -12101.660716c -3.27  -3.06
iter:   6 02:13:52 -12101.657287c -3.35  -3.24
iter:   7 02:14:26 -12101.653816c -3.60  -3.30
iter:   8 02:15:00 -12101.653626c -4.29  -3.60
iter:   9 02:15:34 -12101.653526c -4.98  -3.77
iter:  10 02:16:08 -12101.653647c -4.96  -3.83
iter:  11 02:16:42 -12101.653664c -5.30  -4.01c
iter:  12 02:17:16 -12101.653674c -5.98  -4.13c
iter:  13 02:17:50 -12101.653657c -5.85  -4.17c
iter:  14 02:18:24 -12101.653661c -5.98  -4.29c
iter:  15 02:18:58 -12101.653631c -6.22  -4.37c
iter:  16 02:19:32 -12101.653655c -6.46  -4.55c
iter:  17 02:20:06 -12101.653647c -7.09  -4.71c
iter:  18 02:20:40 -12101.653652c -6.98  -4.82c
iter:  19 02:21:14 -12101.653652c -7.48c -5.07c

Converged after 19 iterations.

Dipole moment: (-5.142254, -4.979460, 0.133807) |e|*Ang

Energy contributions relative to reference atoms: (reference = -18603687.210930)

Kinetic:       +720.966749
Potential:     -728.295265
External:        +0.000000
XC:            -12099.919095
Entropy (-ST):   -0.389697
Local:           +5.788807
--------------------------
Free energy:   -12101.848501
Extrapolated:  -12101.653652

Showing only first 2 kpts
 Kpt  Band  Eigenvalues  Occupancy
  0   206     -5.65526    1.97108
  0   207     -5.41015    1.70912
  0   208     -5.30349    1.33827
  0   209     -5.22676    0.96847

  1   206     -6.17115    1.99983
  1   207     -6.04359    1.99940
  1   208     -5.77925    1.99154
  1   209     -5.62917    1.96262


Fermi level: -5.23306

No gap

Forces in eV/Ang:
  0 Au    0.02916    0.02148   -0.16266
  1 Au    0.01017    0.01583    0.06940
  2 Au   -0.00391   -0.00031   -0.08482
  3 Au   -0.18378    0.00569    0.16405
  4 Au    0.00732   -0.00667   -0.13586
  5 Au   -0.03148    0.00166    0.04399
  6 Au    0.02227    0.01832    0.00305
  7 Au   -0.15687    0.05666   -0.00395
  8 Au   -0.00479   -0.00057   -0.13680
  9 Au    0.01644   -0.02084    0.04503
 10 Au   -0.00101   -0.01290   -0.07360
 11 Au    0.00354   -0.32106   -0.12383
 12 Au   -0.03642    0.01911   -0.12612
 13 Au    0.00751   -0.01631    0.11219
 14 Au   -0.00107    0.01106   -0.08838
 15 Au    0.38697    0.01552    0.05119
 16 Au   -0.00892   -0.04265   -0.10802
 17 Au    0.01248    0.01150    0.09199
 18 Au   -0.00058   -0.02037   -0.14719
 19 Au   -0.00713    1.25944   -0.40147
 20 Au    0.02914    0.00393   -0.09437
 21 Au    0.00410    0.02182    0.11434
 22 Au   -0.10799    0.04666    0.13971
 23 Au   -0.08076    0.10697   -0.00901
 24 Au    0.01474   -0.02419   -0.16547
 25 Au   -0.01681    0.00531    0.12798
 26 Au    0.00391    0.00089    0.00182
 27 Au    0.00854   -0.00516   -0.01842
 28 Au    0.00774   -0.00064   -0.08300
 29 Au    0.01840    0.01499    0.14602
 30 Au   -0.02133    0.02611    0.00626
 31 Au    0.14317    0.04211   -0.02111
 32 Au   -0.01706    0.01836   -0.12671
 33 Au   -0.02120   -0.03357    0.09820
 34 Au    0.11962    0.03961    0.13350
 35 Au    0.08344    0.12048   -0.01760
 36 H    -0.04331   -0.36314   -0.42944
 37 O     0.04618    0.51918    1.26804
 38 C    -0.27865   -0.13952    0.32528
 39 C     0.30118   -1.30907   -0.96729
 40 O    -0.10289   -0.01116    0.60385

BFGS:    2 02:21:31   -12101.653652        1.6553
System changes: positions 

Initializing position-dependent things.

Density initialized from wave functions
                                               
                                               
                                               
                                               
                                               
                                               
                                               
                    O                          
                   H                           
           Au     OuC     Au                   
             Au    C        Au                 
            Au     AAu     Au                  
              AAu    AAu     AAu               
                                               
               AAu    AAu     AAu              
                                               
                 Au     Au      Au             
                                               
           Au     AAu     AAu     Au           
             Au     Au      Au                 
                                               
               Au     Au      Au               
                                               
                                               
                                               
                                               

Positions:
   0 Au     0.000000    0.000000    9.999999    ( 0.0000,  0.0000,  0.0000)
   1 Au     1.496891    0.864230   12.444412    ( 0.0000,  0.0000,  0.0000)
   2 Au     0.000699    1.740801   14.866684    ( 0.0000,  0.0000,  0.0000)
   3 Au    -0.014459   -0.004354   17.360518    ( 0.0000,  0.0000,  0.0000)
   4 Au    -1.496891    2.592691    9.999999    ( 0.0000,  0.0000,  0.0000)
   5 Au    -0.000000    3.456922   12.444412    ( 0.0000,  0.0000,  0.0000)
   6 Au    -1.500081    4.319574   14.891544    ( 0.0000,  0.0000,  0.0000)
   7 Au    -1.504094    2.593038   17.375936    ( 0.0000,  0.0000,  0.0000)
   8 Au    -2.993782    5.185383    9.999999    ( 0.0000,  0.0000,  0.0000)
   9 Au    -1.496891    6.049613   12.444412    ( 0.0000,  0.0000,  0.0000)
  10 Au    -2.983710    6.907241   14.865860    ( 0.0000,  0.0000,  0.0000)
  11 Au    -2.995045    5.171015   17.369564    ( 0.0000,  0.0000,  0.0000)
  12 Au     2.993782    0.000000    9.999999    ( 0.0000,  0.0000,  0.0000)
  13 Au     4.490673    0.864230   12.444412    ( 0.0000,  0.0000,  0.0000)
  14 Au     2.991346    1.728929   14.889557    ( 0.0000,  0.0000,  0.0000)
  15 Au     3.014194   -0.004719   17.375692    ( 0.0000,  0.0000,  0.0000)
  16 Au     1.496891    2.592691    9.999999    ( 0.0000,  0.0000,  0.0000)
  17 Au     2.993782    3.456922   12.444412    ( 0.0000,  0.0000,  0.0000)
  18 Au     1.501503    4.314978   14.885954    ( 0.0000,  0.0000,  0.0000)
  19 Au     1.493675    2.687171   17.293790    ( 0.0000,  0.0000,  0.0000)
  20 Au    -0.000000    5.185383    9.999999    ( 0.0000,  0.0000,  0.0000)
  21 Au     1.496891    6.049613   12.444412    ( 0.0000,  0.0000,  0.0000)
  22 Au    -0.006051    6.921546   14.898622    ( 0.0000,  0.0000,  0.0000)
  23 Au    -0.004012    5.191129   17.385423    ( 0.0000,  0.0000,  0.0000)
  24 Au     5.987564    0.000000    9.999999    ( 0.0000,  0.0000,  0.0000)
  25 Au     7.484455    0.864230   12.444412    ( 0.0000,  0.0000,  0.0000)
  26 Au     5.989229    1.727640   14.894085    ( 0.0000,  0.0000,  0.0000)
  27 Au     5.991755   -0.001466   17.375456    ( 0.0000,  0.0000,  0.0000)
  28 Au     4.490673    2.592691    9.999999    ( 0.0000,  0.0000,  0.0000)
  29 Au     5.987564    3.456922   12.444412    ( 0.0000,  0.0000,  0.0000)
  30 Au     4.489328    4.324254   14.894525    ( 0.0000,  0.0000,  0.0000)
  31 Au     4.500017    2.595426   17.387013    ( 0.0000,  0.0000,  0.0000)
  32 Au     2.993782    5.185383    9.999999    ( 0.0000,  0.0000,  0.0000)
  33 Au     4.490673    6.049613   12.444412    ( 0.0000,  0.0000,  0.0000)
  34 Au     2.989744    6.909837   14.878165    ( 0.0000,  0.0000,  0.0000)
  35 Au     2.998963    5.195453   17.375278    ( 0.0000,  0.0000,  0.0000)
  36 H      1.558083    0.051739   20.773230    ( 0.0000,  0.0000,  0.0000)
  37 O      1.536970   -0.376267   19.933114    ( 0.0000,  0.0000,  0.0000)
  38 C      1.522472    0.558772   18.923478    ( 0.0000,  0.0000,  0.0000)
  39 C      1.489096    1.979313   19.296117    ( 0.0000,  0.0000,  0.0000)
  40 O      1.507967    2.591137   20.355231    ( 0.0000,  0.0000,  0.0000)

Unit cell:
           periodic     x           y           z      points  spacing
  1. axis:    yes    8.981346    0.000000    0.000000    44     0.1768
  2. axis:    yes   -4.490673    7.778074    0.000000    44     0.1768
  3. axis:    no     0.000000    0.000000   27.333237   152     0.1798

  Lengths:   8.981346   8.981346  27.333237
  Angles:   90.000000  90.000000 120.000000

Effective grid spacing dv^(1/3) = 0.1865

     iter     time        total  log10-change:
                         energy  eigst   dens
iter:   1 02:22:41 -12101.818542  -1.82
iter:   2 02:23:15 -12101.787864  -2.71  -2.72
iter:   3 02:23:49 -12101.749150c -3.01  -2.80
iter:   4 02:24:24 -12101.739137c -3.27  -3.03
iter:   5 02:24:58 -12101.735172c -3.67  -3.14
iter:   6 02:25:33 -12101.733172c -3.61  -3.24
iter:   7 02:26:07 -12101.732006c -3.94  -3.42
iter:   8 02:26:41 -12101.731439c -4.40  -3.45
iter:   9 02:27:16 -12101.731160c -4.74  -3.60
iter:  10 02:27:50 -12101.731174c -5.42  -3.82
iter:  11 02:28:25 -12101.731220c -5.37  -3.92
iter:  12 02:28:59 -12101.731198c -5.69  -4.06c
iter:  13 02:29:34 -12101.731208c -6.32  -4.20c
iter:  14 02:30:08 -12101.731199c -6.22  -4.27c
iter:  15 02:30:42 -12101.731217c -6.37  -4.34c
iter:  16 02:31:17 -12101.731210c -6.99  -4.52c
iter:  17 02:31:51 -12101.731206c -7.14  -4.64c
iter:  18 02:32:26 -12101.731203c -7.45c -4.82c

Converged after 18 iterations.

Dipole moment: (-4.702025, -4.656088, 0.037563) |e|*Ang

Energy contributions relative to reference atoms: (reference = -18603687.210930)

Kinetic:       +719.873512
Potential:     -727.212301
External:        +0.000000
XC:            -12099.984292
Entropy (-ST):   -0.392020
Local:           +5.787887
--------------------------
Free energy:   -12101.927213
Extrapolated:  -12101.731203

Showing only first 2 kpts
 Kpt  Band  Eigenvalues  Occupancy
  0   206     -5.72094    1.96724
  0   207     -5.48476    1.69968
  0   208     -5.38652    1.35873
  0   209     -5.30666    0.97613

  1   206     -6.23808    1.99981
  1   207     -6.11609    1.99936
  1   208     -5.85382    1.99122
  1   209     -5.69981    1.95968


Fermi level: -5.31143

No gap

Forces in eV/Ang:
  0 Au    0.03028    0.02148   -0.16049
  1 Au    0.01090    0.01502    0.06343
  2 Au   -0.01114   -0.00273   -0.06123
  3 Au   -0.07835    0.02183    0.17926
  4 Au    0.00811   -0.00468   -0.13495
  5 Au   -0.03366    0.00417    0.03902
  6 Au    0.02145    0.01526   -0.00339
  7 Au   -0.13053    0.05531   -0.00515
  8 Au   -0.00369   -0.00100   -0.13649
  9 Au    0.02117   -0.02091    0.04393
 10 Au    0.00217   -0.00710   -0.03934
 11 Au    0.02263   -0.27971   -0.11168
 12 Au   -0.03752    0.01912   -0.12408
 13 Au    0.01036   -0.02083    0.11151
 14 Au    0.00853    0.00412   -0.07578
 15 Au    0.26994    0.03692    0.11067
 16 Au   -0.00803   -0.04353   -0.10770
 17 Au    0.01556    0.01382    0.08630
 18 Au   -0.00428    0.01798   -0.16651
 19 Au   -0.02734    0.93659   -0.16103
 20 Au    0.02754    0.00339   -0.09253
 21 Au    0.00476    0.02806    0.12441
 22 Au   -0.09010    0.04981    0.12308
 23 Au   -0.08774    0.12126   -0.00242
 24 Au    0.01480   -0.02555   -0.16447
 25 Au   -0.02054    0.00036    0.12712
 26 Au    0.00238   -0.00228   -0.00159
 27 Au    0.01441   -0.00282   -0.01702
 28 Au    0.00595    0.00109   -0.08122
 29 Au    0.01769    0.01549    0.14727
 30 Au   -0.01969    0.02145    0.00194
 31 Au    0.11519    0.03205   -0.02260
 32 Au   -0.01618    0.01745   -0.12662
 33 Au   -0.02574   -0.03451    0.09651
 34 Au    0.11937    0.04945    0.12832
 35 Au    0.09225    0.14261   -0.01719
 36 H     0.00936    0.68836    1.43864
 37 O    -0.01009   -0.46892   -0.96683
 38 C    -0.17796   -0.55696    0.45588
 39 C     0.23053    0.18139    0.79345
 40 O    -0.10792   -1.01059   -1.20146

BFGS:    3 02:32:43   -12101.731203        1.5949
System changes: positions 

Initializing position-dependent things.

Density initialized from wave functions
                                               
                                               
                                               
                                               
                                               
                                               
                                               
                    O                          
                   H                           
           Au     OuC     Au                   
                   C        Au                 
            AAu    AAu     Au                  
              AAu    AAu     AAu               
                                               
               AAu    AAu     AAu              
                                               
                 Au     Au      Au             
                                               
           Au     AAu     AAu     Au           
             Au     Au      Au                 
                                               
               Au     Au      Au               
                                               
                                               
                                               
                                               

Positions:
   0 Au     0.000000    0.000000    9.999999    ( 0.0000,  0.0000,  0.0000)
   1 Au     1.496891    0.864230   12.444412    ( 0.0000,  0.0000,  0.0000)
   2 Au     0.000564    1.740789   14.864930    ( 0.0000,  0.0000,  0.0000)
   3 Au    -0.017915   -0.004196   17.364426    ( 0.0000,  0.0000,  0.0000)
   4 Au    -1.496891    2.592691    9.999999    ( 0.0000,  0.0000,  0.0000)
   5 Au    -0.000000    3.456922   12.444412    ( 0.0000,  0.0000,  0.0000)
   6 Au    -1.499551    4.319981   14.891566    ( 0.0000,  0.0000,  0.0000)
   7 Au    -1.507620    2.594379   17.375821    ( 0.0000,  0.0000,  0.0000)
   8 Au    -2.993782    5.185383    9.999999    ( 0.0000,  0.0000,  0.0000)
   9 Au    -1.496891    6.049613   12.444412    ( 0.0000,  0.0000,  0.0000)
  10 Au    -2.983704    6.906997   14.864421    ( 0.0000,  0.0000,  0.0000)
  11 Au    -2.994755    5.163703   17.366692    ( 0.0000,  0.0000,  0.0000)
  12 Au     2.993782    0.000000    9.999999    ( 0.0000,  0.0000,  0.0000)
  13 Au     4.490673    0.864230   12.444412    ( 0.0000,  0.0000,  0.0000)
  14 Au     2.991384    1.729144   14.887614    ( 0.0000,  0.0000,  0.0000)
  15 Au     3.022319   -0.004245   17.377335    ( 0.0000,  0.0000,  0.0000)
  16 Au     1.496891    2.592691    9.999999    ( 0.0000,  0.0000,  0.0000)
  17 Au     2.993782    3.456922   12.444412    ( 0.0000,  0.0000,  0.0000)
  18 Au     1.501451    4.314817   14.882344    ( 0.0000,  0.0000,  0.0000)
  19 Au     1.493270    2.714788   17.284693    ( 0.0000,  0.0000,  0.0000)
  20 Au    -0.000000    5.185383    9.999999    ( 0.0000,  0.0000,  0.0000)
  21 Au     1.496891    6.049613   12.444412    ( 0.0000,  0.0000,  0.0000)
  22 Au    -0.008440    6.922696   14.901781    ( 0.0000,  0.0000,  0.0000)
  23 Au    -0.006021    5.193873   17.385258    ( 0.0000,  0.0000,  0.0000)
  24 Au     5.987564    0.000000    9.999999    ( 0.0000,  0.0000,  0.0000)
  25 Au     7.484455    0.864230   12.444412    ( 0.0000,  0.0000,  0.0000)
  26 Au     5.989308    1.727624   14.894095    ( 0.0000,  0.0000,  0.0000)
  27 Au     5.992017   -0.001570   17.375038    ( 0.0000,  0.0000,  0.0000)
  28 Au     4.490673    2.592691    9.999999    ( 0.0000,  0.0000,  0.0000)
  29 Au     5.987564    3.456922   12.444412    ( 0.0000,  0.0000,  0.0000)
  30 Au     4.488827    4.324833   14.894645    ( 0.0000,  0.0000,  0.0000)
  31 Au     4.503194    2.596331   17.386484    ( 0.0000,  0.0000,  0.0000)
  32 Au     2.993782    5.185383    9.999999    ( 0.0000,  0.0000,  0.0000)
  33 Au     4.490673    6.049613   12.444412    ( 0.0000,  0.0000,  0.0000)
  34 Au     2.992597    6.910887   14.881290    ( 0.0000,  0.0000,  0.0000)
  35 Au     3.001058    5.198592   17.374844    ( 0.0000,  0.0000,  0.0000)
  36 H      1.557607    0.055012   20.784055    ( 0.0000,  0.0000,  0.0000)
  37 O      1.537433   -0.377880   19.942130    ( 0.0000,  0.0000,  0.0000)
  38 C      1.516877    0.553957   18.929692    ( 0.0000,  0.0000,  0.0000)
  39 C      1.495730    1.967397   19.301756    ( 0.0000,  0.0000,  0.0000)
  40 O      1.505209    2.575790   20.342606    ( 0.0000,  0.0000,  0.0000)

Unit cell:
           periodic     x           y           z      points  spacing
  1. axis:    yes    8.981346    0.000000    0.000000    44     0.1768
  2. axis:    yes   -4.490673    7.778074    0.000000    44     0.1768
  3. axis:    no     0.000000    0.000000   27.333237   152     0.1798

  Lengths:   8.981346   8.981346  27.333237
  Angles:   90.000000  90.000000 120.000000

Effective grid spacing dv^(1/3) = 0.1865

     iter     time        total  log10-change:
                         energy  eigst   dens
iter:   1 02:33:52 -12101.960824  -2.21
iter:   2 02:34:26 -12101.849323  -2.90  -2.51
iter:   3 02:34:59 -12101.822586c -3.50  -2.78
iter:   4 02:35:34 -12101.805189c -3.46  -3.00
iter:   5 02:36:08 -12101.803349c -3.85  -3.26
iter:   6 02:36:42 -12101.802913c -4.24  -3.43
iter:   7 02:37:16 -12101.801738c -4.26  -3.53
iter:   8 02:37:50 -12101.801823c -4.77  -3.75
iter:   9 02:38:24 -12101.801666c -5.06  -3.85
iter:  10 02:38:58 -12101.801616c -5.81  -3.95
iter:  11 02:39:32 -12101.801582c -5.85  -4.06c
iter:  12 02:40:06 -12101.801616c -6.23  -4.38c
iter:  13 02:40:40 -12101.801605c -7.16  -4.45c
iter:  14 02:41:14 -12101.801611c -6.96  -4.50c
iter:  15 02:41:48 -12101.801600c -6.61  -4.60c
iter:  16 02:42:22 -12101.801613c -7.34  -4.82c
iter:  17 02:42:56 -12101.801614c -7.85c -4.94c

Converged after 17 iterations.

Dipole moment: (-4.192787, -4.790716, 0.068337) |e|*Ang

Energy contributions relative to reference atoms: (reference = -18603687.210930)

Kinetic:       +721.313675
Potential:     -728.415097
External:        +0.000000
XC:            -12100.292043
Entropy (-ST):   -0.391222
Local:           +5.787463
--------------------------
Free energy:   -12101.997225
Extrapolated:  -12101.801614

Showing only first 2 kpts
 Kpt  Band  Eigenvalues  Occupancy
  0   206     -5.69310    1.96628
  0   207     -5.46145    1.70376
  0   208     -5.36405    1.36938
  0   209     -5.27878    0.96139

  1   206     -6.21314    1.99981
  1   207     -6.09112    1.99936
  1   208     -5.82672    1.99103
  1   209     -5.67343    1.95911


Fermi level: -5.28651

No gap

Forces in eV/Ang:
  0 Au    0.03029    0.02118   -0.15971
  1 Au    0.01149    0.01448    0.05966
  2 Au   -0.00978   -0.00458   -0.03611
  3 Au   -0.00991    0.04330    0.18533
  4 Au    0.00823   -0.00356   -0.13461
  5 Au   -0.03645    0.00489    0.03460
  6 Au    0.02084    0.01239   -0.01336
  7 Au   -0.10031    0.04983   -0.00156
  8 Au   -0.00342   -0.00173   -0.13615
  9 Au    0.02450   -0.02066    0.04424
 10 Au    0.00417   -0.00014   -0.01488
 11 Au    0.04128   -0.24409   -0.10104
 12 Au   -0.03764    0.01900   -0.12320
 13 Au    0.01292   -0.02474    0.11237
 14 Au    0.00841   -0.00030   -0.05872
 15 Au    0.18296    0.06509    0.13998
 16 Au   -0.00779   -0.04335   -0.10779
 17 Au    0.01846    0.01461    0.08159
 18 Au   -0.00765    0.05163   -0.18863
 19 Au    0.00305    0.66731    0.04036
 20 Au    0.02692    0.00292   -0.09135
 21 Au    0.00593    0.03559    0.13252
 22 Au   -0.07227    0.05089    0.10413
 23 Au   -0.09518    0.13116    0.00755
 24 Au    0.01494   -0.02610   -0.16392
 25 Au   -0.02375   -0.00412    0.12825
 26 Au    0.00154   -0.00366   -0.00772
 27 Au    0.02058    0.00076   -0.01445
 28 Au    0.00565    0.00223   -0.08014
 29 Au    0.01779    0.01589    0.14866
 30 Au   -0.01812    0.01755   -0.00609
 31 Au    0.08291    0.02043   -0.01826
 32 Au   -0.01564    0.01698   -0.12656
 33 Au   -0.02936   -0.03463    0.09599
 34 Au    0.11746    0.05543    0.11911
 35 Au    0.10047    0.15575   -0.01192
 36 H     0.00874    0.57600    1.24222
 37 O    -0.02666   -0.36760   -0.76296
 38 C    -0.12512   -0.69111    0.24818
 39 C     0.15875   -0.14943   -0.26246
 40 O    -0.06908   -0.41971   -0.18832

BFGS:    4 02:43:13   -12101.801614        1.3693
System changes: positions 

Initializing position-dependent things.

Density initialized from wave functions
                                               
                                               
                                               
                                               
                                               
                                               
                                               
                    O                          
                   H                           
           Au     OuC     Au                   
                   C                           
            AAu    AAu     AAu                 
              AAu     Au     AAu               
                     Au                        
               AAu    AAu     AAu              
                                               
                 Au     Au      Au             
                                               
           Au     AAu     AAu     Au           
             Au     Au      Au                 
                                               
               Au     Au      Au               
                                               
                                               
                                               
                                               

Positions:
   0 Au     0.000000    0.000000    9.999999    ( 0.0000,  0.0000,  0.0000)
   1 Au     1.496891    0.864230   12.444412    ( 0.0000,  0.0000,  0.0000)
   2 Au     0.000106    1.740652   14.860544    ( 0.0000,  0.0000,  0.0000)
   3 Au    -0.025280   -0.002689   17.376954    ( 0.0000,  0.0000,  0.0000)
   4 Au    -1.496891    2.592691    9.999999    ( 0.0000,  0.0000,  0.0000)
   5 Au    -0.000000    3.456922   12.444412    ( 0.0000,  0.0000,  0.0000)
   6 Au    -1.497935    4.321120   14.891220    ( 0.0000,  0.0000,  0.0000)
   7 Au    -1.517267    2.598340   17.375588    ( 0.0000,  0.0000,  0.0000)
   8 Au    -2.993782    5.185383    9.999999    ( 0.0000,  0.0000,  0.0000)
   9 Au    -1.496891    6.049613   12.444412    ( 0.0000,  0.0000,  0.0000)
  10 Au    -2.983586    6.906529   14.861117    ( 0.0000,  0.0000,  0.0000)
  11 Au    -2.993033    5.142574   17.358236    ( 0.0000,  0.0000,  0.0000)
  12 Au     2.993782    0.000000    9.999999    ( 0.0000,  0.0000,  0.0000)
  13 Au     4.490673    0.864230   12.444412    ( 0.0000,  0.0000,  0.0000)
  14 Au     2.991607    1.729580   14.882258    ( 0.0000,  0.0000,  0.0000)
  15 Au     3.043483   -0.001478   17.384037    ( 0.0000,  0.0000,  0.0000)
  16 Au     1.496891    2.592691    9.999999    ( 0.0000,  0.0000,  0.0000)
  17 Au     2.993782    3.456922   12.444412    ( 0.0000,  0.0000,  0.0000)
  18 Au     1.501140    4.315873   14.870113    ( 0.0000,  0.0000,  0.0000)
  19 Au     1.492879    2.787724   17.267220    ( 0.0000,  0.0000,  0.0000)
  20 Au    -0.000000    5.185383    9.999999    ( 0.0000,  0.0000,  0.0000)
  21 Au     1.496891    6.049613   12.444412    ( 0.0000,  0.0000,  0.0000)
  22 Au    -0.015093    6.926334   14.910796    ( 0.0000,  0.0000,  0.0000)
  23 Au    -0.012596    5.202873   17.385158    ( 0.0000,  0.0000,  0.0000)
  24 Au     5.987564    0.000000    9.999999    ( 0.0000,  0.0000,  0.0000)
  25 Au     7.484455    0.864230   12.444412    ( 0.0000,  0.0000,  0.0000)
  26 Au     5.989512    1.727502   14.893878    ( 0.0000,  0.0000,  0.0000)
  27 Au     5.993101   -0.001747   17.373842    ( 0.0000,  0.0000,  0.0000)
  28 Au     4.490673    2.592691    9.999999    ( 0.0000,  0.0000,  0.0000)
  29 Au     5.987564    3.456922   12.444412    ( 0.0000,  0.0000,  0.0000)
  30 Au     4.487346    4.326454   14.894691    ( 0.0000,  0.0000,  0.0000)
  31 Au     4.511670    2.598645   17.384990    ( 0.0000,  0.0000,  0.0000)
  32 Au     2.993782    5.185383    9.999999    ( 0.0000,  0.0000,  0.0000)
  33 Au     4.490673    6.049613   12.444412    ( 0.0000,  0.0000,  0.0000)
  34 Au     3.001403    6.914446   14.890644    ( 0.0000,  0.0000,  0.0000)
  35 Au     3.007939    5.209007   17.373689    ( 0.0000,  0.0000,  0.0000)
  36 H      1.556488    0.068762   20.823965    ( 0.0000,  0.0000,  0.0000)
  37 O      1.537878   -0.386157   19.960954    ( 0.0000,  0.0000,  0.0000)
  38 C      1.502251    0.530100   18.942891    ( 0.0000,  0.0000,  0.0000)
  39 C      1.513086    1.931566   19.293436    ( 0.0000,  0.0000,  0.0000)
  40 O      1.498088    2.541111   20.325667    ( 0.0000,  0.0000,  0.0000)

Unit cell:
           periodic     x           y           z      points  spacing
  1. axis:    yes    8.981346    0.000000    0.000000    44     0.1768
  2. axis:    yes   -4.490673    7.778074    0.000000    44     0.1768
  3. axis:    no     0.000000    0.000000   27.333237   152     0.1798

  Lengths:   8.981346   8.981346  27.333237
  Angles:   90.000000  90.000000 120.000000

Effective grid spacing dv^(1/3) = 0.1865

     iter     time        total  log10-change:
                         energy  eigst   dens
iter:   1 02:44:23 -12102.032769  -1.56
iter:   2 02:44:57 -12101.973966  -2.47  -2.52
iter:   3 02:45:31 -12101.939241c -2.95  -2.68
iter:   4 02:46:05 -12101.909038c -2.82  -2.77
iter:   5 02:46:39 -12101.905429c -3.71  -3.08
iter:   6 02:47:14 -12101.903706c -3.50  -3.19
iter:   7 02:47:48 -12101.903045c -4.17  -3.38
iter:   8 02:48:22 -12101.902349c -4.47  -3.48
iter:   9 02:48:56 -12101.902254c -4.66  -3.57
iter:  10 02:49:31 -12101.902248c -5.26  -3.75
iter:  11 02:50:05 -12101.902178c -5.68  -3.91
iter:  12 02:50:39 -12101.902202c -5.72  -4.00c
iter:  13 02:51:13 -12101.902171c -5.81  -4.14c
iter:  14 02:51:48 -12101.902215c -6.16  -4.19c
iter:  15 02:52:22 -12101.902213c -6.60  -4.34c
iter:  16 02:52:56 -12101.902192c -6.41  -4.46c
iter:  17 02:53:30 -12101.902192c -7.01  -4.75c
iter:  18 02:54:04 -12101.902191c -7.15  -4.81c
iter:  19 02:54:39 -12101.902184c -7.55c -4.92c

Converged after 19 iterations.

Dipole moment: (-2.724427, -5.487760, 0.084839) |e|*Ang

Energy contributions relative to reference atoms: (reference = -18603687.210930)

Kinetic:       +721.532606
Potential:     -728.781098
External:        +0.000000
XC:            -12100.249232
Entropy (-ST):   -0.389168
Local:           +5.790125
--------------------------
Free energy:   -12102.096768
Extrapolated:  -12101.902184

Showing only first 2 kpts
 Kpt  Band  Eigenvalues  Occupancy
  0   206     -5.67232    1.96344
  0   207     -5.45211    1.71177
  0   208     -5.35649    1.39070
  0   209     -5.26416    0.95105

  1   206     -6.19814    1.99981
  1   207     -6.07570    1.99934
  1   208     -5.80542    1.99021
  1   209     -5.65713    1.95757


Fermi level: -5.27396

No gap

Forces in eV/Ang:
  0 Au    0.03133    0.02171   -0.15946
  1 Au    0.01258    0.01367    0.04753
  2 Au   -0.00107   -0.00670    0.03028
  3 Au    0.10497    0.07159    0.16078
  4 Au    0.00943   -0.00186   -0.13642
  5 Au   -0.04516    0.00489    0.01755
  6 Au    0.02123    0.00770   -0.03675
  7 Au   -0.01534    0.02926    0.00418
  8 Au   -0.00289   -0.00281   -0.13679
  9 Au    0.03362   -0.01884    0.04465
 10 Au    0.00941    0.01535    0.04382
 11 Au    0.07955   -0.13261   -0.08024
 12 Au   -0.03866    0.01977   -0.12256
 13 Au    0.01883   -0.03504    0.11223
 14 Au    0.00273   -0.00782   -0.00985
 15 Au   -0.04583    0.09719    0.15085
 16 Au   -0.00744   -0.04538   -0.11023
 17 Au    0.02772    0.01620    0.06346
 18 Au   -0.02057    0.13613   -0.22489
 19 Au    0.07532    0.02778    0.39757
 20 Au    0.02511    0.00264   -0.09272
 21 Au    0.00912    0.05567    0.14835
 22 Au   -0.01616    0.04858    0.04611
 23 Au   -0.12462    0.17718    0.02451
 24 Au    0.01500   -0.02762   -0.16327
 25 Au   -0.03072   -0.01470    0.12961
 26 Au   -0.00042   -0.00902   -0.02332
 27 Au    0.04004    0.00800   -0.00291
 28 Au    0.00422    0.00394   -0.07991
 29 Au    0.01754    0.01663    0.15092
 30 Au   -0.01527    0.00920   -0.02327
 31 Au    0.00028   -0.01255   -0.01268
 32 Au   -0.01401    0.01643   -0.13037
 33 Au   -0.03906   -0.03485    0.09431
 34 Au    0.10636    0.06901    0.10013
 35 Au    0.12411    0.19731   -0.00367
 36 H    -0.01263   -0.06848   -0.06316
 37 O    -0.05426    0.17670    0.57030
 38 C     0.01477   -0.82707   -0.25803
 39 C    -0.01661    0.17175   -0.73376
 40 O    -0.00775   -0.00026    0.35079

BFGS:    5 02:54:56   -12101.902184        0.8665
System changes: positions 

Initializing position-dependent things.

Density initialized from wave functions
                                               
                                               
                                               
                                               
                                               
                                               
                                               
                    O                          
                   H                           
           Au     OuC     Au                   
                   C                           
            AAu    AAu     AAu                 
              AAu     Au     AAu               
                     Au                        
               AAu    AAu     AAu              
                                               
                 Au     Au      Au             
                                               
           Au     AAu     AAu     Au           
             Au     Au      Au                 
                                               
               Au     Au      Au               
                                               
                                               
                                               
                                               

Positions:
   0 Au     0.000000    0.000000    9.999999    ( 0.0000,  0.0000,  0.0000)
   1 Au     1.496891    0.864230   12.444412    ( 0.0000,  0.0000,  0.0000)
   2 Au    -0.000076    1.740504   14.859333    ( 0.0000,  0.0000,  0.0000)
   3 Au    -0.026612   -0.001099   17.384073    ( 0.0000,  0.0000,  0.0000)
   4 Au    -1.496891    2.592691    9.999999    ( 0.0000,  0.0000,  0.0000)
   5 Au    -0.000000    3.456922   12.444412    ( 0.0000,  0.0000,  0.0000)
   6 Au    -1.496997    4.321674   14.890542    ( 0.0000,  0.0000,  0.0000)
   7 Au    -1.521152    2.600275   17.375554    ( 0.0000,  0.0000,  0.0000)
   8 Au    -2.993782    5.185383    9.999999    ( 0.0000,  0.0000,  0.0000)
   9 Au    -1.496891    6.049613   12.444412    ( 0.0000,  0.0000,  0.0000)
  10 Au    -2.983399    6.906577   14.860513    ( 0.0000,  0.0000,  0.0000)
  11 Au    -2.991204    5.132594   17.353808    ( 0.0000,  0.0000,  0.0000)
  12 Au     2.993782    0.000000    9.999999    ( 0.0000,  0.0000,  0.0000)
  13 Au     4.490673    0.864230   12.444412    ( 0.0000,  0.0000,  0.0000)
  14 Au     2.991724    1.729636   14.880080    ( 0.0000,  0.0000,  0.0000)
  15 Au     3.050826    0.000946   17.388745    ( 0.0000,  0.0000,  0.0000)
  16 Au     1.496891    2.592691    9.999999    ( 0.0000,  0.0000,  0.0000)
  17 Au     2.993782    3.456922   12.444412    ( 0.0000,  0.0000,  0.0000)
  18 Au     1.500704    4.318317   14.862122    ( 0.0000,  0.0000,  0.0000)
  19 Au     1.493847    2.815996   17.266188    ( 0.0000,  0.0000,  0.0000)
  20 Au    -0.000000    5.185383    9.999999    ( 0.0000,  0.0000,  0.0000)
  21 Au     1.496891    6.049613   12.444412    ( 0.0000,  0.0000,  0.0000)
  22 Au    -0.017847    6.928438   14.914901    ( 0.0000,  0.0000,  0.0000)
  23 Au    -0.016987    5.208994   17.385471    ( 0.0000,  0.0000,  0.0000)
  24 Au     5.987564    0.000000    9.999999    ( 0.0000,  0.0000,  0.0000)
  25 Au     7.484455    0.864230   12.444412    ( 0.0000,  0.0000,  0.0000)
  26 Au     5.989584    1.727317   14.893446    ( 0.0000,  0.0000,  0.0000)
  27 Au     5.994122   -0.001697   17.373351    ( 0.0000,  0.0000,  0.0000)
  28 Au     4.490673    2.592691    9.999999    ( 0.0000,  0.0000,  0.0000)
  29 Au     5.987564    3.456922   12.444412    ( 0.0000,  0.0000,  0.0000)
  30 Au     4.486551    4.327212   14.894366    ( 0.0000,  0.0000,  0.0000)
  31 Au     4.514900    2.599332   17.384219    ( 0.0000,  0.0000,  0.0000)
  32 Au     2.993782    5.185383    9.999999    ( 0.0000,  0.0000,  0.0000)
  33 Au     4.490673    6.049613   12.444412    ( 0.0000,  0.0000,  0.0000)
  34 Au     3.006337    6.916833   14.895717    ( 0.0000,  0.0000,  0.0000)
  35 Au     3.012423    5.215945   17.373184    ( 0.0000,  0.0000,  0.0000)
  36 H      1.555855    0.072633   20.837331    ( 0.0000,  0.0000,  0.0000)
  37 O      1.537249   -0.386129   19.977043    ( 0.0000,  0.0000,  0.0000)
  38 C      1.496915    0.508705   18.944523    ( 0.0000,  0.0000,  0.0000)
  39 C      1.519461    1.922702   19.283629    ( 0.0000,  0.0000,  0.0000)
  40 O      1.495185    2.525856   20.320485    ( 0.0000,  0.0000,  0.0000)

Unit cell:
           periodic     x           y           z      points  spacing
  1. axis:    yes    8.981346    0.000000    0.000000    44     0.1768
  2. axis:    yes   -4.490673    7.778074    0.000000    44     0.1768
  3. axis:    no     0.000000    0.000000   27.333237   152     0.1798

  Lengths:   8.981346   8.981346  27.333237
  Angles:   90.000000  90.000000 120.000000

Effective grid spacing dv^(1/3) = 0.1865

     iter     time        total  log10-change:
                         energy  eigst   dens
iter:   1 02:56:05 -12101.950127  -2.21
iter:   2 02:56:40 -12101.944492  -3.10  -2.97
iter:   3 02:57:14 -12101.938952c -3.51  -3.09
iter:   4 02:57:48 -12101.937438c -3.54  -3.22
iter:   5 02:58:22 -12101.936390c -4.58  -3.42
iter:   6 02:58:56 -12101.936196c -4.53  -3.57
iter:   7 02:59:30 -12101.936216c -4.92  -3.72
iter:   8 03:00:04 -12101.936099c -5.11  -3.88
iter:   9 03:00:38 -12101.936073c -6.07  -4.08c
iter:  10 03:01:12 -12101.936077c -5.68  -4.16c
iter:  11 03:01:47 -12101.936052c -6.26  -4.38c
iter:  12 03:02:21 -12101.936050c -6.72  -4.45c
iter:  13 03:02:55 -12101.936071c -6.58  -4.56c
iter:  14 03:03:29 -12101.936067c -7.00  -4.76c
iter:  15 03:04:03 -12101.936060c -7.18  -4.84c
iter:  16 03:04:37 -12101.936054c -7.42c -4.97c

Converged after 16 iterations.

Dipole moment: (-2.163807, -5.902359, 0.086978) |e|*Ang

Energy contributions relative to reference atoms: (reference = -18603687.210930)

Kinetic:       +721.543068
Potential:     -728.893836
External:        +0.000000
XC:            -12100.188289
Entropy (-ST):   -0.386848
Local:           +5.796426
--------------------------
Free energy:   -12102.129478
Extrapolated:  -12101.936054

Showing only first 2 kpts
 Kpt  Band  Eigenvalues  Occupancy
  0   206     -5.67140    1.96351
  0   207     -5.45500    1.72145
  0   208     -5.35567    1.39186
  0   209     -5.26270    0.94919

  1   206     -6.19788    1.99981
  1   207     -6.07372    1.99934
  1   208     -5.80098    1.98988
  1   209     -5.65766    1.95824


Fermi level: -5.27287

No gap

Forces in eV/Ang:
  0 Au    0.03231    0.02270   -0.16054
  1 Au    0.01248    0.01449    0.04196
  2 Au    0.00984   -0.00232    0.06225
  3 Au    0.10795    0.05645    0.12264
  4 Au    0.01006   -0.00193   -0.13831
  5 Au   -0.05042    0.00167    0.00674
  6 Au    0.02390    0.00559   -0.04400
  7 Au    0.02394    0.01548    0.00441
  8 Au   -0.00329   -0.00321   -0.13768
  9 Au    0.03712   -0.01732    0.04460
 10 Au    0.01111    0.02086    0.06076
 11 Au    0.08374   -0.06435   -0.06584
 12 Au   -0.03973    0.02096   -0.12325
 13 Au    0.02108   -0.03880    0.11097
 14 Au   -0.00753   -0.00564    0.01802
 15 Au   -0.12033    0.08013    0.13293
 16 Au   -0.00770   -0.04680   -0.11209
 17 Au    0.03289    0.01527    0.05231
 18 Au   -0.03129    0.15137   -0.20154
 19 Au    0.05629   -0.18293    0.46525
 20 Au    0.02550    0.00260   -0.09505
 21 Au    0.01164    0.06714    0.14927
 22 Au    0.01026    0.04328    0.01919
 23 Au   -0.12843    0.18450    0.02403
 24 Au    0.01503   -0.02839   -0.16303
 25 Au   -0.03291   -0.01835    0.13036
 26 Au   -0.00057   -0.00984   -0.02793
 27 Au    0.04708    0.01290    0.00311
 28 Au    0.00393    0.00418   -0.08101
 29 Au    0.01754    0.01620    0.15063
 30 Au   -0.01596    0.00568   -0.02722
 31 Au   -0.03425   -0.02549   -0.01167
 32 Au   -0.01398    0.01635   -0.13292
 33 Au   -0.04336   -0.03446    0.09356
 34 Au    0.09524    0.07237    0.09044
 35 Au    0.12019    0.19021   -0.00028
 36 H    -0.00990   -0.00068   -0.08096
 37 O    -0.03263    0.04046    0.49992
 38 C     0.07297   -0.55212   -0.20242
 39 C    -0.07870    0.19201   -0.73154
 40 O    -0.01097   -0.11984    0.27094

BFGS:    6 03:04:55   -12101.936054        0.7604
System changes: positions 

Initializing position-dependent things.

Density initialized from wave functions
                                               
                                               
                                               
                                               
                                               
                                               
                                               
                    O                          
                   H                           
           Au     OuC     Au                   
                   C                           
            AAu    AAu     AAu                 
               Au      Au     Au               
              Au     Au      Au                
               AAu    AAu     AAu              
                                               
                 Au     Au      Au             
                                               
           Au     AAu     AAu     Au           
             Au     Au      Au                 
                                               
               Au     Au      Au               
                                               
                                               
                                               
                                               

Positions:
   0 Au     0.000000    0.000000    9.999999    ( 0.0000,  0.0000,  0.0000)
   1 Au     1.496891    0.864230   12.444412    ( 0.0000,  0.0000,  0.0000)
   2 Au    -0.000049    1.740221   14.858964    ( 0.0000,  0.0000,  0.0000)
   3 Au    -0.026444    0.003194   17.400537    ( 0.0000,  0.0000,  0.0000)
   4 Au    -1.496891    2.592691    9.999999    ( 0.0000,  0.0000,  0.0000)
   5 Au    -0.000000    3.456922   12.444412    ( 0.0000,  0.0000,  0.0000)
   6 Au    -1.494526    4.322868   14.888021    ( 0.0000,  0.0000,  0.0000)
   7 Au    -1.527590    2.604253   17.375588    ( 0.0000,  0.0000,  0.0000)
   8 Au    -2.993782    5.185383    9.999999    ( 0.0000,  0.0000,  0.0000)
   9 Au    -1.496891    6.049613   12.444412    ( 0.0000,  0.0000,  0.0000)
  10 Au    -2.982730    6.907262   14.861106    ( 0.0000,  0.0000,  0.0000)
  11 Au    -2.985497    5.112487   17.343718    ( 0.0000,  0.0000,  0.0000)
  12 Au     2.993782    0.000000    9.999999    ( 0.0000,  0.0000,  0.0000)
  13 Au     4.490673    0.864230   12.444412    ( 0.0000,  0.0000,  0.0000)
  14 Au     2.991639    1.729632   14.876653    ( 0.0000,  0.0000,  0.0000)
  15 Au     3.061081    0.007416   17.401095    ( 0.0000,  0.0000,  0.0000)
  16 Au     1.496891    2.592691    9.999999    ( 0.0000,  0.0000,  0.0000)
  17 Au     2.993782    3.456922   12.444412    ( 0.0000,  0.0000,  0.0000)
  18 Au     1.498907    4.327095   14.841823    ( 0.0000,  0.0000,  0.0000)
  19 Au     1.496675    2.863489   17.277336    ( 0.0000,  0.0000,  0.0000)
  20 Au    -0.000000    5.185383    9.999999    ( 0.0000,  0.0000,  0.0000)
  21 Au     1.496891    6.049613   12.444412    ( 0.0000,  0.0000,  0.0000)
  22 Au    -0.022601    6.933558   14.923036    ( 0.0000,  0.0000,  0.0000)
  23 Au    -0.028829    5.225673   17.386659    ( 0.0000,  0.0000,  0.0000)
  24 Au     5.987564    0.000000    9.999999    ( 0.0000,  0.0000,  0.0000)
  25 Au     7.484455    0.864230   12.444412    ( 0.0000,  0.0000,  0.0000)
  26 Au     5.989706    1.726695   14.891847    ( 0.0000,  0.0000,  0.0000)
  27 Au     5.997394   -0.001208   17.372553    ( 0.0000,  0.0000,  0.0000)
  28 Au     4.490673    2.592691    9.999999    ( 0.0000,  0.0000,  0.0000)
  29 Au     5.987564    3.456922   12.444412    ( 0.0000,  0.0000,  0.0000)
  30 Au     4.484586    4.328785   14.893005    ( 0.0000,  0.0000,  0.0000)
  31 Au     4.519874    2.599860   17.382417    ( 0.0000,  0.0000,  0.0000)
  32 Au     2.993782    5.185383    9.999999    ( 0.0000,  0.0000,  0.0000)
  33 Au     4.490673    6.049613   12.444412    ( 0.0000,  0.0000,  0.0000)
  34 Au     3.018210    6.923365   14.907779    ( 0.0000,  0.0000,  0.0000)
  35 Au     3.024125    5.234149   17.372228    ( 0.0000,  0.0000,  0.0000)
  36 H      1.554533    0.083911   20.865954    ( 0.0000,  0.0000,  0.0000)
  37 O      1.535500   -0.389002   20.013427    ( 0.0000,  0.0000,  0.0000)
  38 C      1.489229    0.456166   18.945377    ( 0.0000,  0.0000,  0.0000)
  39 C      1.529066    1.913902   19.250770    ( 0.0000,  0.0000,  0.0000)
  40 O      1.489094    2.487994   20.310541    ( 0.0000,  0.0000,  0.0000)

Unit cell:
           periodic     x           y           z      points  spacing
  1. axis:    yes    8.981346    0.000000    0.000000    44     0.1768
  2. axis:    yes   -4.490673    7.778074    0.000000    44     0.1768
  3. axis:    no     0.000000    0.000000   27.333237   152     0.1798

  Lengths:   8.981346   8.981346  27.333237
  Angles:   90.000000  90.000000 120.000000

Effective grid spacing dv^(1/3) = 0.1865

     iter     time        total  log10-change:
                         energy  eigst   dens
iter:   1 03:06:04 -12102.044446  -1.51
iter:   2 03:06:38 -12102.026180  -2.38  -2.67
iter:   3 03:07:12 -12102.001884c -2.82  -2.76
iter:   4 03:07:47 -12101.997883c -2.93  -2.94
iter:   5 03:08:21 -12101.993260c -3.83  -3.09
iter:   6 03:08:55 -12101.992588c -3.82  -3.25
iter:   7 03:09:29 -12101.992771c -4.21  -3.41
iter:   8 03:10:03 -12101.992582c -4.47  -3.57
iter:   9 03:10:38 -12101.992097c -5.21  -3.74
iter:  10 03:11:12 -12101.992063c -5.02  -3.87
iter:  11 03:11:46 -12101.992025c -5.45  -3.95
iter:  12 03:12:20 -12101.992024c -5.73  -4.02c
iter:  13 03:12:54 -12101.992038c -5.95  -4.24c
iter:  14 03:13:28 -12101.992030c -6.61  -4.28c
iter:  15 03:14:02 -12101.992022c -6.48  -4.39c
iter:  16 03:14:37 -12101.992001c -6.87  -4.53c
iter:  17 03:15:11 -12101.991995c -6.99  -4.62c
iter:  18 03:15:45 -12101.991996c -6.95  -4.83c
iter:  19 03:16:19 -12101.991993c -7.50c -5.02c

Converged after 19 iterations.

Dipole moment: (-1.104930, -7.089909, 0.077631) |e|*Ang

Energy contributions relative to reference atoms: (reference = -18603687.210930)

Kinetic:       +720.862574
Potential:     -728.600187
External:        +0.000000
XC:            -12099.868832
Entropy (-ST):   -0.380733
Local:           +5.804817
--------------------------
Free energy:   -12102.182360
Extrapolated:  -12101.991993

Showing only first 2 kpts
 Kpt  Band  Eigenvalues  Occupancy
  0   206     -5.68373    1.96515
  0   207     -5.47570    1.75135
  0   208     -5.36122    1.38305
  0   209     -5.26654    0.93036

  1   206     -6.20849    1.99981
  1   207     -6.07969    1.99932
  1   208     -5.80264    1.98926
  1   209     -5.67241    1.96106


Fermi level: -5.28049

No gap

Forces in eV/Ang:
  0 Au    0.03388    0.02373   -0.15897
  1 Au    0.01143    0.01391    0.03539
  2 Au    0.03584    0.01332    0.11642
  3 Au    0.03601   -0.00004    0.01057
  4 Au    0.01035   -0.00212   -0.13837
  5 Au   -0.06521   -0.00723   -0.01825
  6 Au    0.02980    0.00297   -0.05679
  7 Au    0.09936   -0.01780   -0.00044
  8 Au   -0.00459   -0.00416   -0.13464
  9 Au    0.04236   -0.01328    0.04776
 10 Au    0.01463    0.02614    0.07361
 11 Au    0.04973    0.08807   -0.02773
 12 Au   -0.04124    0.02213   -0.12054
 13 Au    0.02655   -0.04671    0.10933
 14 Au   -0.03259    0.00606    0.07272
 15 Au   -0.18055    0.01904    0.06560
 16 Au   -0.00860   -0.04892   -0.11259
 17 Au    0.04684    0.01294    0.02749
 18 Au   -0.04880    0.12630   -0.07133
 19 Au    0.08498   -0.35608    0.40452
 20 Au    0.02654    0.00327   -0.09735
 21 Au    0.01792    0.09636    0.14136
 22 Au    0.05816    0.02822   -0.03669
 23 Au   -0.10507    0.17420    0.00522
 24 Au    0.01513   -0.03051   -0.15603
 25 Au   -0.03703   -0.02557    0.13526
 26 Au    0.00010   -0.00899   -0.03621
 27 Au    0.05190    0.02802    0.01538
 28 Au    0.00463    0.00482   -0.07996
 29 Au    0.01744    0.01577    0.14973
 30 Au   -0.01785   -0.00049   -0.03290
 31 Au   -0.09019   -0.04529   -0.01324
 32 Au   -0.01400    0.01687   -0.13466
 33 Au   -0.05085   -0.03286    0.09665
 34 Au    0.05804    0.07504    0.04952
 35 Au    0.10363    0.15744    0.01740
 36 H    -0.01131    0.13076   -0.16014
 37 O    -0.02403   -0.05123    0.26209
 38 C     0.18428    0.13129    0.08838
 39 C    -0.22795   -0.00578   -0.26491
 40 O     0.10452   -0.36278   -0.11621

BFGS:    7 03:16:36   -12101.991993        0.5456
System changes: positions 

Initializing position-dependent things.

Density initialized from wave functions
                                               
                                               
                                               
                                               
                                               
                                               
                                               
                    O                          
                   H                           
           Au     OuC     Au                   
                   C                           
            AAu    AAu     AAu                 
               Au      Au     Au               
              Au     Au      Au                
               AAu    AAu     AAu              
                                               
                 Au     Au      Au             
                                               
           Au     AAu     AAu     Au           
             Au     Au      Au                 
                                               
               Au     Au      Au               
                                               
                                               
                                               
                                               

Positions:
   0 Au     0.000000    0.000000    9.999999    ( 0.0000,  0.0000,  0.0000)
   1 Au     1.496891    0.864230   12.444412    ( 0.0000,  0.0000,  0.0000)
   2 Au     0.000534    1.740349   14.861014    ( 0.0000,  0.0000,  0.0000)
   3 Au    -0.025130    0.004455   17.404858    ( 0.0000,  0.0000,  0.0000)
   4 Au    -1.496891    2.592691    9.999999    ( 0.0000,  0.0000,  0.0000)
   5 Au    -0.000000    3.456922   12.444412    ( 0.0000,  0.0000,  0.0000)
   6 Au    -1.493428    4.323193   14.886367    ( 0.0000,  0.0000,  0.0000)
   7 Au    -1.527245    2.604893   17.375604    ( 0.0000,  0.0000,  0.0000)
   8 Au    -2.993782    5.185383    9.999999    ( 0.0000,  0.0000,  0.0000)
   9 Au    -1.496891    6.049613   12.444412    ( 0.0000,  0.0000,  0.0000)
  10 Au    -2.982297    6.907918   14.862726    ( 0.0000,  0.0000,  0.0000)
  11 Au    -2.983121    5.109350   17.340859    ( 0.0000,  0.0000,  0.0000)
  12 Au     2.993782    0.000000    9.999999    ( 0.0000,  0.0000,  0.0000)
  13 Au     4.490673    0.864230   12.444412    ( 0.0000,  0.0000,  0.0000)
  14 Au     2.991112    1.729681   14.877144    ( 0.0000,  0.0000,  0.0000)
  15 Au     3.059737    0.009565   17.405536    ( 0.0000,  0.0000,  0.0000)
  16 Au     1.496891    2.592691    9.999999    ( 0.0000,  0.0000,  0.0000)
  17 Au     2.993782    3.456922   12.444412    ( 0.0000,  0.0000,  0.0000)
  18 Au     1.497625    4.331693   14.835429    ( 0.0000,  0.0000,  0.0000)
  19 Au     1.499099    2.866684   17.288957    ( 0.0000,  0.0000,  0.0000)
  20 Au    -0.000000    5.185383    9.999999    ( 0.0000,  0.0000,  0.0000)
  21 Au     1.496891    6.049613   12.444412    ( 0.0000,  0.0000,  0.0000)
  22 Au    -0.022637    6.935303   14.924256    ( 0.0000,  0.0000,  0.0000)
  23 Au    -0.033578    5.232828   17.387110    ( 0.0000,  0.0000,  0.0000)
  24 Au     5.987564    0.000000    9.999999    ( 0.0000,  0.0000,  0.0000)
  25 Au     7.484455    0.864230   12.444412    ( 0.0000,  0.0000,  0.0000)
  26 Au     5.989728    1.726371   14.890797    ( 0.0000,  0.0000,  0.0000)
  27 Au     5.999124   -0.000593   17.372637    ( 0.0000,  0.0000,  0.0000)
  28 Au     4.490673    2.592691    9.999999    ( 0.0000,  0.0000,  0.0000)
[...]
  25 Au     7.484455    0.864230   12.444412    ( 0.0000,  0.0000,  0.0000)
  26 Au     5.995049    1.742394   14.882749    ( 0.0000,  0.0000,  0.0000)
  27 Au     6.004271    0.050423   17.394851    ( 0.0000,  0.0000,  0.0000)
  28 Au     4.490673    2.592691    9.999999    ( 0.0000,  0.0000,  0.0000)
  29 Au     5.987564    3.456922   12.444412    ( 0.0000,  0.0000,  0.0000)
  30 Au     4.480704    4.335361   14.881621    ( 0.0000,  0.0000,  0.0000)
  31 Au     4.509250    2.606115   17.372070    ( 0.0000,  0.0000,  0.0000)
  32 Au     2.993782    5.185383    9.999999    ( 0.0000,  0.0000,  0.0000)
  33 Au     4.490673    6.049613   12.444412    ( 0.0000,  0.0000,  0.0000)
  34 Au     3.045581    6.956339   14.920496    ( 0.0000,  0.0000,  0.0000)
  35 Au     3.052071    5.285600   17.374343    ( 0.0000,  0.0000,  0.0000)
  36 H      1.533201    0.176238   20.869329    ( 0.0000,  0.0000,  0.0000)
  37 O      1.528287   -0.386551   20.072983    ( 0.0000,  0.0000,  0.0000)
  38 C      1.504287    0.404521   18.967149    ( 0.0000,  0.0000,  0.0000)
  39 C      1.504099    1.861688   19.249711    ( 0.0000,  0.0000,  0.0000)
  40 O      1.482551    2.379632   20.339434    ( 0.0000,  0.0000,  0.0000)

Unit cell:
           periodic     x           y           z      points  spacing
  1. axis:    yes    8.981346    0.000000    0.000000    44     0.1768
  2. axis:    yes   -4.490673    7.778074    0.000000    44     0.1768
  3. axis:    no     0.000000    0.000000   27.333237   152     0.1798

  Lengths:   8.981346   8.981346  27.333237
  Angles:   90.000000  90.000000 120.000000

Effective grid spacing dv^(1/3) = 0.1865

     iter     time        total  log10-change:
                         energy  eigst   dens
iter:   1 05:34:04 -12102.070849  -3.90
iter:   2 05:34:38 -12102.070896  -4.86  -3.84
iter:   3 05:35:12 -12102.070829c -5.53  -4.01c
iter:   4 05:35:46 -12102.070869c -5.77  -4.13c
iter:   5 05:36:20 -12102.070841c -6.32  -4.35c
iter:   6 05:36:54 -12102.070828c -6.35  -4.49c
iter:   7 05:37:28 -12102.070838c -6.89  -4.70c
iter:   8 05:38:03 -12102.070836c -7.26  -4.81c
iter:   9 05:38:37 -12102.070842c -7.52c -4.91c

Converged after 9 iterations.

Dipole moment: (-1.939663, -8.542318, 0.003713) |e|*Ang

Energy contributions relative to reference atoms: (reference = -18603687.210930)

Kinetic:       +720.549410
Potential:     -728.211095
External:        +0.000000
XC:            -12100.027027
Entropy (-ST):   -0.380556
Local:           +5.808149
--------------------------
Free energy:   -12102.261119
Extrapolated:  -12102.070842

Showing only first 2 kpts
 Kpt  Band  Eigenvalues  Occupancy
  0   206     -5.74337    1.96559
  0   207     -5.53584    1.75523
  0   208     -5.41383    1.35831
  0   209     -5.33535    0.98254

  1   206     -6.28324    1.99984
  1   207     -6.13376    1.99929
  1   208     -5.86321    1.98949
  1   209     -5.73358    1.96212


Fermi level: -5.33884

No gap

Forces in eV/Ang:
  0 Au    0.03607    0.02321   -0.15735
  1 Au    0.01514    0.03379    0.07503
  2 Au    0.00693   -0.00532    0.01164
  3 Au    0.01252    0.02100    0.00444
  4 Au    0.00855   -0.00523   -0.14010
  5 Au   -0.00830   -0.02167    0.02573
  6 Au    0.00933    0.00208    0.00831
  7 Au    0.00433    0.01461   -0.00077
  8 Au   -0.00664   -0.00376   -0.13758
  9 Au    0.04354    0.01040    0.03018
 10 Au   -0.00305    0.01512    0.00677
 11 Au   -0.00538    0.01447    0.00640
 12 Au   -0.04177    0.02137   -0.11643
 13 Au    0.00293   -0.03025    0.12963
 14 Au   -0.00007    0.00207    0.01197
 15 Au   -0.00757    0.01453    0.02016
 16 Au   -0.00950   -0.04981   -0.10544
 17 Au    0.00701    0.00442    0.08312
 18 Au    0.00851   -0.01192   -0.00259
 19 Au   -0.01704   -0.00600   -0.00919
 20 Au    0.02680    0.00513   -0.10267
 21 Au    0.03571    0.08554    0.17252
 22 Au    0.00252    0.01195   -0.00510
 23 Au   -0.01691    0.00126   -0.00788
 24 Au    0.01297   -0.03119   -0.15664
 25 Au   -0.01092   -0.01410    0.16257
 26 Au    0.00243   -0.00309   -0.00337
 27 Au    0.00601    0.00708    0.01030
 28 Au    0.00598    0.00195   -0.08174
 29 Au    0.01451    0.01844    0.12838
 30 Au    0.01127   -0.00243    0.00330
 31 Au   -0.01417    0.00038   -0.00055
 32 Au   -0.01457    0.01831   -0.13439
 33 Au   -0.05046   -0.01786    0.10407
 34 Au    0.00697    0.00899   -0.00738
 35 Au    0.01441    0.01393    0.00482
 36 H    -0.01546   -0.01657    0.01618
 37 O     0.01697   -0.00410   -0.02466
 38 C    -0.02876    0.04151    0.03863
 39 C     0.02033    0.00527   -0.00833
 40 O    -0.01062   -0.02727   -0.01843

BFGS:   25 05:38:54   -12102.070842        0.0636
System changes: positions 

Initializing position-dependent things.

Density initialized from wave functions
                                               
                                               
                                               
                                               
                                               
                                               
                                               
                    O                          
                   H                           
           Au     OuC     Au                   
                   CAu                         
            AAu    Au      AAu                 
               Au     Au      Au               
              Au     Au      Au                
               AAu    AAu     AAu              
                                               
                 Au     Au      Au             
                                               
           Au     AAu     AAu     Au           
                                               
             Au     Au      Au                 
               Au     Au      Au               
                                               
                                               
                                               
                                               

Positions:
   0 Au     0.000000    0.000000    9.999999    ( 0.0000,  0.0000,  0.0000)
   1 Au     1.496891    0.864230   12.444412    ( 0.0000,  0.0000,  0.0000)
   2 Au     0.025145    1.749133   14.885330    ( 0.0000,  0.0000,  0.0000)
   3 Au    -0.021274    0.004542   17.413917    ( 0.0000,  0.0000,  0.0000)
   4 Au    -1.496891    2.592691    9.999999    ( 0.0000,  0.0000,  0.0000)
   5 Au    -0.000000    3.456922   12.444412    ( 0.0000,  0.0000,  0.0000)
   6 Au    -1.466154    4.335749   14.868125    ( 0.0000,  0.0000,  0.0000)
   7 Au    -1.496455    2.622605   17.361404    ( 0.0000,  0.0000,  0.0000)
   8 Au    -2.993782    5.185383    9.999999    ( 0.0000,  0.0000,  0.0000)
   9 Au    -1.496891    6.049613   12.444412    ( 0.0000,  0.0000,  0.0000)
  10 Au    -2.971336    6.910198   14.867031    ( 0.0000,  0.0000,  0.0000)
  11 Au    -2.966830    5.115459   17.326836    ( 0.0000,  0.0000,  0.0000)
  12 Au     2.993782    0.000000    9.999999    ( 0.0000,  0.0000,  0.0000)
  13 Au     4.490673    0.864230   12.444412    ( 0.0000,  0.0000,  0.0000)
  14 Au     2.979349    1.733454   14.905706    ( 0.0000,  0.0000,  0.0000)
  15 Au     3.032819   -0.006987   17.427545    ( 0.0000,  0.0000,  0.0000)
  16 Au     1.496891    2.592691    9.999999    ( 0.0000,  0.0000,  0.0000)
  17 Au     2.993782    3.456922   12.444412    ( 0.0000,  0.0000,  0.0000)
  18 Au     1.511874    4.357811   14.873709    ( 0.0000,  0.0000,  0.0000)
  19 Au     1.522078    2.863827   17.366206    ( 0.0000,  0.0000,  0.0000)
  20 Au    -0.000000    5.185383    9.999999    ( 0.0000,  0.0000,  0.0000)
  21 Au     1.496891    6.049613   12.444412    ( 0.0000,  0.0000,  0.0000)
  22 Au    -0.003445    6.956780   14.920100    ( 0.0000,  0.0000,  0.0000)
  23 Au    -0.000673    5.289183   17.373132    ( 0.0000,  0.0000,  0.0000)
  24 Au     5.987564    0.000000    9.999999    ( 0.0000,  0.0000,  0.0000)
  25 Au     7.484455    0.864230   12.444412    ( 0.0000,  0.0000,  0.0000)
  26 Au     5.995285    1.742234   14.882555    ( 0.0000,  0.0000,  0.0000)
  27 Au     6.004890    0.051500   17.395927    ( 0.0000,  0.0000,  0.0000)
  28 Au     4.490673    2.592691    9.999999    ( 0.0000,  0.0000,  0.0000)
  29 Au     5.987564    3.456922   12.444412    ( 0.0000,  0.0000,  0.0000)
  30 Au     4.481601    4.335523   14.881722    ( 0.0000,  0.0000,  0.0000)
  31 Au     4.508779    2.606404   17.372245    ( 0.0000,  0.0000,  0.0000)
  32 Au     2.993782    5.185383    9.999999    ( 0.0000,  0.0000,  0.0000)
  33 Au     4.490673    6.049613   12.444412    ( 0.0000,  0.0000,  0.0000)
  34 Au     3.045195    6.956498   14.921021    ( 0.0000,  0.0000,  0.0000)
  35 Au     3.052933    5.286372   17.374688    ( 0.0000,  0.0000,  0.0000)
  36 H      1.532062    0.173730   20.869832    ( 0.0000,  0.0000,  0.0000)
  37 O      1.528293   -0.388062   20.072914    ( 0.0000,  0.0000,  0.0000)
  38 C      1.504107    0.405411   18.969061    ( 0.0000,  0.0000,  0.0000)
  39 C      1.503687    1.862542   19.249142    ( 0.0000,  0.0000,  0.0000)
  40 O      1.482103    2.380994   20.338419    ( 0.0000,  0.0000,  0.0000)

Unit cell:
           periodic     x           y           z      points  spacing
  1. axis:    yes    8.981346    0.000000    0.000000    44     0.1768
  2. axis:    yes   -4.490673    7.778074    0.000000    44     0.1768
  3. axis:    no     0.000000    0.000000   27.333237   152     0.1798

  Lengths:   8.981346   8.981346  27.333237
  Angles:   90.000000  90.000000 120.000000

Effective grid spacing dv^(1/3) = 0.1865

     iter     time        total  log10-change:
                         energy  eigst   dens
iter:   1 05:40:03 -12102.071072  -4.13
iter:   2 05:40:37 -12102.071119  -5.05  -4.04c
iter:   3 05:41:11 -12102.071092c -5.70  -4.18c
iter:   4 05:41:45 -12102.071069c -5.93  -4.28c
iter:   5 05:42:19 -12102.071078c -6.26  -4.49c
iter:   6 05:42:53 -12102.071082c -6.72  -4.63c
iter:   7 05:43:27 -12102.071063c -6.92  -4.81c
iter:   8 05:44:01 -12102.071062c -7.47c -4.96c

Converged after 8 iterations.

Dipole moment: (-1.958779, -8.646745, 0.005261) |e|*Ang

Energy contributions relative to reference atoms: (reference = -18603687.210930)

Kinetic:       +720.586357
Potential:     -728.242945
External:        +0.000000
XC:            -12100.032683
Entropy (-ST):   -0.380680
Local:           +5.808548
--------------------------
Free energy:   -12102.261402
Extrapolated:  -12102.071062

Showing only first 2 kpts
 Kpt  Band  Eigenvalues  Occupancy
  0   206     -5.74206    1.96551
  0   207     -5.53485    1.75539
  0   208     -5.41280    1.35848
  0   209     -5.33469    0.98461

  1   206     -6.28223    1.99984
  1   207     -6.13258    1.99929
  1   208     -5.86201    1.98948
  1   209     -5.73264    1.96217


Fermi level: -5.33777

No gap

Forces in eV/Ang:
  0 Au    0.03569    0.02362   -0.15738
  1 Au    0.01435    0.03417    0.07604
  2 Au    0.00683   -0.00753    0.00999
  3 Au    0.01517    0.02328    0.00572
  4 Au    0.00888   -0.00522   -0.14020
  5 Au   -0.00954   -0.02304    0.02486
  6 Au    0.00577    0.00317    0.00725
  7 Au    0.00100    0.01324   -0.00111
  8 Au   -0.00665   -0.00420   -0.13824
  9 Au    0.04283    0.00976    0.03229
 10 Au    0.00011    0.01535    0.00466
 11 Au   -0.00661    0.00967    0.00463
 12 Au   -0.04155    0.02179   -0.11677
 13 Au    0.00296   -0.03012    0.12911
 14 Au   -0.00073    0.00196    0.01214
 15 Au   -0.00957    0.01765    0.02158
 16 Au   -0.00959   -0.04947   -0.10574
 17 Au    0.00847    0.00383    0.08107
 18 Au    0.00657   -0.00791    0.00543
 19 Au   -0.01794   -0.00857   -0.01062
 20 Au    0.02735    0.00472   -0.10315
 21 Au    0.03623    0.08633    0.17165
 22 Au    0.00319    0.01067   -0.00497
 23 Au   -0.01297   -0.00525   -0.00766
 24 Au    0.01307   -0.03139   -0.15684
 25 Au   -0.00982   -0.01386    0.16333
 26 Au    0.00346   -0.00064   -0.00145
 27 Au    0.00343    0.00627    0.00715
 28 Au    0.00557    0.00200   -0.08201
 29 Au    0.01586    0.01884    0.13001
 30 Au    0.01069   -0.00299    0.00398
 31 Au   -0.01134    0.00115   -0.00279
 32 Au   -0.01503    0.01807   -0.13476
 33 Au   -0.05090   -0.01745    0.10548
 34 Au    0.00894    0.00794   -0.01039
 35 Au    0.00821    0.01019   -0.00010
 36 H    -0.01368   -0.01705    0.02758
 37 O     0.01444    0.02838   -0.02035
 38 C    -0.02953    0.01859   -0.01139
 39 C     0.01983   -0.01027   -0.00071
 40 O    -0.01061   -0.01555    0.00374

BFGS:   26 05:44:19   -12102.071062        0.0378
Timing:                                      incl.     excl.
-------------------------------------------------------------------
Density initialized from wave functions:    27.492    27.491   0.2% |
 Symmetrize density:                         0.001     0.001   0.0% |
Forces:                                    468.971   468.971   3.1% ||
Hamiltonian:                               110.730     0.004   0.0% |
 Atomic:                                     4.639     0.021   0.0% |
  XC Correction:                             4.618     4.618   0.0% |
 Calculate atomic Hamiltonians:              1.365     1.365   0.0% |
 Communicate:                                0.266     0.266   0.0% |
 Hartree integrate/restrict:                 0.339     0.339   0.0% |
 Initialize Hamiltonian:                     0.001     0.001   0.0% |
 Poisson:                                    5.424     0.238   0.0% |
  Communicate from 1D:                       0.498     0.498   0.0% |
  Communicate from 2D:                       0.914     0.914   0.0% |
  Communicate to 1D:                         0.262     0.262   0.0% |
  Communicate to 2D:                         1.082     1.082   0.0% |
  FFT 1D:                                    1.274     1.274   0.0% |
  FFT 2D:                                    1.156     1.156   0.0% |
 XC 3D grid:                                98.507    25.332   0.2% |
  VdW-DF integral:                          73.175     4.200   0.0% |
   Convolution:                              6.821     6.821   0.0% |
   FFT:                                      4.472     4.472   0.0% |
   gather:                                  22.118    22.118   0.1% |
   hmm1:                                     1.439     1.439   0.0% |
   hmm2:                                     3.011     3.011   0.0% |
   iFFT:                                     4.140     4.140   0.0% |
   potential:                               22.656     0.486   0.0% |
    collect:                                 1.525     1.525   0.0% |
    p1:                                     14.101    14.101   0.1% |
    p2:                                      4.572     4.572   0.0% |
    sum:                                     1.971     1.971   0.0% |
   splines:                                  4.318     4.318   0.0% |
 vbar:                                       0.186     0.186   0.0% |
LCAO initialization:                        11.130     1.745   0.0% |
 LCAO eigensolver:                           2.470     0.003   0.0% |
  Calculate projections:                     0.000     0.000   0.0% |
  DenseAtomicCorrection:                     0.000     0.000   0.0% |
  Distribute overlap matrix:                 2.281     2.281   0.0% |
  Orbital Layouts:                           0.182     0.182   0.0% |
  Potential matrix:                          0.001     0.001   0.0% |
  Sum over cells:                            0.004     0.004   0.0% |
 LCAO to grid:                               6.126     6.126   0.0% |
 Set positions (LCAO WFS):                   0.788     0.648   0.0% |
  Basic WFS set positions:                   0.002     0.002   0.0% |
  Basis functions set positions:             0.000     0.000   0.0% |
  P tci:                                     0.000     0.000   0.0% |
  ST tci:                                    0.091     0.091   0.0% |
  mktci:                                     0.046     0.046   0.0% |
Redistribute:                                0.016     0.016   0.0% |
SCF-cycle:                               13625.433   135.722   0.9% |
 Davidson:                               11876.711  4121.528  27.4% |----------|
  Apply hamiltonian:                       289.792   289.792   1.9% ||
  Subspace diag:                          1083.241     0.055   0.0% |
   calc_h_matrix:                          571.067   280.276   1.9% ||
    Apply hamiltonian:                     290.790   290.790   1.9% ||
   diagonalize:                             22.378    22.378   0.1% |
   rotate_psi:                             489.741   489.741   3.3% ||
  calc. matrices:                         5350.947  1875.115  12.5% |----|
   Apply hamiltonian:                     3475.832  3475.832  23.1% |--------|
  diagonalize:                              92.537    92.537   0.6% |
  rotate_psi:                              938.666   938.666   6.3% |--|
 Density:                                   26.014     0.009   0.0% |
  Atomic density matrices:                   1.991     1.991   0.0% |
  Mix:                                       7.412     7.412   0.0% |
  Multipole moments:                         0.162     0.162   0.0% |
  Pseudo density:                           16.439    16.424   0.1% |
   Symmetrize density:                       0.015     0.015   0.0% |
 Hamiltonian:                             1464.358     0.047   0.0% |
  Atomic:                                   63.997     0.282   0.0% |
   XC Correction:                           63.715    63.715   0.4% |
  Calculate atomic Hamiltonians:            17.659    17.659   0.1% |
  Communicate:                               3.822     3.822   0.0% |
  Hartree integrate/restrict:                4.757     4.757   0.0% |
  Poisson:                                  75.012     3.175   0.0% |
   Communicate from 1D:                      6.882     6.882   0.0% |
   Communicate from 2D:                     12.760    12.760   0.1% |
   Communicate to 1D:                        3.548     3.548   0.0% |
   Communicate to 2D:                       15.044    15.044   0.1% |
   FFT 1D:                                  17.621    17.621   0.1% |
   FFT 2D:                                  15.981    15.981   0.1% |
  XC 3D grid:                             1298.267   346.927   2.3% ||
   VdW-DF integral:                        951.340    57.656   0.4% |
    Convolution:                            94.247    94.247   0.6% |
    FFT:                                    61.643    61.643   0.4% |
    gather:                                309.022   309.022   2.1% ||
    hmm1:                                   19.440    19.440   0.1% |
    hmm2:                                   40.641    40.641   0.3% |
    iFFT:                                   57.445    57.445   0.4% |
    potential:                             311.245     6.877   0.0% |
     collect:                               20.810    20.810   0.1% |
     p1:                                   186.801   186.801   1.2% |
     p2:                                    63.737    63.737   0.4% |
     sum:                                   33.020    33.020   0.2% |
    splines:                                 0.003     0.003   0.0% |
  vbar:                                      0.797     0.797   0.0% |
 Orthonormalize:                           122.627     0.005   0.0% |
  calc_s_matrix:                             8.319     8.319   0.1% |
  inverse-cholesky:                         97.606    97.606   0.7% |
  projections:                               0.001     0.001   0.0% |
  rotate_psi_s:                             16.695    16.695   0.1% |
Set symmetry:                                0.001     0.001   0.0% |
Other:                                     770.966   770.966   5.1% |-|
-------------------------------------------------------------------
Total:                                             15014.739 100.0%

Memory usage: 1.71 GiB
Date: Fri Sep 29 05:44:19 2023
