
  ___ ___ ___ _ _ _  
 |   |   |_  | | | | 
 | | | | | . | | | | 
 |__ |  _|___|_____|  22.8.0
 |___|_|             

User:   s204775@a050.nifl.fysik.dtu.dk
Date:   Fri Sep 29 01:34:09 2023
Arch:   x86_64
Pid:    160699
CWD:    /home/cat/s204775/projects/Bachelor_project/OCCOH_missing_features
Python: 3.10.4
gpaw:   /home/modules/software/GPAW/22.8.0-intel-2022a/lib/python3.10/site-packages/gpaw
_gpaw:  /home/modules/software/GPAW/22.8.0-intel-2022a/lib/python3.10/site-packages/
        _gpaw.cpython-310-x86_64-linux-gnu.so
ase:    /home/modules/software/ASE/3.22.1-intel-2022a/lib/python3.10/site-packages/ase (version 3.22.1)
numpy:  /home/modules/software/SciPy-bundle/2022.05-intel-2022a/lib/python3.10/site-packages/numpy (version 1.22.3)
scipy:  /home/modules/software/SciPy-bundle/2022.05-intel-2022a/lib/python3.10/site-packages/scipy (version 1.8.1)
libxc:  5.2.3
units:  Angstrom and eV
cores: 40
OpenMP: False
OMP_NUM_THREADS: 1

Input parameters:
  basis: dzp
  h: 0.18
  kpts: {size: (4, 4, 1)}
  xc: BEEF-vdW

System changes: positions, numbers, cell, pbc, initial_charges, initial_magmoms 

Initialize ...

species:
  Cd:
    name: Cadmium
    id: b24f2afa1c5614a277213cf5a4209897
    Z: 48.0
    valence: 12
    core: 36
    charge: 0.0
    file: /home/modules/software/GPAW-setups/0.9.20000/Cd.PBE.gz
    compensation charges: {type: gauss,
                           rc: 0.38,
                           lmax: 2}
    cutoffs: {filter: 2.12,
              core: 2.62}
    valence states:
      #              energy  rcut
      - 5s(2.00)    -5.655   1.191
      - 5p(0.00)    -1.186   1.228
      - 4d(10.00)   -11.739   1.164
      -  s          21.556   1.191
      -  p          26.026   1.228
      -  d          15.473   1.164
  
    # LCAO basis set for Cd:
    #   Name: dzp
    #   File: /home/modules/software/GPAW-setups/0.9.20000/Cd.dzp.basis.gz
    #   Number of radial functions: 7
    #   Number of spherical harmonics: 21
    #     l=0, rc=8.5781 Bohr: 5s-sz confined orbital
    #     l=1, rc=12.6406 Bohr: 5p-sz confined orbital
    #     l=2, rc=4.9062 Bohr: 4d-sz confined orbital
    #     l=0, rc=5.0625 Bohr: 5s-dz split-valence wave
    #     l=1, rc=7.7188 Bohr: 5p-dz split-valence wave
    #     l=2, rc=2.9844 Bohr: 4d-dz split-valence wave
    #     l=1, rc=8.5781 Bohr: p-type Gaussian polarization
    #   Number of RI-basis functions 0

  H:
    name: Hydrogen
    id: d65de229564ff8ea4db303e23b6d1ecf
    Z: 1.0
    valence: 1
    core: 0
    charge: 0.0
    file: /home/modules/software/GPAW-setups/0.9.20000/H.PBE.gz
    compensation charges: {type: gauss,
                           rc: 0.15,
                           lmax: 2}
    cutoffs: {filter: 0.85,
              core: 0.53}
    valence states:
      #              energy  rcut
      - 1s(1.00)    -6.494   0.476
      -  s          20.717   0.476
      -  p           0.000   0.476
  
    # LCAO basis set for H:
    #   Name: dzp
    #   File: /home/modules/software/GPAW-setups/0.9.20000/H.dzp.basis.gz
    #   Number of radial functions: 3
    #   Number of spherical harmonics: 5
    #     l=0, rc=6.4219 Bohr: 1s-sz confined orbital
    #     l=0, rc=3.6094 Bohr: 1s-dz split-valence wave
    #     l=1, rc=6.4219 Bohr: p-type Gaussian polarization
    #   Number of RI-basis functions 0

  O:
    name: Oxygen
    id: 32ecd46bf208036f09c70b0ec9a88b78
    Z: 8.0
    valence: 6
    core: 2
    charge: 0.0
    file: /home/modules/software/GPAW-setups/0.9.20000/O.PBE.gz
    compensation charges: {type: gauss,
                           rc: 0.21,
                           lmax: 2}
    cutoffs: {filter: 1.17,
              core: 0.83}
    valence states:
      #              energy  rcut
      - 2s(2.00)   -23.961   0.688
      - 2p(4.00)    -9.029   0.598
      -  s           3.251   0.688
      -  p          18.182   0.598
      -  d           0.000   0.619
  
    # LCAO basis set for O:
    #   Name: dzp
    #   File: /home/modules/software/GPAW-setups/0.9.20000/O.dzp.basis.gz
    #   Number of radial functions: 5
    #   Number of spherical harmonics: 13
    #     l=0, rc=4.3438 Bohr: 2s-sz confined orbital
    #     l=1, rc=5.3906 Bohr: 2p-sz confined orbital
    #     l=0, rc=2.2969 Bohr: 2s-dz split-valence wave
    #     l=1, rc=2.8906 Bohr: 2p-dz split-valence wave
    #     l=2, rc=5.3906 Bohr: d-type Gaussian polarization
    #   Number of RI-basis functions 0

  C:
    name: Carbon
    id: 4aa54d4b901d75f77cc0ea3eec22967b
    Z: 6.0
    valence: 4
    core: 2
    charge: 0.0
    file: /home/modules/software/GPAW-setups/0.9.20000/C.PBE.gz
    compensation charges: {type: gauss,
                           rc: 0.20,
                           lmax: 2}
    cutoffs: {filter: 1.14,
              core: 1.14}
    valence states:
      #              energy  rcut
      - 2s(2.00)   -13.751   0.635
      - 2p(2.00)    -5.284   0.635
      -  s          13.461   0.635
      -  p          21.927   0.635
      -  d           0.000   0.635
  
    # LCAO basis set for C:
    #   Name: dzp
    #   File: /home/modules/software/GPAW-setups/0.9.20000/C.dzp.basis.gz
    #   Number of radial functions: 5
    #   Number of spherical harmonics: 13
    #     l=0, rc=5.5469 Bohr: 2s-sz confined orbital
    #     l=1, rc=6.6719 Bohr: 2p-sz confined orbital
    #     l=0, rc=3.0312 Bohr: 2s-dz split-valence wave
    #     l=1, rc=3.7500 Bohr: 2p-dz split-valence wave
    #     l=2, rc=6.6719 Bohr: d-type Gaussian polarization
    #   Number of RI-basis functions 0

Reference energy: -5484381.711107  # eV

Spin-paired calculation

Convergence criteria:
 Maximum [total energy] change in last 3 cyles: 0.0005 eV / electron
 Maximum integral of absolute [dens]ity change: 0.0001 electrons / valence electron
 Maximum integral of absolute [eigenst]ate change: 4e-08 eV^2 / valence electron
 Maximum number of scf [iter]ations: 333
 (Square brackets indicate name in SCF output, whereas a 'c' in
 the SCF output indicates the quantity has converged.)

Symmetries present (total): 1

  ( 1  0  0)
  ( 0  1  0)
  ( 0  0  1)

16 k-points: 4 x 4 x 1 Monkhorst-Pack grid
8 k-points in the irreducible part of the Brillouin zone
       k-points in crystal coordinates                weights
   0:     0.12500000   -0.37500000    0.00000000          2/16
   1:     0.12500000   -0.12500000    0.00000000          2/16
   2:     0.12500000    0.12500000    0.00000000          2/16
   3:     0.12500000    0.37500000    0.00000000          2/16
   4:     0.37500000   -0.37500000    0.00000000          2/16
   5:     0.37500000   -0.12500000    0.00000000          2/16
   6:     0.37500000    0.12500000    0.00000000          2/16
   7:     0.37500000    0.37500000    0.00000000          2/16

Wave functions: Uniform real-space grid
  Kinetic energy operator: 8*3+1=25 point O(h^6) finite-difference Laplacian
  ScaLapack parameters: grid=1x1, blocksize=None
  Wavefunction extrapolation:
    Improved wavefunction reuse through dual PAW basis 

Occupation numbers: Fermi-Dirac:
  width: 0.1000  # eV
 

Eigensolver
   Davidson(niter=2) 

Densities:
  Coarse grid: 48*48*156 grid
  Fine grid: 96*96*312 grid
  Total Charge: 0.000000 

Density mixing:
  Method: separate
  Backend: pulay
  Linear mixing parameter: 0.05
  old densities: 5
  Damping of long wavelength oscillations: 50 

Hamiltonian:
  XC and Coulomb potentials evaluated on a 96*96*312 grid
  Using the BEEF-vdW Exchange-Correlation functional
  Interpolation: tri-quintic (5. degree polynomial)
  Poisson solver: FastPoissonSolver using
    Stencil: 8*3+1=25 point O(h^6) finite-difference Laplacian
    FFT axes: [0, 1]
    FST axes: [2]
 

XC parameters: BEEF-vdW with 2 nearest neighbor stencil

Memory estimate:
  Process memory now: 220.95 MiB
  Calculator: 698.59 MiB
    Density: 60.67 MiB
      Arrays: 14.17 MiB
      Localized functions: 41.05 MiB
      Mixer: 5.45 MiB
    Hamiltonian: 12.17 MiB
      Arrays: 9.26 MiB
      XC: 0.00 MiB
      Poisson: 0.00 MiB
      vbar: 2.90 MiB
    Wavefunctions: 625.76 MiB
      Arrays psit_nG: 300.80 MiB
      Eigensolver: 317.88 MiB
      Projections: 0.59 MiB
      Projectors: 6.49 MiB

Total number of cores used: 40
Parallelization over k-points: 8
Domain decomposition: 1 x 1 x 5

Number of atoms: 41
Number of atomic orbitals: 813
Number of bands in calculation: 276
Number of valence electrons: 453
Bands to converge: occupied

... initialized

Initializing position-dependent things.

Density initialized from atomic densities
Creating initial wave functions:
  276 bands from LCAO basis set

                                                 
                                                 
                                                 
                                                 
                                                 
                                                 
                          O                      
                         H                       
                Cd      COC     Cd               
                         C                       
                   Cd     Cd      Cd             
                     Cd     Cd      Cd           
            Cd      Cd      Cd                   
                                                 
              Cd      Cd      Cd                 
                Cd      Cd      Cd               
               Cd      Cd      Cd                
                                                 
                 Cd      Cd      Cd              
                   Cd      Cd      Cd            
           Cd      Cd     Cd                     
             Cd      Cd     Cd                   
                                                 
               Cd      Cd      Cd                
                                                 
                                                 
                                                 
                                                 

Positions:
   0 Cd     0.000000    0.000000   10.000000    ( 0.0000,  0.0000,  0.0000)
   1 Cd     1.600874    0.924265   12.614217    ( 0.0000,  0.0000,  0.0000)
   2 Cd    -0.000000    1.848530   15.313009    ( 0.0000,  0.0000,  0.0000)
   3 Cd     1.600875    2.772795   18.060029    ( 0.0000,  0.0000,  0.0000)
   4 Cd    -1.600874    2.772795   10.000000    ( 0.0000,  0.0000,  0.0000)
   5 Cd    -0.000000    3.697060   12.614217    ( 0.0000,  0.0000,  0.0000)
   6 Cd    -1.600874    4.621326   15.313008    ( 0.0000,  0.0000,  0.0000)
   7 Cd    -0.000000    5.545591   18.060030    ( 0.0000,  0.0000,  0.0000)
   8 Cd    -3.201748    5.545591   10.000000    ( 0.0000,  0.0000,  0.0000)
   9 Cd    -1.600874    6.469856   12.614217    ( 0.0000,  0.0000,  0.0000)
  10 Cd    -3.201749    7.394121   15.313009    ( 0.0000,  0.0000,  0.0000)
  11 Cd    -1.600874    8.318387   18.060029    ( 0.0000,  0.0000,  0.0000)
  12 Cd     3.201748    0.000000   10.000000    ( 0.0000,  0.0000,  0.0000)
  13 Cd     4.802622    0.924265   12.614217    ( 0.0000,  0.0000,  0.0000)
  14 Cd     3.201748    1.848530   15.313009    ( 0.0000,  0.0000,  0.0000)
  15 Cd     4.802622    2.772795   18.060029    ( 0.0000,  0.0000,  0.0000)
  16 Cd     1.600874    2.772795   10.000000    ( 0.0000,  0.0000,  0.0000)
  17 Cd     3.201748    3.697060   12.614217    ( 0.0000,  0.0000,  0.0000)
  18 Cd     1.600874    4.621326   15.313008    ( 0.0000,  0.0000,  0.0000)
  19 Cd     3.201749    5.545591   18.060029    ( 0.0000,  0.0000,  0.0000)
  20 Cd     0.000000    5.545591   10.000000    ( 0.0000,  0.0000,  0.0000)
  21 Cd     1.600874    6.469856   12.614217    ( 0.0000,  0.0000,  0.0000)
  22 Cd    -0.000000    7.394121   15.313008    ( 0.0000,  0.0000,  0.0000)
  23 Cd     1.600874    8.318387   18.060029    ( 0.0000,  0.0000,  0.0000)
  24 Cd     6.403497    0.000000   10.000000    ( 0.0000,  0.0000,  0.0000)
  25 Cd     8.004371    0.924265   12.614217    ( 0.0000,  0.0000,  0.0000)
  26 Cd     6.403497    1.848530   15.313009    ( 0.0000,  0.0000,  0.0000)
  27 Cd     8.004370    2.772795   18.060029    ( 0.0000,  0.0000,  0.0000)
  28 Cd     4.802622    2.772795   10.000000    ( 0.0000,  0.0000,  0.0000)
  29 Cd     6.403497    3.697060   12.614217    ( 0.0000,  0.0000,  0.0000)
  30 Cd     4.802622    4.621326   15.313009    ( 0.0000,  0.0000,  0.0000)
  31 Cd     6.403496    5.545591   18.060029    ( 0.0000,  0.0000,  0.0000)
  32 Cd     3.201748    5.545591   10.000000    ( 0.0000,  0.0000,  0.0000)
  33 Cd     4.802622    6.469856   12.614217    ( 0.0000,  0.0000,  0.0000)
  34 Cd     3.201749    7.394121   15.313009    ( 0.0000,  0.0000,  0.0000)
  35 Cd     4.802622    8.318386   18.060030    ( 0.0000,  0.0000,  0.0000)
  36 H      3.266416    2.983010   21.397274    ( 0.0000,  0.0000,  0.0000)
  37 O      3.243899    2.617374   20.605201    ( 0.0000,  0.0000,  0.0000)
  38 C      3.247652    3.483829   19.606108    ( 0.0000,  0.0000,  0.0000)
  39 C      3.174338    4.979797   19.848215    ( 0.0000,  0.0000,  0.0000)
  40 O      3.226891    5.608345   21.131595    ( 0.0000,  0.0000,  0.0000)

Unit cell:
           periodic     x           y           z      points  spacing
  1. axis:    yes    9.605245    0.000000    0.000000    48     0.1733
  2. axis:    yes   -4.802622    8.318386    0.000000    48     0.1733
  3. axis:    no     0.000000    0.000000   27.842650   156     0.1785

  Lengths:   9.605245   9.605245  27.842650
  Angles:   90.000000  90.000000 120.000000

Effective grid spacing dv^(1/3) = 0.1836

     iter     time        total  log10-change:
                         energy  eigst   dens
iter:   1 01:35:12 -5512.614979
iter:   2 01:35:40 -5510.906119  -0.81  -1.31
iter:   3 01:36:08 -5510.326374  -1.49  -1.35
iter:   4 01:36:37 -5510.001968  -1.32  -1.36
iter:   5 01:37:05 -5509.630469  -2.02  -1.50
iter:   6 01:37:33 -5510.506739  -1.43  -1.48
iter:   7 01:38:02 -5510.564559  -1.69  -1.77
iter:   8 01:38:30 -5510.082937  -2.14  -2.04
iter:   9 01:38:58 -5510.145074  -2.13  -2.18
iter:  10 01:39:27 -5509.940757c -2.10  -2.33
iter:  11 01:39:55 -5509.938161c -2.64  -2.51
iter:  12 01:40:23 -5509.895727c -3.20  -2.56
iter:  13 01:40:52 -5509.876745c -3.10  -2.64
iter:  14 01:41:20 -5509.876349c -3.62  -2.74
iter:  15 01:41:48 -5509.877194c -4.06  -2.76
iter:  16 01:42:16 -5509.880345c -3.73  -2.80
iter:  17 01:42:45 -5509.878011c -3.98  -2.99
iter:  18 01:43:13 -5509.877469c -4.47  -3.23
iter:  19 01:43:41 -5509.876853c -4.61  -3.34
iter:  20 01:44:10 -5509.876867c -4.94  -3.51
iter:  21 01:44:38 -5509.876973c -5.22  -3.70
iter:  22 01:45:06 -5509.876949c -5.85  -3.84
iter:  23 01:45:34 -5509.876946c -6.04  -3.91
iter:  24 01:46:03 -5509.876971c -6.25  -4.07c
iter:  25 01:46:31 -5509.876978c -6.41  -4.14c
iter:  26 01:46:59 -5509.876978c -6.25  -4.30c
iter:  27 01:47:28 -5509.876983c -7.15  -4.55c
iter:  28 01:47:56 -5509.876980c -7.14  -4.63c
iter:  29 01:48:24 -5509.876978c -7.43c -4.77c

Converged after 29 iterations.

Dipole moment: (-5.978158, -10.273550, -0.668597) |e|*Ang

Energy contributions relative to reference atoms: (reference = -5484381.711107)

Kinetic:       +1084.292010
Potential:     -980.358357
External:        +0.000000
XC:            -5617.973603
Entropy (-ST):   -0.507656
Local:           +4.416800
--------------------------
Free energy:   -5510.130806
Extrapolated:  -5509.876978

Showing only first 2 kpts
 Kpt  Band  Eigenvalues  Occupancy
  0   224     -4.95435    1.87615
  0   225     -4.74239    1.29052
  0   226     -4.56211    0.46136
  0   227     -4.47822    0.22944

  1   224     -4.69860    1.08003
  1   225     -4.61695    0.68323
  1   226     -4.22318    0.02003
  1   227     -4.13317    0.00819


Fermi level: -4.68256

No gap

Forces in eV/Ang:
  0 Cd   -0.00385   -0.00945   -0.22838
  1 Cd    0.02747    0.02083    0.24142
  2 Cd    0.01435    0.04875    0.00585
  3 Cd   -0.44885   -0.15739   -0.23065
  4 Cd   -0.02517    0.02301   -0.25751
  5 Cd    0.01563    0.00987    0.25075
  6 Cd   -0.00058   -0.01913   -0.08702
  7 Cd   -0.12736    0.02672   -0.02326
  8 Cd   -0.01076   -0.04753   -0.23426
  9 Cd    0.00049   -0.01773    0.19490
 10 Cd    0.00967   -0.01848   -0.08684
 11 Cd    0.01301   -0.08291   -0.04022
 12 Cd    0.02265    0.02586   -0.22939
 13 Cd   -0.02003    0.01194    0.23878
 14 Cd    0.01334    0.01367    0.05429
 15 Cd    0.57719   -0.20343   -0.37244
 16 Cd    0.01946    0.01675   -0.21752
 17 Cd    0.00098   -0.00601    0.23901
 18 Cd    0.02615   -0.00201    0.06340
 19 Cd    0.05409    2.94228   -5.91075
 20 Cd    0.01661   -0.01682   -0.24622
 21 Cd    0.00347   -0.02246    0.25068
 22 Cd    0.00639   -0.00810   -0.08354
 23 Cd   -0.05162    0.12273    0.00598
 24 Cd   -0.02110    0.00246   -0.24748
 25 Cd   -0.01425   -0.01105    0.21901
 26 Cd   -0.02868    0.04087    0.01767
 27 Cd   -0.00252    0.02915    0.03620
 28 Cd    0.00823    0.00333   -0.23292
 29 Cd   -0.01730    0.00535    0.25229
 30 Cd   -0.02031   -0.01309    0.06578
 31 Cd    0.11971    0.01457   -0.04618
 32 Cd   -0.00211   -0.00749   -0.21652
 33 Cd   -0.01191   -0.03513    0.25978
 34 Cd   -0.01138   -0.05207    0.09493
 35 Cd    0.03282    0.12225   -0.01127
 36 H     0.12674    3.09536    6.12828
 37 O    -0.07966   -4.17099   -4.23320
 38 C    -0.44893    2.59629   -0.11226
 39 C     0.55760   -1.15787   10.29835
 40 O    -0.32606   -3.15064   -5.77748

      Step     Time          Energy         fmax
BFGS:    0 01:48:36    -5509.876978       10.3782
System changes: positions 

Initializing position-dependent things.

Density initialized from wave functions
                                                 
                                                 
                                                 
                                                 
                                                 
                                                 
                          O                      
                         H                       
                Cd      CdC     Cd               
                         O                       
                   Cd     Cd      Cd             
                                                 
            Cd      CCd     Cd      Cd           
                                                 
              Cd      Cd      Cd                 
                                                 
               CCd     CCd     CCd               
                                                 
                 Cd      Cd      Cd              
                   Cd      Cd      Cd            
           Cd      Cd     Cd                     
             Cd      Cd     Cd                   
                                                 
               Cd      Cd      Cd                
                                                 
                                                 
                                                 
                                                 

Positions:
   0 Cd     0.000000    0.000000   10.000000    ( 0.0000,  0.0000,  0.0000)
   1 Cd     1.600874    0.924265   12.614217    ( 0.0000,  0.0000,  0.0000)
   2 Cd     0.000205    1.849226   15.313092    ( 0.0000,  0.0000,  0.0000)
   3 Cd     1.594462    2.770547   18.056734    ( 0.0000,  0.0000,  0.0000)
   4 Cd    -1.600874    2.772795   10.000000    ( 0.0000,  0.0000,  0.0000)
   5 Cd    -0.000000    3.697060   12.614217    ( 0.0000,  0.0000,  0.0000)
   6 Cd    -1.600882    4.621052   15.311765    ( 0.0000,  0.0000,  0.0000)
   7 Cd    -0.001819    5.545972   18.059698    ( 0.0000,  0.0000,  0.0000)
   8 Cd    -3.201748    5.545591   10.000000    ( 0.0000,  0.0000,  0.0000)
   9 Cd    -1.600874    6.469856   12.614217    ( 0.0000,  0.0000,  0.0000)
  10 Cd    -3.201610    7.393857   15.311768    ( 0.0000,  0.0000,  0.0000)
  11 Cd    -1.600688    8.317202   18.059454    ( 0.0000,  0.0000,  0.0000)
  12 Cd     3.201748    0.000000   10.000000    ( 0.0000,  0.0000,  0.0000)
  13 Cd     4.802622    0.924265   12.614217    ( 0.0000,  0.0000,  0.0000)
  14 Cd     3.201939    1.848726   15.313785    ( 0.0000,  0.0000,  0.0000)
  15 Cd     4.810868    2.769889   18.054708    ( 0.0000,  0.0000,  0.0000)
  16 Cd     1.600874    2.772795   10.000000    ( 0.0000,  0.0000,  0.0000)
  17 Cd     3.201748    3.697060   12.614217    ( 0.0000,  0.0000,  0.0000)
  18 Cd     1.601248    4.621297   15.313914    ( 0.0000,  0.0000,  0.0000)
  19 Cd     3.202521    5.587623   17.975590    ( 0.0000,  0.0000,  0.0000)
  20 Cd     0.000000    5.545591   10.000000    ( 0.0000,  0.0000,  0.0000)
  21 Cd     1.600874    6.469856   12.614217    ( 0.0000,  0.0000,  0.0000)
  22 Cd     0.000091    7.394005   15.311815    ( 0.0000,  0.0000,  0.0000)
  23 Cd     1.600137    8.320140   18.060114    ( 0.0000,  0.0000,  0.0000)
  24 Cd     6.403497    0.000000   10.000000    ( 0.0000,  0.0000,  0.0000)
  25 Cd     8.004371    0.924265   12.614217    ( 0.0000,  0.0000,  0.0000)
  26 Cd     6.403087    1.849114   15.313262    ( 0.0000,  0.0000,  0.0000)
  27 Cd     8.004334    2.773212   18.060546    ( 0.0000,  0.0000,  0.0000)
  28 Cd     4.802622    2.772795   10.000000    ( 0.0000,  0.0000,  0.0000)
  29 Cd     6.403497    3.697060   12.614217    ( 0.0000,  0.0000,  0.0000)
  30 Cd     4.802332    4.621139   15.313949    ( 0.0000,  0.0000,  0.0000)
  31 Cd     6.405206    5.545799   18.059369    ( 0.0000,  0.0000,  0.0000)
  32 Cd     3.201748    5.545591   10.000000    ( 0.0000,  0.0000,  0.0000)
  33 Cd     4.802622    6.469856   12.614217    ( 0.0000,  0.0000,  0.0000)
  34 Cd     3.201586    7.393377   15.314365    ( 0.0000,  0.0000,  0.0000)
  35 Cd     4.803091    8.320133   18.059869    ( 0.0000,  0.0000,  0.0000)
  36 H      3.268227    3.027230   21.484821    ( 0.0000,  0.0000,  0.0000)
  37 O      3.242761    2.557789   20.544727    ( 0.0000,  0.0000,  0.0000)
  38 C      3.241239    3.520919   19.604505    ( 0.0000,  0.0000,  0.0000)
  39 C      3.182304    4.963256   19.995335    ( 0.0000,  0.0000,  0.0000)
  40 O      3.222233    5.563336   21.049060    ( 0.0000,  0.0000,  0.0000)

Unit cell:
           periodic     x           y           z      points  spacing
  1. axis:    yes    9.605245    0.000000    0.000000    48     0.1733
  2. axis:    yes   -4.802622    8.318386    0.000000    48     0.1733
  3. axis:    no     0.000000    0.000000   27.842650   156     0.1785

  Lengths:   9.605245   9.605245  27.842650
  Angles:   90.000000  90.000000 120.000000

Effective grid spacing dv^(1/3) = 0.1836

     iter     time        total  log10-change:
                         energy  eigst   dens
iter:   1 01:49:34 -5514.946968  -0.68
iter:   2 01:50:03 -5513.455618  -1.50  -2.06
iter:   3 01:50:31 -5512.236631  -1.59  -2.17
iter:   4 01:51:00 -5511.937598  -1.66  -2.37
iter:   5 01:51:29 -5511.801872  -1.99  -2.47
iter:   6 01:51:57 -5511.740624c -2.36  -2.55
iter:   7 01:52:26 -5511.714125c -2.53  -2.68
iter:   8 01:52:54 -5511.696217c -2.79  -2.72
iter:   9 01:53:23 -5511.693200c -3.41  -3.02
iter:  10 01:53:51 -5511.688320c -3.75  -3.04
iter:  11 01:54:20 -5511.688644c -3.90  -3.20
iter:  12 01:54:49 -5511.687987c -4.35  -3.46
iter:  13 01:55:17 -5511.687803c -4.92  -3.51
iter:  14 01:55:46 -5511.688215c -4.66  -3.57
iter:  15 01:56:14 -5511.688203c -5.30  -3.78
iter:  16 01:56:43 -5511.688194c -5.39  -3.88
iter:  17 01:57:12 -5511.688193c -5.67  -3.96
iter:  18 01:57:40 -5511.688163c -5.98  -4.06c
iter:  19 01:58:09 -5511.688149c -6.23  -4.24c
iter:  20 01:58:37 -5511.688140c -6.50  -4.35c
iter:  21 01:59:06 -5511.688134c -6.74  -4.44c
iter:  22 01:59:34 -5511.688137c -6.67  -4.52c
iter:  23 02:00:03 -5511.688134c -7.01  -4.59c
iter:  24 02:00:32 -5511.688123c -6.76  -4.70c
iter:  25 02:01:00 -5511.688123c -7.35  -4.96c
iter:  26 02:01:29 -5511.688122c -7.64c -5.13c

Converged after 26 iterations.

Dipole moment: (-5.997675, -10.215210, -0.287057) |e|*Ang

Energy contributions relative to reference atoms: (reference = -5484381.711107)

Kinetic:       +1078.654268
Potential:     -976.867437
External:        +0.000000
XC:            -5617.653294
Entropy (-ST):   -0.510670
Local:           +4.433676
--------------------------
Free energy:   -5511.943457
Extrapolated:  -5511.688122

Showing only first 2 kpts
 Kpt  Band  Eigenvalues  Occupancy
  0   224     -4.69348    1.86964
  0   225     -4.46355    1.17997
  0   226     -4.30871    0.46848
  0   227     -4.23378    0.25267

  1   224     -4.43792    1.05377
  1   225     -4.36429    0.69561
  1   226     -3.95904    0.01837
  1   227     -3.87671    0.00810


Fermi level: -4.42716

No gap

Forces in eV/Ang:
  0 Cd   -0.00607   -0.00602   -0.22698
  1 Cd    0.02218    0.02031    0.23881
  2 Cd    0.00703    0.04711    0.00307
  3 Cd   -0.34548   -0.01436   -0.16675
  4 Cd   -0.02380    0.01789   -0.25655
  5 Cd    0.01418    0.01071    0.24857
  6 Cd   -0.00039   -0.02085   -0.07681
  7 Cd   -0.09096    0.02649   -0.02230
  8 Cd   -0.00720   -0.04609   -0.23193
  9 Cd    0.00067   -0.01970    0.19553
 10 Cd    0.00613   -0.01970   -0.07456
 11 Cd    0.01196   -0.06468   -0.04948
 12 Cd    0.02291    0.02330   -0.22924
 13 Cd   -0.01529    0.00787    0.23677
 14 Cd    0.01249    0.01701    0.06606
 15 Cd    0.44699   -0.04126   -0.27886
 16 Cd    0.01862    0.01704   -0.21743
 17 Cd    0.00005   -0.00322    0.23931
 18 Cd   -0.00050   -0.01275    0.02192
 19 Cd   -0.01605    1.33079   -1.77853
 20 Cd    0.01407   -0.01647   -0.24386
 21 Cd    0.00313   -0.01894    0.24978
 22 Cd    0.01136   -0.00887   -0.07039
 23 Cd   -0.06645    0.12399    0.00221
 24 Cd   -0.01922    0.00551   -0.24707
 25 Cd   -0.01330   -0.01534    0.22363
 26 Cd   -0.01930    0.03841    0.01051
 27 Cd   -0.00031    0.03091    0.03383
 28 Cd    0.00793    0.00270   -0.23374
 29 Cd   -0.01525    0.00799    0.25170
 30 Cd    0.00743   -0.02490    0.02033
 31 Cd    0.08846    0.01392   -0.04489
 32 Cd   -0.00308   -0.01039   -0.21841
 33 Cd   -0.01158   -0.03183    0.25509
 34 Cd   -0.01291    0.00092    0.01374
 35 Cd    0.05018    0.12766   -0.01603
 36 H    -0.08167   -1.37836   -2.21248
 37 O     0.15740    0.45626    4.25724
 38 C    -0.33231    1.28231   -0.28143
 39 C     0.29868   -1.53923   -0.17961
 40 O    -0.13079   -0.34004    0.58588

BFGS:    1 02:01:40    -5511.688122        4.2845
System changes: positions 

Initializing position-dependent things.

Density initialized from wave functions
                                                 
                                                 
                                                 
                                                 
                                                 
                                                 
                          O                      
                         H                       
                Cd      CdC     Cd               
                         O                       
                   Cd     Cd      Cd             
                                                 
            Cd      CCd     Cd      Cd           
                                                 
              Cd      Cd      Cd                 
                                                 
               CCd     CCd     CCd               
                                                 
                 Cd      Cd      Cd              
                   Cd      Cd      Cd            
           Cd      Cd     Cd                     
             Cd      Cd     Cd                   
                                                 
               Cd      Cd      Cd                
                                                 
                                                 
                                                 
                                                 

Positions:
   0 Cd     0.000000    0.000000   10.000000    ( 0.0000,  0.0000,  0.0000)
   1 Cd     1.600874    0.924265   12.614217    ( 0.0000,  0.0000,  0.0000)
   2 Cd     0.000320    1.849924   15.313142    ( 0.0000,  0.0000,  0.0000)
   3 Cd     1.589212    2.770125   18.054179    ( 0.0000,  0.0000,  0.0000)
   4 Cd    -1.600874    2.772795   10.000000    ( 0.0000,  0.0000,  0.0000)
   5 Cd    -0.000000    3.697060   12.614217    ( 0.0000,  0.0000,  0.0000)
   6 Cd    -1.600888    4.620747   15.310617    ( 0.0000,  0.0000,  0.0000)
   7 Cd    -0.003215    5.546364   18.059367    ( 0.0000,  0.0000,  0.0000)
   8 Cd    -3.201748    5.545591   10.000000    ( 0.0000,  0.0000,  0.0000)
   9 Cd    -1.600874    6.469856   12.614217    ( 0.0000,  0.0000,  0.0000)
  10 Cd    -3.201515    7.393568   15.310650    ( 0.0000,  0.0000,  0.0000)
  11 Cd    -1.600510    8.316221   18.058738    ( 0.0000,  0.0000,  0.0000)
  12 Cd     3.201748    0.000000   10.000000    ( 0.0000,  0.0000,  0.0000)
  13 Cd     4.802622    0.924265   12.614217    ( 0.0000,  0.0000,  0.0000)
  14 Cd     3.202125    1.848972   15.314743    ( 0.0000,  0.0000,  0.0000)
  15 Cd     4.817656    2.769042   18.050456    ( 0.0000,  0.0000,  0.0000)
  16 Cd     1.600874    2.772795   10.000000    ( 0.0000,  0.0000,  0.0000)
  17 Cd     3.201748    3.697060   12.614217    ( 0.0000,  0.0000,  0.0000)
  18 Cd     1.601279    4.621125   15.314298    ( 0.0000,  0.0000,  0.0000)
  19 Cd     3.202388    5.609627   17.943281    ( 0.0000,  0.0000,  0.0000)
  20 Cd     0.000000    5.545591   10.000000    ( 0.0000,  0.0000,  0.0000)
  21 Cd     1.600874    6.469856   12.614217    ( 0.0000,  0.0000,  0.0000)
  22 Cd     0.000252    7.393875   15.310757    ( 0.0000,  0.0000,  0.0000)
  23 Cd     1.599178    8.321968   18.060153    ( 0.0000,  0.0000,  0.0000)
  24 Cd     6.403497    0.000000   10.000000    ( 0.0000,  0.0000,  0.0000)
  25 Cd     8.004371    0.924265   12.614217    ( 0.0000,  0.0000,  0.0000)
  26 Cd     6.402788    1.849685   15.313427    ( 0.0000,  0.0000,  0.0000)
  27 Cd     8.004327    2.773665   18.061049    ( 0.0000,  0.0000,  0.0000)
  28 Cd     4.802622    2.772795   10.000000    ( 0.0000,  0.0000,  0.0000)
  29 Cd     6.403497    3.697060   12.614217    ( 0.0000,  0.0000,  0.0000)
  30 Cd     4.802401    4.620788   15.314316    ( 0.0000,  0.0000,  0.0000)
  31 Cd     6.406558    5.546005   18.058705    ( 0.0000,  0.0000,  0.0000)
  32 Cd     3.201748    5.545591   10.000000    ( 0.0000,  0.0000,  0.0000)
  33 Cd     4.802622    6.469856   12.614217    ( 0.0000,  0.0000,  0.0000)
  34 Cd     3.201398    7.393313   15.314687    ( 0.0000,  0.0000,  0.0000)
  35 Cd     4.803806    8.322009   18.059639    ( 0.0000,  0.0000,  0.0000)
  36 H      3.267327    3.013451   21.464405    ( 0.0000,  0.0000,  0.0000)
  37 O      3.244736    2.557734   20.595100    ( 0.0000,  0.0000,  0.0000)
  38 C      3.236164    3.541771   19.600599    ( 0.0000,  0.0000,  0.0000)
  39 C      3.187092    4.941100   20.008055    ( 0.0000,  0.0000,  0.0000)
  40 O      3.220016    5.554195   21.048371    ( 0.0000,  0.0000,  0.0000)

Unit cell:
           periodic     x           y           z      points  spacing
  1. axis:    yes    9.605245    0.000000    0.000000    48     0.1733
  2. axis:    yes   -4.802622    8.318386    0.000000    48     0.1733
  3. axis:    no     0.000000    0.000000   27.842650   156     0.1785

  Lengths:   9.605245   9.605245  27.842650
  Angles:   90.000000  90.000000 120.000000

Effective grid spacing dv^(1/3) = 0.1836

     iter     time        total  log10-change:
                         energy  eigst   dens
iter:   1 02:02:39 -5512.219433  -1.67
iter:   2 02:03:08 -5512.087772  -2.47  -2.34
iter:   3 02:03:36 -5512.041072c -3.06  -2.56
iter:   4 02:04:05 -5512.014837c -3.16  -2.86
iter:   5 02:04:34 -5511.998383c -3.11  -3.02
iter:   6 02:05:02 -5511.994155c -3.06  -3.23
iter:   7 02:05:31 -5511.992102c -3.79  -3.26
iter:   8 02:06:00 -5511.991527c -4.47  -3.51
iter:   9 02:06:29 -5511.991247c -4.49  -3.60
iter:  10 02:06:57 -5511.991306c -4.81  -3.74
iter:  11 02:07:26 -5511.991309c -5.55  -3.84
iter:  12 02:07:55 -5511.991306c -5.75  -3.91
iter:  13 02:08:23 -5511.991374c -5.62  -4.07c
iter:  14 02:08:52 -5511.991336c -5.89  -4.10c
iter:  15 02:09:21 -5511.991333c -6.53  -4.41c
iter:  16 02:09:49 -5511.991347c -6.28  -4.51c
iter:  17 02:10:18 -5511.991339c -6.70  -4.60c
iter:  18 02:10:47 -5511.991337c -7.08  -4.75c
iter:  19 02:11:15 -5511.991338c -7.17  -4.83c
iter:  20 02:11:44 -5511.991330c -7.23  -4.88c
iter:  21 02:12:13 -5511.991332c -7.72c -5.20c

Converged after 21 iterations.

Dipole moment: (-6.109549, -10.304677, -0.353065) |e|*Ang

Energy contributions relative to reference atoms: (reference = -5484381.711107)

Kinetic:       +1079.112454
Potential:     -977.162974
External:        +0.000000
XC:            -5618.120050
Entropy (-ST):   -0.514149
Local:           +4.436313
--------------------------
Free energy:   -5512.248406
Extrapolated:  -5511.991332

Showing only first 2 kpts
 Kpt  Band  Eigenvalues  Occupancy
  0   224     -4.73666    1.86757
  0   225     -4.49446    1.11171
  0   226     -4.35323    0.46726
  0   227     -4.29275    0.28547

  1   224     -4.49134    1.09628
  1   225     -4.41324    0.71427
  1   226     -4.00128    0.01790
  1   227     -3.92066    0.00803


Fermi level: -4.47202

No gap

Forces in eV/Ang:
  0 Cd   -0.00593   -0.00523   -0.22677
  1 Cd    0.02152    0.02030    0.23901
  2 Cd    0.00335    0.04542    0.00013
  3 Cd   -0.24434    0.01461   -0.06391
  4 Cd   -0.02308    0.01679   -0.25674
  5 Cd    0.01570    0.01162    0.24822
  6 Cd    0.00001   -0.02187   -0.07769
  7 Cd   -0.07638    0.02771   -0.02157
  8 Cd   -0.00720   -0.04496   -0.23070
  9 Cd    0.00082   -0.01849    0.19264
 10 Cd    0.00686   -0.01652   -0.07389
 11 Cd    0.01082   -0.05213   -0.04253
 12 Cd    0.02378    0.02189   -0.22914
 13 Cd   -0.01392    0.00600    0.23756
 14 Cd    0.01179    0.01536    0.06467
 15 Cd    0.32063   -0.00448   -0.14964
 16 Cd    0.01618    0.01754   -0.21725
 17 Cd   -0.00048   -0.00168    0.24099
 18 Cd   -0.01071   -0.02047    0.01006
 19 Cd   -0.01661    1.08676   -1.25376
 20 Cd    0.01377   -0.01657   -0.24297
 21 Cd    0.00307   -0.01815    0.24815
 22 Cd    0.01034   -0.00605   -0.06871
 23 Cd   -0.06951    0.11772    0.00758
 24 Cd   -0.01994    0.00671   -0.24745
 25 Cd   -0.01371   -0.01769    0.22413
 26 Cd   -0.01407    0.03661    0.00475
 27 Cd    0.00057    0.03336    0.03652
 28 Cd    0.00960    0.00182   -0.23409
 29 Cd   -0.01635    0.00989    0.25258
 30 Cd    0.01791   -0.03101    0.00718
 31 Cd    0.07789    0.01404   -0.04445
 32 Cd   -0.00320   -0.01137   -0.21873
 33 Cd   -0.01178   -0.03173    0.25291
 34 Cd   -0.01228    0.02421   -0.01967
 35 Cd    0.05491    0.12363   -0.01039
 36 H    -0.02045   -0.38582   -0.28498
 37 O     0.09114    0.22357    1.16472
 38 C    -0.27744    0.03631    0.44329
 39 C     0.25041   -1.23127   -0.63607
 40 O    -0.15434   -0.06723    0.77817

BFGS:    2 02:12:24    -5511.991332        1.6593
System changes: positions 

Initializing position-dependent things.

Density initialized from wave functions
                                                 
                                                 
                                                 
                                                 
                                                 
                                                 
                          O                      
                         H                       
                Cd      CdC     Cd               
                         O                       
                   Cd     Cd      Cd             
                                                 
            Cd      CCd     Cd      Cd           
                                                 
              Cd      Cd      Cd                 
                                                 
               CCd     CCd     CCd               
                                                 
                 Cd      Cd      Cd              
                   Cd      Cd      Cd            
           Cd      Cd     Cd                     
             Cd      Cd     Cd                   
                                                 
               Cd      Cd      Cd                
                                                 
                                                 
                                                 
                                                 

Positions:
   0 Cd     0.000000    0.000000   10.000000    ( 0.0000,  0.0000,  0.0000)
   1 Cd     1.600874    0.924265   12.614217    ( 0.0000,  0.0000,  0.0000)
   2 Cd     0.000431    1.851130   15.313160    ( 0.0000,  0.0000,  0.0000)
   3 Cd     1.582259    2.770229   18.052026    ( 0.0000,  0.0000,  0.0000)
   4 Cd    -1.600874    2.772795   10.000000    ( 0.0000,  0.0000,  0.0000)
   5 Cd    -0.000000    3.697060   12.614217    ( 0.0000,  0.0000,  0.0000)
   6 Cd    -1.600890    4.620176   15.308559    ( 0.0000,  0.0000,  0.0000)
   7 Cd    -0.005329    5.547090   18.058795    ( 0.0000,  0.0000,  0.0000)
   8 Cd    -3.201748    5.545591   10.000000    ( 0.0000,  0.0000,  0.0000)
   9 Cd    -1.600874    6.469856   12.614217    ( 0.0000,  0.0000,  0.0000)
  10 Cd    -3.201332    7.393122   15.308684    ( 0.0000,  0.0000,  0.0000)
  11 Cd    -1.600220    8.314777   18.057601    ( 0.0000,  0.0000,  0.0000)
  12 Cd     3.201748    0.000000   10.000000    ( 0.0000,  0.0000,  0.0000)
  13 Cd     4.802622    0.924265   12.614217    ( 0.0000,  0.0000,  0.0000)
  14 Cd     3.202439    1.849379   15.316439    ( 0.0000,  0.0000,  0.0000)
  15 Cd     4.826749    2.768590   18.045905    ( 0.0000,  0.0000,  0.0000)
  16 Cd     1.600874    2.772795   10.000000    ( 0.0000,  0.0000,  0.0000)
  17 Cd     3.201748    3.697060   12.614217    ( 0.0000,  0.0000,  0.0000)
  18 Cd     1.601068    4.620627   15.314659    ( 0.0000,  0.0000,  0.0000)
  19 Cd     3.202036    5.641148   17.903264    ( 0.0000,  0.0000,  0.0000)
  20 Cd     0.000000    5.545591   10.000000    ( 0.0000,  0.0000,  0.0000)
  21 Cd     1.600874    6.469856   12.614217    ( 0.0000,  0.0000,  0.0000)
  22 Cd     0.000522    7.393706   15.308923    ( 0.0000,  0.0000,  0.0000)
  23 Cd     1.597374    8.325095   18.060337    ( 0.0000,  0.0000,  0.0000)
  24 Cd     6.403497    0.000000   10.000000    ( 0.0000,  0.0000,  0.0000)
  25 Cd     8.004371    0.924265   12.614217    ( 0.0000,  0.0000,  0.0000)
  26 Cd     6.402386    1.850660   15.313583    ( 0.0000,  0.0000,  0.0000)
  27 Cd     8.004336    2.774534   18.062005    ( 0.0000,  0.0000,  0.0000)
  28 Cd     4.802622    2.772795   10.000000    ( 0.0000,  0.0000,  0.0000)
  29 Cd     6.403497    3.697060   12.614217    ( 0.0000,  0.0000,  0.0000)
  30 Cd     4.802801    4.620008   15.314610    ( 0.0000,  0.0000,  0.0000)
  31 Cd     6.408690    5.546376   18.057529    ( 0.0000,  0.0000,  0.0000)
  32 Cd     3.201748    5.545591   10.000000    ( 0.0000,  0.0000,  0.0000)
  33 Cd     4.802622    6.469856   12.614217    ( 0.0000,  0.0000,  0.0000)
  34 Cd     3.201073    7.393799   15.314393    ( 0.0000,  0.0000,  0.0000)
  35 Cd     4.805216    8.325278   18.059350    ( 0.0000,  0.0000,  0.0000)
  36 H      3.266805    3.004862   21.459555    ( 0.0000,  0.0000,  0.0000)
  37 O      3.247108    2.558968   20.627405    ( 0.0000,  0.0000,  0.0000)
  38 C      3.228498    3.549045   19.609735    ( 0.0000,  0.0000,  0.0000)
  39 C      3.194190    4.907913   20.005580    ( 0.0000,  0.0000,  0.0000)
  40 O      3.215802    5.548014   21.060532    ( 0.0000,  0.0000,  0.0000)

Unit cell:
           periodic     x           y           z      points  spacing
  1. axis:    yes    9.605245    0.000000    0.000000    48     0.1733
  2. axis:    yes   -4.802622    8.318386    0.000000    48     0.1733
  3. axis:    no     0.000000    0.000000   27.842650   156     0.1785

  Lengths:   9.605245   9.605245  27.842650
  Angles:   90.000000  90.000000 120.000000

Effective grid spacing dv^(1/3) = 0.1836

     iter     time        total  log10-change:
                         energy  eigst   dens
iter:   1 02:13:23 -5512.161654  -1.77
iter:   2 02:13:52 -5512.132758  -2.68  -2.66
iter:   3 02:14:21 -5512.112107c -3.04  -2.89
iter:   4 02:14:50 -5512.106032c -3.68  -2.90
iter:   5 02:15:19 -5512.097218c -3.55  -3.07
iter:   6 02:15:47 -5512.095020c -3.29  -3.22
iter:   7 02:16:16 -5512.092960c -3.97  -3.36
iter:   8 02:16:45 -5512.092707c -4.42  -3.45
iter:   9 02:17:13 -5512.092436c -4.73  -3.56
iter:  10 02:17:42 -5512.092533c -5.01  -3.83
iter:  11 02:18:11 -5512.092454c -5.32  -3.91
iter:  12 02:18:39 -5512.092463c -5.69  -4.01c
iter:  13 02:19:08 -5512.092450c -6.17  -4.10c
iter:  14 02:19:37 -5512.092451c -5.99  -4.19c
iter:  15 02:20:06 -5512.092454c -6.58  -4.42c
iter:  16 02:20:34 -5512.092453c -7.04  -4.51c
iter:  17 02:21:03 -5512.092453c -6.75  -4.68c
iter:  18 02:21:32 -5512.092452c -7.45c -4.82c

Converged after 18 iterations.

Dipole moment: (-6.294304, -10.550196, -0.452357) |e|*Ang

Energy contributions relative to reference atoms: (reference = -5484381.711107)

Kinetic:       +1077.947712
Potential:     -976.067761
External:        +0.000000
XC:            -5618.154059
Entropy (-ST):   -0.516942
Local:           +4.440128
--------------------------
Free energy:   -5512.350923
Extrapolated:  -5512.092452

Showing only first 2 kpts
 Kpt  Band  Eigenvalues  Occupancy
  0   224     -4.79657    1.85886
  0   225     -4.55517    1.08183
  0   226     -4.42178    0.47375
  0   227     -4.37168    0.31660

  1   224     -4.56936    1.15176
  1   225     -4.47101    0.67360
  1   226     -4.07914    0.01998
  1   227     -3.98738    0.00803


Fermi level: -4.53877

No gap

Forces in eV/Ang:
  0 Cd   -0.00531   -0.00390   -0.22509
  1 Cd    0.02206    0.01979    0.23748
  2 Cd   -0.00210    0.03838   -0.00423
  3 Cd   -0.14697    0.04425    0.01230
  4 Cd   -0.02274    0.01586   -0.25615
  5 Cd    0.01617    0.01178    0.24751
  6 Cd    0.00054   -0.01945   -0.07501
  7 Cd   -0.05908    0.02662   -0.01838
  8 Cd   -0.00710   -0.04402   -0.22870
  9 Cd    0.00063   -0.01652    0.19074
 10 Cd    0.00553   -0.01525   -0.07170
 11 Cd    0.00921   -0.05093   -0.03695
 12 Cd    0.02490    0.02132   -0.22765
 13 Cd   -0.01342    0.00393    0.23654
 14 Cd    0.01070    0.01128    0.05813
 15 Cd    0.18924    0.03507   -0.04036
 16 Cd    0.01464    0.01753   -0.21607
 17 Cd   -0.00087   -0.00146    0.24174
 18 Cd   -0.02068   -0.02514   -0.00071
 19 Cd   -0.01309    0.83362   -0.75894
 20 Cd    0.01357   -0.01631   -0.24170
 21 Cd    0.00230   -0.01681    0.24868
 22 Cd    0.01043   -0.00526   -0.06587
 23 Cd   -0.07275    0.11324    0.01398
 24 Cd   -0.02161    0.00850   -0.24669
 25 Cd   -0.01444   -0.01885    0.22655
 26 Cd   -0.00658    0.02969   -0.00256
 27 Cd    0.00114    0.03357    0.04057
 28 Cd    0.01068    0.00056   -0.23326
 29 Cd   -0.01632    0.01098    0.25278
 30 Cd    0.02802   -0.03354   -0.00487
 31 Cd    0.06314    0.01218   -0.04157
 32 Cd   -0.00323   -0.01336   -0.21834
 33 Cd   -0.01107   -0.03118    0.25320
 34 Cd   -0.01077    0.05101   -0.05647
 35 Cd    0.06005    0.12084   -0.00408
 36 H     0.01617    0.49898    1.32570
 37 O     0.03371   -0.45761   -0.84647
 38 C    -0.17698   -0.82845    0.32873
 39 C     0.20381    0.35772    0.72661
 40 O    -0.19295   -0.79711   -0.75142

BFGS:    3 02:21:43    -5512.092452        1.4166
System changes: positions 

Initializing position-dependent things.

Density initialized from wave functions
                                                 
                                                 
                                                 
                                                 
                                                 
                                                 
                          O                      
                         H                       
                Cd      CdC     Cd               
                         O                       
                   Cd     Cd      Cd             
                                                 
            Cd      CCd     CCd     Cd           
                                                 
              Cd      Cd      Cd                 
                                                 
               CCd     CCd     CCd               
                                                 
                 Cd      Cd      Cd              
                   Cd      Cd      Cd            
           Cd      Cd     Cd                     
             Cd      Cd     Cd                   
                                                 
               Cd      Cd      Cd                
                                                 
                                                 
                                                 
                                                 

Positions:
   0 Cd     0.000000    0.000000   10.000000    ( 0.0000,  0.0000,  0.0000)
   1 Cd     1.600874    0.924265   12.614217    ( 0.0000,  0.0000,  0.0000)
   2 Cd     0.000464    1.852294   15.313114    ( 0.0000,  0.0000,  0.0000)
   3 Cd     1.576419    2.770862   18.050892    ( 0.0000,  0.0000,  0.0000)
   4 Cd    -1.600874    2.772795   10.000000    ( 0.0000,  0.0000,  0.0000)
   5 Cd    -0.000000    3.697060   12.614217    ( 0.0000,  0.0000,  0.0000)
   6 Cd    -1.600883    4.619611   15.306443    ( 0.0000,  0.0000,  0.0000)
   7 Cd    -0.007276    5.547837   18.058240    ( 0.0000,  0.0000,  0.0000)
   8 Cd    -3.201748    5.545591   10.000000    ( 0.0000,  0.0000,  0.0000)
   9 Cd    -1.600874    6.469856   12.614217    ( 0.0000,  0.0000,  0.0000)
  10 Cd    -3.201163    7.392669   15.306658    ( 0.0000,  0.0000,  0.0000)
  11 Cd    -1.599938    8.313284   18.056479    ( 0.0000,  0.0000,  0.0000)
  12 Cd     3.201748    0.000000   10.000000    ( 0.0000,  0.0000,  0.0000)
  13 Cd     4.802622    0.924265   12.614217    ( 0.0000,  0.0000,  0.0000)
  14 Cd     3.202753    1.849750   15.318135    ( 0.0000,  0.0000,  0.0000)
  15 Cd     4.834328    2.768795   18.042750    ( 0.0000,  0.0000,  0.0000)
  16 Cd     1.600874    2.772795   10.000000    ( 0.0000,  0.0000,  0.0000)
  17 Cd     3.201748    3.697060   12.614217    ( 0.0000,  0.0000,  0.0000)
  18 Cd     1.600684    4.620030   15.314854    ( 0.0000,  0.0000,  0.0000)
  19 Cd     3.201670    5.669537   17.871140    ( 0.0000,  0.0000,  0.0000)
  20 Cd     0.000000    5.545591   10.000000    ( 0.0000,  0.0000,  0.0000)
  21 Cd     1.600874    6.469856   12.614217    ( 0.0000,  0.0000,  0.0000)
  22 Cd     0.000812    7.393538   15.307044    ( 0.0000,  0.0000,  0.0000)
  23 Cd     1.595421    8.328319   18.060620    ( 0.0000,  0.0000,  0.0000)
  24 Cd     6.403497    0.000000   10.000000    ( 0.0000,  0.0000,  0.0000)
  25 Cd     8.004371    0.924265   12.614217    ( 0.0000,  0.0000,  0.0000)
  26 Cd     6.402078    1.851582   15.313636    ( 0.0000,  0.0000,  0.0000)
  27 Cd     8.004355    2.775450   18.063067    ( 0.0000,  0.0000,  0.0000)
  28 Cd     4.802622    2.772795   10.000000    ( 0.0000,  0.0000,  0.0000)
  29 Cd     6.403497    3.697060   12.614217    ( 0.0000,  0.0000,  0.0000)
  30 Cd     4.803385    4.619144   15.314715    ( 0.0000,  0.0000,  0.0000)
  31 Cd     6.410696    5.546737   18.056337    ( 0.0000,  0.0000,  0.0000)
  32 Cd     3.201748    5.545591   10.000000    ( 0.0000,  0.0000,  0.0000)
  33 Cd     4.802622    6.469856   12.614217    ( 0.0000,  0.0000,  0.0000)
  34 Cd     3.200753    7.394734   15.313497    ( 0.0000,  0.0000,  0.0000)
  35 Cd     4.806783    8.328679   18.059133    ( 0.0000,  0.0000,  0.0000)
  36 H      3.266630    3.005437   21.471760    ( 0.0000,  0.0000,  0.0000)
  37 O      3.248942    2.553497   20.638680    ( 0.0000,  0.0000,  0.0000)
  38 C      3.221980    3.543493   19.617279    ( 0.0000,  0.0000,  0.0000)
  39 C      3.200804    4.896058   20.016003    ( 0.0000,  0.0000,  0.0000)
  40 O      3.210945    5.532601   21.055097    ( 0.0000,  0.0000,  0.0000)

Unit cell:
           periodic     x           y           z      points  spacing
  1. axis:    yes    9.605245    0.000000    0.000000    48     0.1733
  2. axis:    yes   -4.802622    8.318386    0.000000    48     0.1733
  3. axis:    no     0.000000    0.000000   27.842650   156     0.1785

  Lengths:   9.605245   9.605245  27.842650
  Angles:   90.000000  90.000000 120.000000

Effective grid spacing dv^(1/3) = 0.1836

     iter     time        total  log10-change:
                         energy  eigst   dens
iter:   1 02:22:42 -5512.250563  -2.15
iter:   2 02:23:11 -5512.195482  -2.95  -2.59
iter:   3 02:23:39 -5512.177268c -3.55  -2.75
iter:   4 02:24:08 -5512.166640c -3.57  -2.98
iter:   5 02:24:37 -5512.164325c -3.82  -3.28
iter:   6 02:25:06 -5512.163308c -4.07  -3.43
iter:   7 02:25:34 -5512.163157c -4.36  -3.57
iter:   8 02:26:03 -5512.162922c -4.87  -3.63
iter:   9 02:26:32 -5512.162840c -5.30  -3.91
iter:  10 02:27:01 -5512.162833c -5.65  -3.98
iter:  11 02:27:29 -5512.162842c -5.73  -4.21c
iter:  12 02:27:58 -5512.162880c -6.37  -4.27c
iter:  13 02:28:27 -5512.162883c -6.39  -4.42c
iter:  14 02:28:55 -5512.162876c -6.81  -4.58c
iter:  15 02:29:24 -5512.162860c -7.10  -4.65c
iter:  16 02:29:53 -5512.162861c -7.40c -4.93c

Converged after 16 iterations.

Dipole moment: (-6.454510, -10.774710, -0.420968) |e|*Ang

Energy contributions relative to reference atoms: (reference = -5484381.711107)

Kinetic:       +1078.210886
Potential:     -976.324785
External:        +0.000000
XC:            -5618.233815
Entropy (-ST):   -0.517291
Local:           +4.443498
--------------------------
Free energy:   -5512.421506
Extrapolated:  -5512.162861

Showing only first 2 kpts
 Kpt  Band  Eigenvalues  Occupancy
  0   224     -4.77516    1.85796
  0   225     -4.52775    1.04846
  0   226     -4.40306    0.48101
  0   227     -4.35474    0.32681

  1   224     -4.55273    1.17169
  1   225     -4.44507    0.65049
  1   226     -4.05424    0.01917
  1   227     -3.96778    0.00812


Fermi level: -4.51805

No gap

Forces in eV/Ang:
  0 Cd   -0.00640   -0.00331   -0.22612
  1 Cd    0.02196    0.02129    0.23926
  2 Cd   -0.00138    0.03600   -0.00620
  3 Cd   -0.08339    0.07178    0.05310
  4 Cd   -0.02197    0.01489   -0.25714
  5 Cd    0.01662    0.01053    0.24584
  6 Cd    0.00127   -0.01866   -0.06835
  7 Cd   -0.04115    0.02401   -0.01386
  8 Cd   -0.00744   -0.04389   -0.22920
  9 Cd    0.00092   -0.01607    0.18841
 10 Cd    0.00709   -0.01094   -0.06618
 11 Cd    0.00739   -0.04289   -0.03656
 12 Cd    0.02538    0.02066   -0.22883
 13 Cd   -0.01309    0.00443    0.23726
 14 Cd    0.00888    0.01132    0.05623
 15 Cd    0.10672    0.07007    0.02218
 16 Cd    0.01384    0.01886   -0.21733
 17 Cd   -0.00088   -0.00177    0.24270
 18 Cd   -0.02560   -0.03399   -0.00688
 19 Cd   -0.00727    0.62470   -0.39314
 20 Cd    0.01421   -0.01677   -0.24283
 21 Cd    0.00269   -0.01670    0.24499
 22 Cd    0.00719   -0.00210   -0.05985
 23 Cd   -0.07739    0.11164    0.02224
 24 Cd   -0.02081    0.00860   -0.24742
 25 Cd   -0.01481   -0.01823    0.22738
 26 Cd   -0.00472    0.02760   -0.00642
 27 Cd    0.00186    0.03422    0.04099
 28 Cd    0.01065    0.00115   -0.23414
 29 Cd   -0.01674    0.01032    0.25159
 30 Cd    0.03298   -0.04053   -0.01168
 31 Cd    0.04517    0.01015   -0.03623
 32 Cd   -0.00352   -0.01414   -0.21984
 33 Cd   -0.01151   -0.03160    0.25029
 34 Cd   -0.00909    0.07627   -0.09167
 35 Cd    0.06736    0.12013    0.00344
 36 H     0.01259    0.38026    1.13898
 37 O     0.02454   -0.29065   -0.69602
 38 C    -0.10847   -0.96699    0.12400
 39 C     0.09798    0.08283   -0.15233
 40 O    -0.10626   -0.17704   -0.00319

BFGS:    4 02:30:04    -5512.162861        1.2008
System changes: positions 

Initializing position-dependent things.

Density initialized from wave functions
                                                 
                                                 
                                                 
                                                 
                                                 
                                                 
                          O                      
                         H                       
                Cd      CdC     Cd               
                         O                       
                   Cd     Cd      Cd             
                                                 
            Cd      CCd     CCd     Cd           
                                                 
              Cd      Cd      Cd                 
                                                 
               CCd     CCd     CCd               
                                                 
                 Cd      Cd      Cd              
                   Cd      Cd      Cd            
           Cd      Cd     Cd                     
             Cd      Cd     Cd                   
                                                 
               Cd      Cd      Cd                
                                                 
                                                 
                                                 
                                                 

Positions:
   0 Cd     0.000000    0.000000   10.000000    ( 0.0000,  0.0000,  0.0000)
   1 Cd     1.600874    0.924265   12.614217    ( 0.0000,  0.0000,  0.0000)
   2 Cd     0.000508    1.854877   15.312902    ( 0.0000,  0.0000,  0.0000)
   3 Cd     1.565756    2.773565   18.050316    ( 0.0000,  0.0000,  0.0000)
   4 Cd    -1.600874    2.772795   10.000000    ( 0.0000,  0.0000,  0.0000)
   5 Cd    -0.000000    3.697060   12.614217    ( 0.0000,  0.0000,  0.0000)
   6 Cd    -1.600841    4.618333   15.301731    ( 0.0000,  0.0000,  0.0000)
   7 Cd    -0.011083    5.549494   18.057113    ( 0.0000,  0.0000,  0.0000)
   8 Cd    -3.201748    5.545591   10.000000    ( 0.0000,  0.0000,  0.0000)
   9 Cd    -1.600874    6.469856   12.614217    ( 0.0000,  0.0000,  0.0000)
  10 Cd    -3.200730    7.391760   15.302120    ( 0.0000,  0.0000,  0.0000)
  11 Cd    -1.599352    8.310081   18.053920    ( 0.0000,  0.0000,  0.0000)
  12 Cd     3.201748    0.000000   10.000000    ( 0.0000,  0.0000,  0.0000)
  13 Cd     4.802622    0.924265   12.614217    ( 0.0000,  0.0000,  0.0000)
  14 Cd     3.203421    1.850584   15.321989    ( 0.0000,  0.0000,  0.0000)
  15 Cd     4.848132    2.770834   18.038456    ( 0.0000,  0.0000,  0.0000)
  16 Cd     1.600874    2.772795   10.000000    ( 0.0000,  0.0000,  0.0000)
  17 Cd     3.201748    3.697060   12.614217    ( 0.0000,  0.0000,  0.0000)
  18 Cd     1.599522    4.618306   15.314991    ( 0.0000,  0.0000,  0.0000)
  19 Cd     3.200987    5.726046   17.814550    ( 0.0000,  0.0000,  0.0000)
  20 Cd     0.000000    5.545591   10.000000    ( 0.0000,  0.0000,  0.0000)
  21 Cd     1.600874    6.469856   12.614217    ( 0.0000,  0.0000,  0.0000)
  22 Cd     0.001390    7.393254   15.302877    ( 0.0000,  0.0000,  0.0000)
  23 Cd     1.590673    8.335760   18.061598    ( 0.0000,  0.0000,  0.0000)
  24 Cd     6.403497    0.000000   10.000000    ( 0.0000,  0.0000,  0.0000)
  25 Cd     8.004371    0.924265   12.614217    ( 0.0000,  0.0000,  0.0000)
  26 Cd     6.401492    1.853611   15.313567    ( 0.0000,  0.0000,  0.0000)
  27 Cd     8.004429    2.777617   18.065597    ( 0.0000,  0.0000,  0.0000)
  28 Cd     4.802622    2.772795   10.000000    ( 0.0000,  0.0000,  0.0000)
  29 Cd     6.403497    3.697060   12.614217    ( 0.0000,  0.0000,  0.0000)
  30 Cd     4.805017    4.616873   15.314605    ( 0.0000,  0.0000,  0.0000)
  31 Cd     6.414669    5.547503   18.053742    ( 0.0000,  0.0000,  0.0000)
  32 Cd     3.201748    5.545591   10.000000    ( 0.0000,  0.0000,  0.0000)
  33 Cd     4.802622    6.469856   12.614217    ( 0.0000,  0.0000,  0.0000)
  34 Cd     3.200070    7.397988   15.309911    ( 0.0000,  0.0000,  0.0000)
  35 Cd     4.810733    8.336579   18.058917    ( 0.0000,  0.0000,  0.0000)
  36 H      3.266378    3.009311   21.505838    ( 0.0000,  0.0000,  0.0000)
  37 O      3.252505    2.542388   20.653656    ( 0.0000,  0.0000,  0.0000)
  38 C      3.209865    3.516675   19.628310    ( 0.0000,  0.0000,  0.0000)
  39 C      3.212369    4.873435   20.018274    ( 0.0000,  0.0000,  0.0000)
  40 O      3.202047    5.511570   21.056429    ( 0.0000,  0.0000,  0.0000)

Unit cell:
           periodic     x           y           z      points  spacing
  1. axis:    yes    9.605245    0.000000    0.000000    48     0.1733
  2. axis:    yes   -4.802622    8.318386    0.000000    48     0.1733
  3. axis:    no     0.000000    0.000000   27.842650   156     0.1785

  Lengths:   9.605245   9.605245  27.842650
  Angles:   90.000000  90.000000 120.000000

Effective grid spacing dv^(1/3) = 0.1836

     iter     time        total  log10-change:
                         energy  eigst   dens
iter:   1 02:31:03 -5512.327871  -1.70
iter:   2 02:31:32 -5512.278267  -2.65  -2.61
iter:   3 02:32:01 -5512.263709c -3.22  -2.75
iter:   4 02:32:30 -5512.254686c -3.38  -2.95
iter:   5 02:32:59 -5512.249277c -3.53  -3.01
iter:   6 02:33:27 -5512.248673c -3.77  -3.27
iter:   7 02:33:56 -5512.247507c -4.10  -3.36
iter:   8 02:34:25 -5512.247578c -4.55  -3.60
iter:   9 02:34:54 -5512.247424c -4.79  -3.68
iter:  10 02:35:22 -5512.247405c -5.12  -3.82
iter:  11 02:35:51 -5512.247370c -5.92  -3.98
iter:  12 02:36:20 -5512.247412c -6.07  -4.11c
iter:  13 02:36:49 -5512.247430c -6.35  -4.18c
iter:  14 02:37:18 -5512.247447c -6.58  -4.32c
iter:  15 02:37:46 -5512.247438c -6.72  -4.47c
iter:  16 02:38:15 -5512.247441c -6.77  -4.64c
iter:  17 02:38:44 -5512.247445c -7.05  -4.70c
iter:  18 02:39:12 -5512.247446c -7.12  -4.71c
iter:  19 02:39:41 -5512.247439c -7.24  -4.79c
iter:  20 02:40:10 -5512.247440c -7.80c -5.00c

Converged after 20 iterations.

Dipole moment: (-6.821804, -11.329144, -0.401466) |e|*Ang

Energy contributions relative to reference atoms: (reference = -5484381.711107)

Kinetic:       +1075.764803
Potential:     -974.496814
External:        +0.000000
XC:            -5617.706718
Entropy (-ST):   -0.517078
Local:           +4.449828
--------------------------
Free energy:   -5512.505979
Extrapolated:  -5512.247440

Showing only first 2 kpts
 Kpt  Band  Eigenvalues  Occupancy
  0   224     -4.76028    1.85539
  0   225     -4.50749    1.01197
  0   226     -4.39466    0.49786
  0   227     -4.34486    0.33530

  1   224     -4.54401    1.19216
  1   225     -4.42369    0.61404
  1   226     -4.03414    0.01786
  1   227     -3.95711    0.00831


Fermi level: -4.50510

No gap

Forces in eV/Ang:
  0 Cd   -0.00697   -0.00106   -0.22523
  1 Cd    0.02276    0.02247    0.23925
  2 Cd    0.00002    0.02923   -0.00669
  3 Cd   -0.01870    0.09937    0.10179
  4 Cd   -0.02065    0.01358   -0.25655
  5 Cd    0.01683    0.00905    0.24119
  6 Cd    0.00178   -0.01402   -0.05263
  7 Cd   -0.01541    0.01894   -0.00904
  8 Cd   -0.00649   -0.04376   -0.22740
  9 Cd    0.00104   -0.01543    0.18267
 10 Cd    0.00605   -0.00871   -0.05426
 11 Cd    0.00309   -0.03540   -0.03644
 12 Cd    0.02590    0.02050   -0.22777
 13 Cd   -0.01356    0.00463    0.23511
 14 Cd    0.00541    0.00901    0.05116
 15 Cd    0.02318    0.10470    0.10075
 16 Cd    0.01193    0.01857   -0.21718
 17 Cd   -0.00063   -0.00192    0.24510
 18 Cd   -0.03142   -0.04066   -0.02035
 19 Cd    0.00450    0.29350    0.08664
 20 Cd    0.01367   -0.01712   -0.24244
 21 Cd    0.00334   -0.01655    0.24163
 22 Cd    0.00466   -0.00159   -0.04764
 23 Cd   -0.08602    0.11792    0.03796
 24 Cd   -0.02068    0.00955   -0.24586
 25 Cd   -0.01527   -0.01756    0.22650
 26 Cd   -0.00115    0.02234   -0.00993
 27 Cd    0.00316    0.03263    0.04416
 28 Cd    0.01126    0.00008   -0.23338
 29 Cd   -0.01699    0.00996    0.24806
 30 Cd    0.03946   -0.04313   -0.02573
 31 Cd    0.01833    0.00814   -0.03194
 32 Cd   -0.00395   -0.01442   -0.21977
 33 Cd   -0.01181   -0.03242    0.24965
 34 Cd   -0.00454    0.11999   -0.15743
 35 Cd    0.08056    0.12535    0.01625
 36 H    -0.00783   -0.17517    0.06590
 37 O     0.01048    0.19794    0.39001
 38 C    -0.01654   -0.78243   -0.11459
 39 C    -0.02744    0.19928   -0.30821
 40 O     0.00849   -0.29467   -0.15656

BFGS:    5 02:40:21    -5512.247440        0.7909
System changes: positions 

Initializing position-dependent things.

Density initialized from wave functions
                                                 
                                                 
                                                 
                                                 
                                                 
                                                 
                          O                      
                         H                       
                Cd      CdC     Cd               
                         O                       
                   Cd     Cd      Cd             
                                                 
            Cd      CCd     CCd     Cd           
                                                 
              Cd      Cd      Cd                 
                                                 
               CCd     CCd     CCd               
                                                 
                 Cd      Cd      Cd              
                   Cd      Cd      Cd            
           Cd      Cd     Cd                     
             Cd      Cd     Cd                   
                                                 
               Cd      Cd      Cd                
                                                 
                                                 
                                                 
                                                 

Positions:
   0 Cd     0.000000    0.000000   10.000000    ( 0.0000,  0.0000,  0.0000)
   1 Cd     1.600874    0.924265   12.614217    ( 0.0000,  0.0000,  0.0000)
   2 Cd     0.000550    1.857241   15.312641    ( 0.0000,  0.0000,  0.0000)
   3 Cd     1.557708    2.777234   18.051690    ( 0.0000,  0.0000,  0.0000)
   4 Cd    -1.600874    2.772795   10.000000    ( 0.0000,  0.0000,  0.0000)
   5 Cd    -0.000000    3.697060   12.614217    ( 0.0000,  0.0000,  0.0000)
   6 Cd    -1.600780    4.617178   15.297449    ( 0.0000,  0.0000,  0.0000)
   7 Cd    -0.014073    5.551010   18.056143    ( 0.0000,  0.0000,  0.0000)
   8 Cd    -3.201748    5.545591   10.000000    ( 0.0000,  0.0000,  0.0000)
   9 Cd    -1.600874    6.469856   12.614217    ( 0.0000,  0.0000,  0.0000)
  10 Cd    -3.200319    7.390948   15.297925    ( 0.0000,  0.0000,  0.0000)
  11 Cd    -1.598884    8.307159   18.051434    ( 0.0000,  0.0000,  0.0000)
  12 Cd     3.201748    0.000000   10.000000    ( 0.0000,  0.0000,  0.0000)
  13 Cd     4.802622    0.924265   12.614217    ( 0.0000,  0.0000,  0.0000)
  14 Cd     3.203990    1.851337   15.325655    ( 0.0000,  0.0000,  0.0000)
  15 Cd     4.858543    2.774110   18.037146    ( 0.0000,  0.0000,  0.0000)
  16 Cd     1.600874    2.772795   10.000000    ( 0.0000,  0.0000,  0.0000)
  17 Cd     3.201748    3.697060   12.614217    ( 0.0000,  0.0000,  0.0000)
  18 Cd     1.598138    4.616356   15.314713    ( 0.0000,  0.0000,  0.0000)
  19 Cd     3.200604    5.771685   17.775122    ( 0.0000,  0.0000,  0.0000)
  20 Cd     0.000000    5.545591   10.000000    ( 0.0000,  0.0000,  0.0000)
  21 Cd     1.600874    6.469856   12.614217    ( 0.0000,  0.0000,  0.0000)
  22 Cd     0.001887    7.393013   15.299062    ( 0.0000,  0.0000,  0.0000)
  23 Cd     1.585730    8.343219   18.062997    ( 0.0000,  0.0000,  0.0000)
  24 Cd     6.403497    0.000000   10.000000    ( 0.0000,  0.0000,  0.0000)
  25 Cd     8.004371    0.924265   12.614217    ( 0.0000,  0.0000,  0.0000)
  26 Cd     6.401048    1.855458   15.313350    ( 0.0000,  0.0000,  0.0000)
  27 Cd     8.004540    2.779744   18.068202    ( 0.0000,  0.0000,  0.0000)
  28 Cd     4.802622    2.772795   10.000000    ( 0.0000,  0.0000,  0.0000)
  29 Cd     6.403497    3.697060   12.614217    ( 0.0000,  0.0000,  0.0000)
  30 Cd     4.806884    4.614494   15.314057    ( 0.0000,  0.0000,  0.0000)
  31 Cd     6.417823    5.548199   18.051309    ( 0.0000,  0.0000,  0.0000)
  32 Cd     3.201748    5.545591   10.000000    ( 0.0000,  0.0000,  0.0000)
  33 Cd     4.802622    6.469856   12.614217    ( 0.0000,  0.0000,  0.0000)
  34 Cd     3.199509    7.402496   15.304466    ( 0.0000,  0.0000,  0.0000)
  35 Cd     4.815013    8.344492   18.059068    ( 0.0000,  0.0000,  0.0000)
  36 H      3.266000    3.007136   21.527852    ( 0.0000,  0.0000,  0.0000)
  37 O      3.255246    2.539428   20.675083    ( 0.0000,  0.0000,  0.0000)
  38 C      3.200870    3.485452   19.634477    ( 0.0000,  0.0000,  0.0000)
  39 C      3.220133    4.860035   20.015859    ( 0.0000,  0.0000,  0.0000)
  40 O      3.195976    5.489657   21.053097    ( 0.0000,  0.0000,  0.0000)

Unit cell:
           periodic     x           y           z      points  spacing
  1. axis:    yes    9.605245    0.000000    0.000000    48     0.1733
  2. axis:    yes   -4.802622    8.318386    0.000000    48     0.1733
  3. axis:    no     0.000000    0.000000   27.842650   156     0.1785

  Lengths:   9.605245   9.605245  27.842650
  Angles:   90.000000  90.000000 120.000000

Effective grid spacing dv^(1/3) = 0.1836

     iter     time        total  log10-change:
                         energy  eigst   dens
iter:   1 02:41:21 -5512.309386  -1.85
iter:   2 02:41:50 -5512.300587  -2.79  -2.77
iter:   3 02:42:18 -5512.291742c -3.29  -2.97
iter:   4 02:42:47 -5512.284469c -3.31  -3.01
iter:   5 02:43:16 -5512.283749c -4.17  -3.27
iter:   6 02:43:44 -5512.283718c -4.01  -3.40
iter:   7 02:44:13 -5512.283134c -4.50  -3.54
iter:   8 02:44:42 -5512.283052c -4.79  -3.73
iter:   9 02:45:10 -5512.283064c -5.11  -3.79
iter:  10 02:45:39 -5512.283035c -5.65  -4.05c
iter:  11 02:46:08 -5512.283073c -5.95  -4.12c
iter:  12 02:46:36 -5512.283084c -6.34  -4.25c
iter:  13 02:47:05 -5512.283082c -6.59  -4.33c
iter:  14 02:47:34 -5512.283044c -6.21  -4.40c
iter:  15 02:48:02 -5512.283050c -6.61  -4.63c
iter:  16 02:48:31 -5512.283056c -7.20  -4.85c
iter:  17 02:49:00 -5512.283060c -7.66c -4.95c

Converged after 17 iterations.

Dipole moment: (-7.161852, -11.869739, -0.372750) |e|*Ang

Energy contributions relative to reference atoms: (reference = -5484381.711107)

Kinetic:       +1075.065776
Potential:     -973.997938
External:        +0.000000
XC:            -5617.540819
Entropy (-ST):   -0.516002
Local:           +4.447922
--------------------------
Free energy:   -5512.541061
Extrapolated:  -5512.283060

Showing only first 2 kpts
 Kpt  Band  Eigenvalues  Occupancy
  0   224     -4.74220    1.85636
  0   225     -4.48307    0.98387
  0   226     -4.37842    0.50746
  0   227     -4.32517    0.33282

  1   224     -4.52722    1.20179
  1   225     -4.40169    0.60049
  1   226     -4.00220    0.01568
  1   227     -3.93979    0.00843


Fermi level: -4.48630

No gap

Forces in eV/Ang:
  0 Cd   -0.00673    0.00092   -0.22577
  1 Cd    0.02450    0.02453    0.23986
  2 Cd    0.00190    0.02436   -0.00412
  3 Cd   -0.00118    0.10928    0.13576
  4 Cd   -0.01937    0.01335   -0.25653
  5 Cd    0.01735    0.00776    0.23651
  6 Cd    0.00261   -0.01080   -0.03903
  7 Cd    0.00618    0.01452   -0.00657
  8 Cd   -0.00568   -0.04433   -0.22665
  9 Cd    0.00154   -0.01544    0.17713
 10 Cd    0.00538   -0.00824   -0.04375
 11 Cd   -0.00090   -0.02764   -0.03908
 12 Cd    0.02626    0.02157   -0.22738
 13 Cd   -0.01510    0.00617    0.23291
 14 Cd    0.00222    0.00763    0.04898
 15 Cd   -0.00360    0.11762    0.14721
 16 Cd    0.01160    0.01840   -0.21753
 17 Cd   -0.00031   -0.00285    0.24596
 18 Cd   -0.03223   -0.04326   -0.02610
 19 Cd    0.01016    0.05844    0.41188
 20 Cd    0.01321   -0.01789   -0.24274
 21 Cd    0.00338   -0.01793    0.23819
 22 Cd    0.00320   -0.00234   -0.03651
 23 Cd   -0.09357    0.12780    0.05736
 24 Cd   -0.02100    0.00996   -0.24512
 25 Cd   -0.01549   -0.01531    0.22512
 26 Cd    0.00158    0.01823   -0.00932
 27 Cd    0.00455    0.02961    0.04433
 28 Cd    0.01039   -0.00058   -0.23283
 29 Cd   -0.01769    0.00915    0.24404
 30 Cd    0.04057   -0.04270   -0.03194
 31 Cd   -0.00589    0.00708   -0.02886
 32 Cd   -0.00442   -0.01528   -0.22017
 33 Cd   -0.01189   -0.03452    0.24927
 34 Cd   -0.00075    0.15687   -0.20554
 35 Cd    0.09145    0.13420    0.03219
 36 H    -0.01382   -0.12328   -0.01554
 37 O     0.00630    0.09854    0.49881
 38 C     0.06497   -0.33510   -0.07448
 39 C    -0.11582   -0.09700   -0.70016
 40 O     0.00847   -0.17431    0.01549

BFGS:    6 02:49:11    -5512.283060        0.7163
System changes: positions 

Initializing position-dependent things.

Density initialized from wave functions
                                                 
                                                 
                                                 
                                                 
                                                 
                                                 
                          O                      
                         H                       
                Cd      CdC     Cd               
                         O                       
                   Cd     Cd      Cd             
                                                 
            Cd      CCd     CCd     Cd           
                                                 
              Cd      Cd      Cd                 
                                                 
               CCd     CCd     CCd               
                                                 
                 Cd      Cd      Cd              
                   Cd      Cd      Cd            
           Cd      Cd     Cd                     
             Cd      Cd     Cd                   
                                                 
               Cd      Cd      Cd                
                                                 
                                                 
                                                 
                                                 

Positions:
   0 Cd     0.000000    0.000000   10.000000    ( 0.0000,  0.0000,  0.0000)
   1 Cd     1.600874    0.924265   12.614217    ( 0.0000,  0.0000,  0.0000)
   2 Cd     0.000609    1.859231   15.312405    ( 0.0000,  0.0000,  0.0000)
   3 Cd     1.552328    2.781610   18.055126    ( 0.0000,  0.0000,  0.0000)
   4 Cd    -1.600874    2.772795   10.000000    ( 0.0000,  0.0000,  0.0000)
   5 Cd    -0.000000    3.697060   12.614217    ( 0.0000,  0.0000,  0.0000)
   6 Cd    -1.600691    4.616227   15.293933    ( 0.0000,  0.0000,  0.0000)
   7 Cd    -0.015909    5.552269   18.055379    ( 0.0000,  0.0000,  0.0000)
   8 Cd    -3.201748    5.545591   10.000000    ( 0.0000,  0.0000,  0.0000)
   9 Cd    -1.600874    6.469856   12.614217    ( 0.0000,  0.0000,  0.0000)
  10 Cd    -3.199956    7.390253   15.294377    ( 0.0000,  0.0000,  0.0000)
  11 Cd    -1.598599    8.304736   18.049081    ( 0.0000,  0.0000,  0.0000)
  12 Cd     3.201748    0.000000   10.000000    ( 0.0000,  0.0000,  0.0000)
  13 Cd     4.802622    0.924265   12.614217    ( 0.0000,  0.0000,  0.0000)
  14 Cd     3.204402    1.851966   15.328958    ( 0.0000,  0.0000,  0.0000)
  15 Cd     4.865392    2.778374   18.039013    ( 0.0000,  0.0000,  0.0000)
  16 Cd     1.600874    2.772795   10.000000    ( 0.0000,  0.0000,  0.0000)
  17 Cd     3.201748    3.697060   12.614217    ( 0.0000,  0.0000,  0.0000)
  18 Cd     1.596644    4.614299   15.314053    ( 0.0000,  0.0000,  0.0000)
  19 Cd     3.200527    5.802543   17.757063    ( 0.0000,  0.0000,  0.0000)
  20 Cd     0.000000    5.545591   10.000000    ( 0.0000,  0.0000,  0.0000)
  21 Cd     1.600874    6.469856   12.614217    ( 0.0000,  0.0000,  0.0000)
  22 Cd     0.002279    7.392803   15.295899    ( 0.0000,  0.0000,  0.0000)
  23 Cd     1.580763    8.350482   18.064998    ( 0.0000,  0.0000,  0.0000)
  24 Cd     6.403497    0.000000   10.000000    ( 0.0000,  0.0000,  0.0000)
  25 Cd     8.004371    0.924265   12.614217    ( 0.0000,  0.0000,  0.0000)
  26 Cd     6.400794    1.856997   15.313045    ( 0.0000,  0.0000,  0.0000)
  27 Cd     8.004699    2.781673   18.070724    ( 0.0000,  0.0000,  0.0000)
  28 Cd     4.802622    2.772795   10.000000    ( 0.0000,  0.0000,  0.0000)
  29 Cd     6.403497    3.697060   12.614217    ( 0.0000,  0.0000,  0.0000)
  30 Cd     4.808848    4.612168   15.313111    ( 0.0000,  0.0000,  0.0000)
  31 Cd     6.419768    5.548788   18.049176    ( 0.0000,  0.0000,  0.0000)
  32 Cd     3.201748    5.545591   10.000000    ( 0.0000,  0.0000,  0.0000)
  33 Cd     4.802622    6.469856   12.614217    ( 0.0000,  0.0000,  0.0000)
  34 Cd     3.199131    7.408365   15.297094    ( 0.0000,  0.0000,  0.0000)
  35 Cd     4.819506    8.352168   18.059782    ( 0.0000,  0.0000,  0.0000)
  36 H      3.265557    3.005589   21.545345    ( 0.0000,  0.0000,  0.0000)
  37 O      3.257128    2.537389   20.694407    ( 0.0000,  0.0000,  0.0000)
  38 C      3.196239    3.459270   19.638317    ( 0.0000,  0.0000,  0.0000)
  39 C      3.223186    4.850417   20.003156    ( 0.0000,  0.0000,  0.0000)
  40 O      3.191727    5.470614   21.049078    ( 0.0000,  0.0000,  0.0000)

Unit cell:
           periodic     x           y           z      points  spacing
  1. axis:    yes    9.605245    0.000000    0.000000    48     0.1733
  2. axis:    yes   -4.802622    8.318386    0.000000    48     0.1733
  3. axis:    no     0.000000    0.000000   27.842650   156     0.1785

  Lengths:   9.605245   9.605245  27.842650
  Angles:   90.000000  90.000000 120.000000

Effective grid spacing dv^(1/3) = 0.1836

     iter     time        total  log10-change:
                         energy  eigst   dens
iter:   1 02:50:11 -5512.323182  -2.10
iter:   2 02:50:39 -5512.317641  -3.01  -3.00
iter:   3 02:51:08 -5512.313760c -3.54  -3.08
iter:   4 02:51:37 -5512.311660c -3.65  -3.24
iter:   5 02:52:05 -5512.311058c -4.10  -3.35
iter:   6 02:52:34 -5512.311042c -4.44  -3.54
iter:   7 02:53:03 -5512.311091c -4.84  -3.70
iter:   8 02:53:32 -5512.311088c -5.22  -3.70
iter:   9 02:54:00 -5512.310979c -5.53  -3.92
iter:  10 02:54:29 -5512.310970c -6.19  -4.13c
iter:  11 02:54:58 -5512.310940c -6.11  -4.20c
iter:  12 02:55:27 -5512.310964c -6.35  -4.42c
iter:  13 02:55:55 -5512.310961c -6.81  -4.45c
iter:  14 02:56:24 -5512.310960c -7.19  -4.47c
iter:  15 02:56:53 -5512.310955c -7.17  -4.63c
iter:  16 02:57:22 -5512.310957c -7.61c -4.97c

Converged after 16 iterations.

Dipole moment: (-7.454417, -12.395171, -0.371948) |e|*Ang

Energy contributions relative to reference atoms: (reference = -5484381.711107)

Kinetic:       +1074.219940
Potential:     -973.354807
External:        +0.000000
XC:            -5617.368856
Entropy (-ST):   -0.514880
Local:           +4.450206
--------------------------
Free energy:   -5512.568397
Extrapolated:  -5512.310957

Showing only first 2 kpts
 Kpt  Band  Eigenvalues  Occupancy
  0   224     -4.74216    1.85615
  0   225     -4.48154    0.97566
  0   226     -4.37959    0.51148
  0   227     -4.32263    0.32553

  1   224     -4.52817    1.20581
  1   225     -4.39968    0.59161
  1   226     -3.99318    0.01432
  1   227     -3.93966    0.00841


Fermi level: -4.48641

No gap

Forces in eV/Ang:
  0 Cd   -0.00615    0.00210   -0.22769
  1 Cd    0.02698    0.02696    0.24062
  2 Cd    0.00573    0.02228   -0.00089
  3 Cd   -0.00592    0.10722    0.15503
  4 Cd   -0.01885    0.01367   -0.25825
  5 Cd    0.01866    0.00668    0.23323
  6 Cd    0.00314   -0.00870   -0.03019
  7 Cd    0.01777    0.01126   -0.00440
  8 Cd   -0.00536   -0.04490   -0.22778
  9 Cd    0.00211   -0.01530    0.17259
 10 Cd    0.00453   -0.00943   -0.03714
 11 Cd   -0.00359   -0.02040   -0.03715
 12 Cd    0.02644    0.02306   -0.22846
 13 Cd   -0.01753    0.00866    0.23149
 14 Cd    0.00023    0.00660    0.04659
 15 Cd   -0.01403    0.11720    0.17102
 16 Cd    0.01189    0.01777   -0.21893
 17 Cd   -0.00012   -0.00442    0.24672
 18 Cd   -0.02576   -0.03924   -0.02390
 19 Cd    0.01438   -0.02334    0.50288
 20 Cd    0.01298   -0.01832   -0.24458
 21 Cd    0.00284   -0.02053    0.23555
 22 Cd    0.00353   -0.00396   -0.02957
 23 Cd   -0.10047    0.14134    0.07564
 24 Cd   -0.02164    0.01022   -0.24615
 25 Cd   -0.01562   -0.01172    0.22116
 26 Cd    0.00056    0.01675   -0.00619
 27 Cd    0.00546    0.02878    0.04851
 28 Cd    0.00947   -0.00133   -0.23377
 29 Cd   -0.01896    0.00809    0.24091
 30 Cd    0.03472   -0.03716   -0.03004
 31 Cd   -0.01985    0.00641   -0.02633
 32 Cd   -0.00462   -0.01564   -0.22157
 33 Cd   -0.01155   -0.03741    0.24880
 34 Cd    0.00100    0.16962   -0.21434
 35 Cd    0.10015    0.14715    0.04884
 36 H    -0.01770   -0.01520   -0.01310
 37 O     0.01704   -0.07645    0.37040
 38 C     0.11619   -0.07976    0.00391
 39 C    -0.17585   -0.10408   -0.60435
 40 O     0.03285   -0.29685   -0.22530

BFGS:    7 02:57:33    -5512.310957        0.6380
System changes: positions 

Initializing position-dependent things.

Density initialized from wave functions
                                                 
                                                 
                                                 
                                                 
                                                 
                                                 
                          O                      
                         H                       
                Cd      CdC     Cd               
                         O                       
                  Cd       Cd     Cd             
                                                 
            Cd      CCd     CCd     Cd           
                                                 
              Cd      Cd      Cd                 
                                                 
               CCd     CCd     CCd               
                                                 
                 Cd      Cd      Cd              
                   Cd      Cd      Cd            
           Cd      Cd     Cd                     
             Cd      Cd     Cd                   
                                                 
               Cd      Cd      Cd                
                                                 
                                                 
                                                 
                                                 

Positions:
   0 Cd     0.000000    0.000000   10.000000    ( 0.0000,  0.0000,  0.0000)
   1 Cd     1.600874    0.924265   12.614217    ( 0.0000,  0.0000,  0.0000)
   2 Cd     0.000956    1.864858   15.311800    ( 0.0000,  0.0000,  0.0000)
   3 Cd     1.538921    2.795835   18.068741    ( 0.0000,  0.0000,  0.0000)
   4 Cd    -1.600874    2.772795   10.000000    ( 0.0000,  0.0000,  0.0000)
   5 Cd    -0.000000    3.697060   12.614217    ( 0.0000,  0.0000,  0.0000)
   6 Cd    -1.600370    4.613600   15.284289    ( 0.0000,  0.0000,  0.0000)
   7 Cd    -0.019860    5.555734   18.053365    ( 0.0000,  0.0000,  0.0000)
   8 Cd    -3.201748    5.545591   10.000000    ( 0.0000,  0.0000,  0.0000)
   9 Cd    -1.600874    6.469856   12.614217    ( 0.0000,  0.0000,  0.0000)
  10 Cd    -3.198922    7.388224   15.284432    ( 0.0000,  0.0000,  0.0000)
  11 Cd    -1.598013    8.298145   18.042143    ( 0.0000,  0.0000,  0.0000)
  12 Cd     3.201748    0.000000   10.000000    ( 0.0000,  0.0000,  0.0000)
  13 Cd     4.802622    0.924265   12.614217    ( 0.0000,  0.0000,  0.0000)
  14 Cd     3.205424    1.853723   15.338583    ( 0.0000,  0.0000,  0.0000)
  15 Cd     4.881602    2.792663   18.049299    ( 0.0000,  0.0000,  0.0000)
[...]
  28 Cd     4.802622    2.772795   10.000000    ( 0.0000,  0.0000,  0.0000)
  29 Cd     6.403497    3.697060   12.614217    ( 0.0000,  0.0000,  0.0000)
  30 Cd     4.791374    4.611049   15.345356    ( 0.0000,  0.0000,  0.0000)
  31 Cd     6.407163    5.570079   18.029518    ( 0.0000,  0.0000,  0.0000)
  32 Cd     3.201748    5.545591   10.000000    ( 0.0000,  0.0000,  0.0000)
  33 Cd     4.802622    6.469856   12.614217    ( 0.0000,  0.0000,  0.0000)
  34 Cd     3.210934    7.462563   15.299965    ( 0.0000,  0.0000,  0.0000)
  35 Cd     4.856631    8.435139   18.114137    ( 0.0000,  0.0000,  0.0000)
  36 H      3.237873    3.103385   21.558867    ( 0.0000,  0.0000,  0.0000)
  37 O      3.266123    2.497533   20.797869    ( 0.0000,  0.0000,  0.0000)
  38 C      3.230048    3.272982   19.636592    ( 0.0000,  0.0000,  0.0000)
  39 C      3.197793    4.707881   19.870597    ( 0.0000,  0.0000,  0.0000)
  40 O      3.177504    5.258441   20.963909    ( 0.0000,  0.0000,  0.0000)

Unit cell:
           periodic     x           y           z      points  spacing
  1. axis:    yes    9.605245    0.000000    0.000000    48     0.1733
  2. axis:    yes   -4.802622    8.318386    0.000000    48     0.1733
  3. axis:    no     0.000000    0.000000   27.842650   156     0.1785

  Lengths:   9.605245   9.605245  27.842650
  Angles:   90.000000  90.000000 120.000000

Effective grid spacing dv^(1/3) = 0.1836

     iter     time        total  log10-change:
                         energy  eigst   dens
iter:   1 05:25:10 -5512.542647  -3.63
iter:   2 05:25:38 -5512.540913  -4.48  -3.31
iter:   3 05:26:07 -5512.540521c -5.16  -3.54
iter:   4 05:26:36 -5512.540274c -5.31  -3.82
iter:   5 05:27:04 -5512.540200c -5.34  -3.99
iter:   6 05:27:33 -5512.540177c -5.70  -4.26c
iter:   7 05:28:01 -5512.540202c -6.17  -4.31c
iter:   8 05:28:30 -5512.540202c -6.71  -4.49c
iter:   9 05:28:58 -5512.540184c -6.84  -4.57c
iter:  10 05:29:27 -5512.540189c -7.49c -4.90c

Converged after 10 iterations.

Dipole moment: (-10.152349, -18.212741, -0.477531) |e|*Ang

Energy contributions relative to reference atoms: (reference = -5484381.711107)

Kinetic:       +1074.402062
Potential:     -973.633769
External:        +0.000000
XC:            -5617.508094
Entropy (-ST):   -0.505331
Local:           +4.452278
--------------------------
Free energy:   -5512.792855
Extrapolated:  -5512.540189

Showing only first 2 kpts
 Kpt  Band  Eigenvalues  Occupancy
  0   224     -4.82667    1.87744
  0   225     -4.55493    1.00588
  0   226     -4.42734    0.44050
  0   227     -4.35566    0.24243

  1   224     -4.57474    1.10454
  1   225     -4.44799    0.51552
  1   226     -4.02072    0.00964
  1   227     -3.96933    0.00578


Fermi level: -4.55376

No gap

Forces in eV/Ang:
  0 Cd   -0.00737    0.00394   -0.23437
  1 Cd    0.04366    0.06127    0.25418
  2 Cd   -0.00172   -0.00729    0.00898
  3 Cd    0.01482   -0.00447   -0.01610
  4 Cd   -0.02168    0.01410   -0.26280
  5 Cd    0.04672   -0.00009    0.23767
  6 Cd    0.00316    0.01120   -0.00211
  7 Cd    0.00114    0.00674    0.00388
  8 Cd   -0.00847   -0.04740   -0.22622
  9 Cd    0.02122   -0.01951    0.14180
 10 Cd    0.00796    0.01722   -0.00162
 11 Cd    0.00153    0.00608   -0.00913
 12 Cd    0.02550    0.03105   -0.22465
 13 Cd   -0.03129    0.04007    0.24777
 14 Cd    0.00527   -0.00643   -0.01370
 15 Cd   -0.00969   -0.00596   -0.00679
 16 Cd    0.01295    0.01446   -0.22413
 17 Cd    0.00119   -0.01419    0.27154
 18 Cd    0.00777    0.01143    0.01504
 19 Cd    0.00876    0.00167    0.03980
 20 Cd    0.01514   -0.01922   -0.24732
 21 Cd    0.02434   -0.04418    0.24272
 22 Cd    0.00935    0.00645   -0.00785
 23 Cd   -0.00698    0.00762    0.01788
 24 Cd   -0.02073    0.01292   -0.24861
 25 Cd   -0.01626    0.00809    0.22440
 26 Cd    0.00029   -0.00191    0.01086
 27 Cd    0.00504   -0.01138    0.01185
 28 Cd    0.00867   -0.00306   -0.23354
 29 Cd   -0.04290   -0.00293    0.24521
 30 Cd    0.00061    0.00605    0.00739
 31 Cd   -0.00409    0.00698   -0.00795
 32 Cd   -0.00478   -0.01352   -0.22341
 33 Cd   -0.04251   -0.06275    0.24314
 34 Cd   -0.00499   -0.00592   -0.01437
 35 Cd    0.02288    0.02315    0.00275
 36 H     0.00189   -0.03109    0.04396
 37 O     0.02304    0.00201   -0.01962
 38 C    -0.03277   -0.00911   -0.00198
 39 C     0.03716   -0.00480    0.03031
 40 O    -0.03586   -0.01156    0.01452

BFGS:   28 05:29:39    -5512.540189        0.0539
System changes: positions 

Initializing position-dependent things.

Density initialized from wave functions
                                                 
                                                 
                                                 
                                                 
                                                 
                                                 
                                                 
                         HO                      
                Cd      OdC     Cd               
                         C                       
                   Cd      Cd     Cd             
                    Cd              Cd           
            Cd      Cd      CCd                  
                                                 
              Cd      Cd      Cd                 
                        Cd                       
               CCd     Cd      CCd               
                                                 
                 Cd      Cd      Cd              
                   Cd      Cd      Cd            
           Cd      Cd     Cd                     
             Cd      Cd     Cd                   
                                                 
               Cd      Cd      Cd                
                                                 
                                                 
                                                 
                                                 

Positions:
   0 Cd     0.000000    0.000000   10.000000    ( 0.0000,  0.0000,  0.0000)
   1 Cd     1.600874    0.924265   12.614217    ( 0.0000,  0.0000,  0.0000)
   2 Cd     0.013596    1.884674   15.332039    ( 0.0000,  0.0000,  0.0000)
   3 Cd     1.478939    2.792947   18.183819    ( 0.0000,  0.0000,  0.0000)
   4 Cd    -1.600874    2.772795   10.000000    ( 0.0000,  0.0000,  0.0000)
   5 Cd    -0.000000    3.697060   12.614217    ( 0.0000,  0.0000,  0.0000)
   6 Cd    -1.586587    4.598760   15.264772    ( 0.0000,  0.0000,  0.0000)
   7 Cd    -0.003871    5.574891   18.038795    ( 0.0000,  0.0000,  0.0000)
   8 Cd    -3.201748    5.545591   10.000000    ( 0.0000,  0.0000,  0.0000)
   9 Cd    -1.600874    6.469856   12.614217    ( 0.0000,  0.0000,  0.0000)
  10 Cd    -3.193447    7.372763   15.229253    ( 0.0000,  0.0000,  0.0000)
  11 Cd    -1.601793    8.290713   18.028233    ( 0.0000,  0.0000,  0.0000)
  12 Cd     3.201748    0.000000   10.000000    ( 0.0000,  0.0000,  0.0000)
  13 Cd     4.802622    0.924265   12.614217    ( 0.0000,  0.0000,  0.0000)
  14 Cd     3.204401    1.852895   15.393842    ( 0.0000,  0.0000,  0.0000)
  15 Cd     4.938576    2.794186   18.142775    ( 0.0000,  0.0000,  0.0000)
  16 Cd     1.600874    2.772795   10.000000    ( 0.0000,  0.0000,  0.0000)
  17 Cd     3.201748    3.697060   12.614217    ( 0.0000,  0.0000,  0.0000)
  18 Cd     1.624886    4.608326   15.364106    ( 0.0000,  0.0000,  0.0000)
  19 Cd     3.204542    5.914730   17.912878    ( 0.0000,  0.0000,  0.0000)
  20 Cd     0.000000    5.545591   10.000000    ( 0.0000,  0.0000,  0.0000)
  21 Cd     1.600874    6.469856   12.614217    ( 0.0000,  0.0000,  0.0000)
  22 Cd     0.031080    7.393667   15.266249    ( 0.0000,  0.0000,  0.0000)
  23 Cd     1.549104    8.431317   18.139194    ( 0.0000,  0.0000,  0.0000)
  24 Cd     6.403497    0.000000   10.000000    ( 0.0000,  0.0000,  0.0000)
  25 Cd     8.004371    0.924265   12.614217    ( 0.0000,  0.0000,  0.0000)
  26 Cd     6.397079    1.885326   15.334041    ( 0.0000,  0.0000,  0.0000)
  27 Cd     8.009637    2.866688   18.178255    ( 0.0000,  0.0000,  0.0000)
  28 Cd     4.802622    2.772795   10.000000    ( 0.0000,  0.0000,  0.0000)
  29 Cd     6.403497    3.697060   12.614217    ( 0.0000,  0.0000,  0.0000)
  30 Cd     4.792408    4.610285   15.345333    ( 0.0000,  0.0000,  0.0000)
  31 Cd     6.407600    5.570031   18.029498    ( 0.0000,  0.0000,  0.0000)
  32 Cd     3.201748    5.545591   10.000000    ( 0.0000,  0.0000,  0.0000)
  33 Cd     4.802622    6.469856   12.614217    ( 0.0000,  0.0000,  0.0000)
  34 Cd     3.210917    7.463948   15.299885    ( 0.0000,  0.0000,  0.0000)
  35 Cd     4.857004    8.435057   18.114065    ( 0.0000,  0.0000,  0.0000)
  36 H      3.238113    3.100954   21.561172    ( 0.0000,  0.0000,  0.0000)
  37 O      3.266710    2.497240   20.797530    ( 0.0000,  0.0000,  0.0000)
  38 C      3.229060    3.273160   19.637791    ( 0.0000,  0.0000,  0.0000)
  39 C      3.198489    4.707948   19.871240    ( 0.0000,  0.0000,  0.0000)
  40 O      3.176369    5.258122   20.964563    ( 0.0000,  0.0000,  0.0000)

Unit cell:
           periodic     x           y           z      points  spacing
  1. axis:    yes    9.605245    0.000000    0.000000    48     0.1733
  2. axis:    yes   -4.802622    8.318386    0.000000    48     0.1733
  3. axis:    no     0.000000    0.000000   27.842650   156     0.1785

  Lengths:   9.605245   9.605245  27.842650
  Angles:   90.000000  90.000000 120.000000

Effective grid spacing dv^(1/3) = 0.1836

     iter     time        total  log10-change:
                         energy  eigst   dens
iter:   1 05:30:37 -5512.540808  -4.21
iter:   2 05:31:06 -5512.540683  -5.12  -3.81
iter:   3 05:31:35 -5512.540645c -5.74  -3.93
iter:   4 05:32:03 -5512.540542c -5.43  -4.06c
iter:   5 05:32:32 -5512.540548c -6.54  -4.38c
iter:   6 05:33:00 -5512.540549c -6.38  -4.53c
iter:   7 05:33:29 -5512.540540c -6.49  -4.63c
iter:   8 05:33:57 -5512.540543c -7.22  -4.74c
iter:   9 05:34:26 -5512.540542c -7.54c -5.03c

Converged after 9 iterations.

Dipole moment: (-10.224641, -18.133390, -0.474799) |e|*Ang

Energy contributions relative to reference atoms: (reference = -5484381.711107)

Kinetic:       +1074.396915
Potential:     -973.633001
External:        +0.000000
XC:            -5617.504078
Entropy (-ST):   -0.505271
Local:           +4.452257
--------------------------
Free energy:   -5512.793177
Extrapolated:  -5512.540542

Showing only first 2 kpts
 Kpt  Band  Eigenvalues  Occupancy
  0   224     -4.82434    1.87679
  0   225     -4.55333    1.00665
  0   226     -4.42564    0.44074
  0   227     -4.35401    0.24268

  1   224     -4.57331    1.10616
  1   225     -4.44586    0.51409
  1   226     -4.01892    0.00963
  1   227     -3.96751    0.00577


Fermi level: -4.55200

No gap

Forces in eV/Ang:
  0 Cd   -0.00780    0.00392   -0.23459
  1 Cd    0.04296    0.06118    0.25270
  2 Cd   -0.00039   -0.00503    0.01069
  3 Cd    0.01156   -0.00461   -0.01652
  4 Cd   -0.02170    0.01397   -0.26329
  5 Cd    0.04702    0.00047    0.23733
  6 Cd    0.00343    0.01070   -0.00123
  7 Cd    0.00322    0.00635    0.00245
  8 Cd   -0.00846   -0.04747   -0.22632
  9 Cd    0.02136   -0.02017    0.14099
 10 Cd    0.00693    0.01558   -0.00058
 11 Cd    0.00155    0.00736   -0.00823
 12 Cd    0.02555    0.03080   -0.22522
 13 Cd   -0.03047    0.03993    0.24629
 14 Cd    0.00496   -0.00451   -0.00713
 15 Cd   -0.01028   -0.00568   -0.00601
 16 Cd    0.01253    0.01457   -0.22483
 17 Cd    0.00111   -0.01256    0.27174
 18 Cd    0.01291    0.01391    0.01661
 19 Cd    0.00983   -0.00692    0.04619
 20 Cd    0.01512   -0.01929   -0.24741
 21 Cd    0.02484   -0.04492    0.24206
 22 Cd    0.00976    0.00527   -0.00725
 23 Cd   -0.00876    0.01196    0.01853
 24 Cd   -0.02036    0.01293   -0.24877
 25 Cd   -0.01637    0.00762    0.22240
 26 Cd   -0.00067   -0.00023    0.01309
 27 Cd    0.00501   -0.01083    0.01170
 28 Cd    0.00909   -0.00301   -0.23416
 29 Cd   -0.04308   -0.00248    0.24464
 30 Cd   -0.00343    0.00890    0.00905
 31 Cd   -0.00595    0.00628   -0.00774
 32 Cd   -0.00482   -0.01320   -0.22309
 33 Cd   -0.04302   -0.06333    0.24305
 34 Cd   -0.00421   -0.01146   -0.01347
 35 Cd    0.02412    0.02543    0.00293
 36 H     0.00256   -0.04470    0.00829
 37 O     0.01881    0.00599    0.02504
 38 C    -0.01912   -0.00649   -0.02538
 39 C     0.02505   -0.00257    0.02435
 40 O    -0.02592   -0.00231    0.02072

BFGS:   29 05:34:38    -5512.540542        0.0477
Timing:                                      incl.     excl.
-------------------------------------------------------------------
Density initialized from wave functions:    14.425    14.424   0.1% |
 Symmetrize density:                         0.001     0.001   0.0% |
Forces:                                    348.073   348.073   2.4% ||
Hamiltonian:                               122.777     0.004   0.0% |
 Atomic:                                     3.341     0.019   0.0% |
  XC Correction:                             3.322     3.322   0.0% |
 Calculate atomic Hamiltonians:              0.945     0.945   0.0% |
 Communicate:                                0.237     0.237   0.0% |
 Hartree integrate/restrict:                 0.400     0.400   0.0% |
 Initialize Hamiltonian:                     0.000     0.000   0.0% |
 Poisson:                                    6.674     0.274   0.0% |
  Communicate from 1D:                       0.585     0.585   0.0% |
  Communicate from 2D:                       1.065     1.065   0.0% |
  Communicate to 1D:                         0.286     0.286   0.0% |
  Communicate to 2D:                         1.285     1.285   0.0% |
  FFT 1D:                                    1.453     1.453   0.0% |
  FFT 2D:                                    1.727     1.727   0.0% |
 XC 3D grid:                               111.088    27.724   0.2% |
  VdW-DF integral:                          83.364     1.111   0.0% |
   Convolution:                             11.588    11.588   0.1% |
   FFT:                                      6.351     6.351   0.0% |
   gather:                                  22.680    22.680   0.2% |
   hmm1:                                     1.690     1.690   0.0% |
   hmm2:                                     3.702     3.702   0.0% |
   iFFT:                                     6.566     6.566   0.0% |
   potential:                               25.887     0.649   0.0% |
    collect:                                 2.580     2.580   0.0% |
    p1:                                     15.342    15.342   0.1% |
    p2:                                      5.436     5.436   0.0% |
    sum:                                     1.880     1.880   0.0% |
   splines:                                  3.789     3.789   0.0% |
 vbar:                                       0.087     0.087   0.0% |
LCAO initialization:                        22.946     1.549   0.0% |
 LCAO eigensolver:                          10.577     0.003   0.0% |
  Calculate projections:                     0.000     0.000   0.0% |
  DenseAtomicCorrection:                     0.000     0.000   0.0% |
  Distribute overlap matrix:                10.124    10.124   0.1% |
  Orbital Layouts:                           0.351     0.351   0.0% |
  Potential matrix:                          0.024     0.024   0.0% |
  Sum over cells:                            0.076     0.076   0.0% |
 LCAO to grid:                               9.794     9.794   0.1% |
 Set positions (LCAO WFS):                   1.026     0.776   0.0% |
  Basic WFS set positions:                   0.001     0.001   0.0% |
  Basis functions set positions:             0.000     0.000   0.0% |
  P tci:                                     0.000     0.000   0.0% |
  ST tci:                                    0.190     0.190   0.0% |
  mktci:                                     0.059     0.059   0.0% |
Redistribute:                                0.014     0.014   0.0% |
SCF-cycle:                               13140.386    63.650   0.4% |
 Davidson:                               11257.994  3137.638  21.7% |--------|
  Apply hamiltonian:                       375.408   375.408   2.6% ||
  Subspace diag:                          1490.635     0.052   0.0% |
   calc_h_matrix:                          756.579   381.295   2.6% ||
    Apply hamiltonian:                     375.284   375.284   2.6% ||
   diagonalize:                              9.823     9.823   0.1% |
   rotate_psi:                             724.181   724.181   5.0% |-|
  calc. matrices:                         4743.977  2431.302  16.9% |------|
   Apply hamiltonian:                     2312.675  2312.675  16.0% |-----|
  diagonalize:                             108.055   108.055   0.7% |
  rotate_psi:                             1402.281  1402.281   9.7% |---|
 Density:                                   33.686     0.009   0.0% |
  Atomic density matrices:                   1.772     1.772   0.0% |
  Mix:                                       8.701     8.701   0.1% |
  Multipole moments:                         0.144     0.144   0.0% |
  Pseudo density:                           23.060    23.050   0.2% |
   Symmetrize density:                       0.011     0.011   0.0% |
 Hamiltonian:                             1699.410     0.049   0.0% |
  Atomic:                                   47.883     0.263   0.0% |
   XC Correction:                           47.621    47.621   0.3% |
  Calculate atomic Hamiltonians:            13.274    13.274   0.1% |
  Communicate:                               2.798     2.798   0.0% |
  Hartree integrate/restrict:                5.745     5.745   0.0% |
  Poisson:                                  95.594     3.837   0.0% |
   Communicate from 1D:                      8.523     8.523   0.1% |
   Communicate from 2D:                     15.312    15.312   0.1% |
   Communicate to 1D:                        4.072     4.072   0.0% |
   Communicate to 2D:                       18.401    18.401   0.1% |
   FFT 1D:                                  20.767    20.767   0.1% |
   FFT 2D:                                  24.681    24.681   0.2% |
  XC 3D grid:                             1533.015   393.307   2.7% ||
   VdW-DF integral:                       1139.708    15.856   0.1% |
    Convolution:                           165.485   165.485   1.1% |
    FFT:                                    91.465    91.465   0.6% |
    gather:                                323.766   323.766   2.2% ||
    hmm1:                                   24.073    24.073   0.2% |
    hmm2:                                   52.902    52.902   0.4% |
    iFFT:                                   94.218    94.218   0.7% |
    potential:                             371.938     9.251   0.1% |
     collect:                               37.012    37.012   0.3% |
     p1:                                   219.973   219.973   1.5% ||
     p2:                                    76.956    76.956   0.5% |
     sum:                                   28.747    28.747   0.2% |
    splines:                                 0.003     0.003   0.0% |
  vbar:                                      1.051     1.051   0.0% |
 Orthonormalize:                            85.646     0.005   0.0% |
  calc_s_matrix:                            10.452    10.452   0.1% |
  inverse-cholesky:                         51.281    51.281   0.4% |
  projections:                               0.001     0.001   0.0% |
  rotate_psi_s:                             23.907    23.907   0.2% |
Set symmetry:                                0.001     0.001   0.0% |
Other:                                     779.904   779.904   5.4% |-|
-------------------------------------------------------------------
Total:                                             14428.526 100.0%

Memory usage: 1.89 GiB
Date: Fri Sep 29 05:34:38 2023
