
  ___ ___ ___ _ _ _  
 |   |   |_  | | | | 
 | | | | | . | | | | 
 |__ |  _|___|_____|  22.8.0
 |___|_|             

User:   s204775@c003.nifl.fysik.dtu.dk
Date:   Fri Sep 29 01:34:41 2023
Arch:   x86_64
Pid:    102484
CWD:    /home/cat/s204775/projects/Bachelor_project/OCCOH_missing_features
Python: 3.10.4
gpaw:   /home/modules/software/GPAW/22.8.0-intel-2022a/lib/python3.10/site-packages/gpaw
_gpaw:  /home/modules/software/GPAW/22.8.0-intel-2022a/lib/python3.10/site-packages/
        _gpaw.cpython-310-x86_64-linux-gnu.so
ase:    /home/modules/software/ASE/3.22.1-intel-2022a/lib/python3.10/site-packages/ase (version 3.22.1)
numpy:  /home/modules/software/SciPy-bundle/2022.05-intel-2022a/lib/python3.10/site-packages/numpy (version 1.22.3)
scipy:  /home/modules/software/SciPy-bundle/2022.05-intel-2022a/lib/python3.10/site-packages/scipy (version 1.8.1)
libxc:  5.2.3
units:  Angstrom and eV
cores: 40
OpenMP: False
OMP_NUM_THREADS: 1

Input parameters:
  basis: dzp
  h: 0.18
  kpts: {size: (4, 4, 1)}
  xc: BEEF-vdW

System changes: positions, numbers, cell, pbc, initial_charges, initial_magmoms 

Initialize ...

species:
  Cu:
    name: Copper
    id: f1c4d45d90492f1bbfdcb091e8418fdf
    Z: 29.0
    valence: 11
    core: 18
    charge: 0.0
    file: /home/modules/software/GPAW-setups/0.9.20000/Cu.PBE.gz
    compensation charges: {type: gauss,
                           rc: 0.33,
                           lmax: 2}
    cutoffs: {filter: 2.06,
              core: 2.43}
    valence states:
      #              energy  rcut
      - 4s(1.00)    -4.609   1.164
      - 4p(0.00)    -0.698   1.164
      - 3d(10.00)    -5.039   1.058
      -  s          22.603   1.164
      -  p          26.513   1.164
      -  d          22.172   1.058
  
    # LCAO basis set for Cu:
    #   Name: dzp
    #   File: /home/modules/software/GPAW-setups/0.9.20000/Cu.dzp.basis.gz
    #   Number of radial functions: 5
    #   Number of spherical harmonics: 15
    #     l=0, rc=8.9688 Bohr: 4s-sz confined orbital
    #     l=2, rc=5.1719 Bohr: 3d-sz confined orbital
    #     l=0, rc=5.3281 Bohr: 4s-dz split-valence wave
    #     l=2, rc=3.1406 Bohr: 3d-dz split-valence wave
    #     l=1, rc=8.9688 Bohr: p-type Gaussian polarization
    #   Number of RI-basis functions 0

  H:
    name: Hydrogen
    id: d65de229564ff8ea4db303e23b6d1ecf
    Z: 1.0
    valence: 1
    core: 0
    charge: 0.0
    file: /home/modules/software/GPAW-setups/0.9.20000/H.PBE.gz
    compensation charges: {type: gauss,
                           rc: 0.15,
                           lmax: 2}
    cutoffs: {filter: 0.85,
              core: 0.53}
    valence states:
      #              energy  rcut
      - 1s(1.00)    -6.494   0.476
      -  s          20.717   0.476
      -  p           0.000   0.476
  
    # LCAO basis set for H:
    #   Name: dzp
    #   File: /home/modules/software/GPAW-setups/0.9.20000/H.dzp.basis.gz
    #   Number of radial functions: 3
    #   Number of spherical harmonics: 5
    #     l=0, rc=6.4219 Bohr: 1s-sz confined orbital
    #     l=0, rc=3.6094 Bohr: 1s-dz split-valence wave
    #     l=1, rc=6.4219 Bohr: p-type Gaussian polarization
    #   Number of RI-basis functions 0

  O:
    name: Oxygen
    id: 32ecd46bf208036f09c70b0ec9a88b78
    Z: 8.0
    valence: 6
    core: 2
    charge: 0.0
    file: /home/modules/software/GPAW-setups/0.9.20000/O.PBE.gz
    compensation charges: {type: gauss,
                           rc: 0.21,
                           lmax: 2}
    cutoffs: {filter: 1.17,
              core: 0.83}
    valence states:
      #              energy  rcut
      - 2s(2.00)   -23.961   0.688
      - 2p(4.00)    -9.029   0.598
      -  s           3.251   0.688
      -  p          18.182   0.598
      -  d           0.000   0.619
  
    # LCAO basis set for O:
    #   Name: dzp
    #   File: /home/modules/software/GPAW-setups/0.9.20000/O.dzp.basis.gz
    #   Number of radial functions: 5
    #   Number of spherical harmonics: 13
    #     l=0, rc=4.3438 Bohr: 2s-sz confined orbital
    #     l=1, rc=5.3906 Bohr: 2p-sz confined orbital
    #     l=0, rc=2.2969 Bohr: 2s-dz split-valence wave
    #     l=1, rc=2.8906 Bohr: 2p-dz split-valence wave
    #     l=2, rc=5.3906 Bohr: d-type Gaussian polarization
    #   Number of RI-basis functions 0

  C:
    name: Carbon
    id: 4aa54d4b901d75f77cc0ea3eec22967b
    Z: 6.0
    valence: 4
    core: 2
    charge: 0.0
    file: /home/modules/software/GPAW-setups/0.9.20000/C.PBE.gz
    compensation charges: {type: gauss,
                           rc: 0.20,
                           lmax: 2}
    cutoffs: {filter: 1.14,
              core: 1.14}
    valence states:
      #              energy  rcut
      - 2s(2.00)   -13.751   0.635
      - 2p(2.00)    -5.284   0.635
      -  s          13.461   0.635
      -  p          21.927   0.635
      -  d           0.000   0.635
  
    # LCAO basis set for C:
    #   Name: dzp
    #   File: /home/modules/software/GPAW-setups/0.9.20000/C.dzp.basis.gz
    #   Number of radial functions: 5
    #   Number of spherical harmonics: 13
    #     l=0, rc=5.5469 Bohr: 2s-sz confined orbital
    #     l=1, rc=6.6719 Bohr: 2p-sz confined orbital
    #     l=0, rc=3.0312 Bohr: 2s-dz split-valence wave
    #     l=1, rc=3.7500 Bohr: 2p-dz split-valence wave
    #     l=2, rc=6.6719 Bohr: d-type Gaussian polarization
    #   Number of RI-basis functions 0

Reference energy: -1626921.717276  # eV

Spin-paired calculation

Convergence criteria:
 Maximum [total energy] change in last 3 cyles: 0.0005 eV / electron
 Maximum integral of absolute [dens]ity change: 0.0001 electrons / valence electron
 Maximum integral of absolute [eigenst]ate change: 4e-08 eV^2 / valence electron
 Maximum number of scf [iter]ations: 333
 (Square brackets indicate name in SCF output, whereas a 'c' in
 the SCF output indicates the quantity has converged.)

Symmetries present (total): 1

  ( 1  0  0)
  ( 0  1  0)
  ( 0  0  1)

16 k-points: 4 x 4 x 1 Monkhorst-Pack grid
8 k-points in the irreducible part of the Brillouin zone
       k-points in crystal coordinates                weights
   0:     0.12500000   -0.37500000    0.00000000          2/16
   1:     0.12500000   -0.12500000    0.00000000          2/16
   2:     0.12500000    0.12500000    0.00000000          2/16
   3:     0.12500000    0.37500000    0.00000000          2/16
   4:     0.37500000   -0.37500000    0.00000000          2/16
   5:     0.37500000   -0.12500000    0.00000000          2/16
   6:     0.37500000    0.12500000    0.00000000          2/16
   7:     0.37500000    0.37500000    0.00000000          2/16

Wave functions: Uniform real-space grid
  Kinetic energy operator: 8*3+1=25 point O(h^6) finite-difference Laplacian
  ScaLapack parameters: grid=1x1, blocksize=None
  Wavefunction extrapolation:
    Improved wavefunction reuse through dual PAW basis 

Occupation numbers: Fermi-Dirac:
  width: 0.1000  # eV
 

Eigensolver
   Davidson(niter=2) 

Densities:
  Coarse grid: 36*36*148 grid
  Fine grid: 72*72*296 grid
  Total Charge: 0.000000 

Density mixing:
  Method: separate
  Backend: pulay
  Linear mixing parameter: 0.05
  old densities: 5
  Damping of long wavelength oscillations: 50 

Hamiltonian:
  XC and Coulomb potentials evaluated on a 72*72*296 grid
  Using the BEEF-vdW Exchange-Correlation functional
  Interpolation: tri-quintic (5. degree polynomial)
  Poisson solver: FastPoissonSolver using
    Stencil: 8*3+1=25 point O(h^6) finite-difference Laplacian
    FFT axes: [0, 1]
    FST axes: [2]
 

XC parameters: BEEF-vdW with 2 nearest neighbor stencil

Memory estimate:
  Process memory now: 206.99 MiB
  Calculator: 358.31 MiB
    Density: 40.26 MiB
      Arrays: 7.57 MiB
      Localized functions: 29.82 MiB
      Mixer: 2.87 MiB
    Hamiltonian: 7.20 MiB
      Arrays: 4.95 MiB
      XC: 0.00 MiB
      Poisson: 0.00 MiB
      vbar: 2.25 MiB
    Wavefunctions: 310.84 MiB
      Arrays psit_nG: 146.24 MiB
      Eigensolver: 159.04 MiB
      Projections: 0.55 MiB
      Projectors: 5.02 MiB

Total number of cores used: 40
Parallelization over k-points: 8
Domain decomposition: 1 x 1 x 5

Number of atoms: 41
Number of atomic orbitals: 597
Number of bands in calculation: 255
Number of valence electrons: 417
Bands to converge: occupied

... initialized

Initializing position-dependent things.

Density initialized from atomic densities
Creating initial wave functions:
  255 bands from LCAO basis set

                                           
                                           
                                           
                                           
                                           
                                           
                                           
                   O                       
                 H                         
           Cu    OC    Cu                  
            Cu   C Cu    Cu                
            Cu    Cu    Cu                 
             CCu    Cu    CCu              
                                           
              CCu    Cu    CCu             
                Cu    Cu     Cu            
                                           
           Cu    CCu   CCu    Cu           
            Cu     Cu    Cu                
                                           
              Cu    Cu     Cu              
                                           
                                           
                                           
                                           

Positions:
   0 Cu     0.000000    0.000000    9.999999    ( 0.0000,  0.0000,  0.0000)
   1 Cu     1.303035    0.752307   12.127846    ( 0.0000,  0.0000,  0.0000)
   2 Cu    -0.000000    1.504615   14.261004    ( 0.0000,  0.0000,  0.0000)
   3 Cu     0.000000    0.000000   16.395505    ( 0.0000,  0.0000,  0.0000)
   4 Cu    -1.303035    2.256922    9.999999    ( 0.0000,  0.0000,  0.0000)
   5 Cu     0.000000    3.009230   12.127846    ( 0.0000,  0.0000,  0.0000)
   6 Cu    -1.303035    3.761537   14.261004    ( 0.0000,  0.0000,  0.0000)
   7 Cu    -1.303035    2.256922   16.395505    ( 0.0000,  0.0000,  0.0000)
   8 Cu    -2.606069    4.513845    9.999999    ( 0.0000,  0.0000,  0.0000)
   9 Cu    -1.303035    5.266152   12.127846    ( 0.0000,  0.0000,  0.0000)
  10 Cu    -2.606069    6.018460   14.261004    ( 0.0000,  0.0000,  0.0000)
  11 Cu    -2.606069    4.513845   16.395505    ( 0.0000,  0.0000,  0.0000)
  12 Cu     2.606069    0.000000    9.999999    ( 0.0000,  0.0000,  0.0000)
  13 Cu     3.909104    0.752307   12.127846    ( 0.0000,  0.0000,  0.0000)
  14 Cu     2.606069    1.504615   14.261004    ( 0.0000,  0.0000,  0.0000)
  15 Cu     2.606069   -0.000000   16.395505    ( 0.0000,  0.0000,  0.0000)
  16 Cu     1.303035    2.256922    9.999999    ( 0.0000,  0.0000,  0.0000)
  17 Cu     2.606069    3.009230   12.127846    ( 0.0000,  0.0000,  0.0000)
  18 Cu     1.303035    3.761537   14.261004    ( 0.0000,  0.0000,  0.0000)
  19 Cu     1.303035    2.256922   16.395505    ( 0.0000,  0.0000,  0.0000)
  20 Cu     0.000000    4.513845    9.999999    ( 0.0000,  0.0000,  0.0000)
  21 Cu     1.303035    5.266152   12.127846    ( 0.0000,  0.0000,  0.0000)
  22 Cu    -0.000000    6.018460   14.261004    ( 0.0000,  0.0000,  0.0000)
  23 Cu     0.000000    4.513845   16.395505    ( 0.0000,  0.0000,  0.0000)
  24 Cu     5.212139    0.000000    9.999999    ( 0.0000,  0.0000,  0.0000)
  25 Cu     6.515174    0.752307   12.127846    ( 0.0000,  0.0000,  0.0000)
  26 Cu     5.212139    1.504615   14.261004    ( 0.0000,  0.0000,  0.0000)
  27 Cu     5.212139   -0.000000   16.395505    ( 0.0000,  0.0000,  0.0000)
  28 Cu     3.909104    2.256922    9.999999    ( 0.0000,  0.0000,  0.0000)
  29 Cu     5.212139    3.009230   12.127846    ( 0.0000,  0.0000,  0.0000)
  30 Cu     3.909104    3.761537   14.261004    ( 0.0000,  0.0000,  0.0000)
  31 Cu     3.909104    2.256922   16.395505    ( 0.0000,  0.0000,  0.0000)
  32 Cu     2.606069    4.513845    9.999999    ( 0.0000,  0.0000,  0.0000)
  33 Cu     3.909104    5.266152   12.127846    ( 0.0000,  0.0000,  0.0000)
  34 Cu     2.606069    6.018460   14.261004    ( 0.0000,  0.0000,  0.0000)
  35 Cu     2.606069    4.513845   16.395505    ( 0.0000,  0.0000,  0.0000)
  36 H      1.367702   -0.305658   19.732750    ( 0.0000,  0.0000,  0.0000)
  37 O      1.345185   -0.671294   18.940677    ( 0.0000,  0.0000,  0.0000)
  38 C      1.348938    0.195161   17.941584    ( 0.0000,  0.0000,  0.0000)
  39 C      1.275624    1.691129   18.183691    ( 0.0000,  0.0000,  0.0000)
  40 O      1.328177    2.319677   19.467071    ( 0.0000,  0.0000,  0.0000)

Unit cell:
           periodic     x           y           z      points  spacing
  1. axis:    yes    7.818208    0.000000    0.000000    36     0.1881
  2. axis:    yes   -3.909104    6.770767    0.000000    36     0.1881
  3. axis:    no     0.000000    0.000000   26.383539   148     0.1783

  Lengths:   7.818208   7.818208  26.383539
  Angles:   90.000000  90.000000 120.000000

Effective grid spacing dv^(1/3) = 0.1938

     iter     time        total  log10-change:
                         energy  eigst   dens
iter:   1 01:35:24 -2874.745285
iter:   2 01:35:46 -2951.300266  +0.87  -1.00
iter:   3 01:36:09 -2826.373802  -0.10  -0.95
iter:   4 01:36:31 -2805.408288  -0.88  -1.24
iter:   5 01:36:54 -2802.123286  -1.00  -1.41
iter:   6 01:37:16 -2802.148427  -0.72  -1.50
iter:   7 01:37:38 -2801.490425  -1.77  -1.67
iter:   8 01:38:01 -2800.162342  -1.62  -1.67
iter:   9 01:38:23 -2800.433170  -1.54  -1.74
iter:  10 01:38:46 -2799.799596  -1.69  -1.94
iter:  11 01:39:08 -2800.021565  -1.66  -2.03
iter:  12 01:39:30 -2799.695086  -2.23  -2.25
iter:  13 01:39:53 -2799.612713  -2.96  -2.45
iter:  14 01:40:15 -2799.607939c -2.66  -2.55
iter:  15 01:40:38 -2799.612275c -2.98  -2.62
iter:  16 01:41:00 -2799.600214c -3.51  -2.59
iter:  17 01:41:22 -2799.577916c -3.36  -2.69
iter:  18 01:41:45 -2799.575290c -3.80  -2.91
iter:  19 01:42:07 -2799.570269c -3.37  -2.95
iter:  20 01:42:29 -2799.566611c -4.26  -3.15
iter:  21 01:42:52 -2799.565943c -3.89  -3.28
iter:  22 01:43:14 -2799.565028c -4.86  -3.67
iter:  23 01:43:37 -2799.564923c -5.54  -3.73
iter:  24 01:43:59 -2799.564938c -5.23  -3.77
iter:  25 01:44:21 -2799.564772c -5.64  -3.94
iter:  26 01:44:44 -2799.564716c -5.96  -4.06c
iter:  27 01:45:06 -2799.564704c -6.24  -4.18c
iter:  28 01:45:28 -2799.564771c -6.13  -4.39c
iter:  29 01:45:51 -2799.564755c -7.23  -4.60c
iter:  30 01:46:13 -2799.564750c -6.96  -4.67c
iter:  31 01:46:36 -2799.564757c -6.94  -4.74c
iter:  32 01:46:58 -2799.564788c -6.88  -4.76c
iter:  33 01:47:20 -2799.564781c -8.19c -4.89c

Converged after 33 iterations.

Dipole moment: (-2.736782, -9.829222, -0.386691) |e|*Ang

Energy contributions relative to reference atoms: (reference = -1626921.717276)

Kinetic:       +255.339723
Potential:     -297.183874
External:        +0.000000
XC:            -2760.580748
Entropy (-ST):   -0.427661
Local:           +3.073949
--------------------------
Free energy:   -2799.778612
Extrapolated:  -2799.564781

Showing only first 2 kpts
 Kpt  Band  Eigenvalues  Occupancy
  0   206     -5.72728    1.96074
  0   207     -5.48239    1.62370
  0   208     -5.35469    1.09227
  0   209     -5.32572    0.94770

  1   206     -6.09566    1.99899
  1   207     -5.94453    1.99545
  1   208     -5.76448    1.97277
  1   209     -5.56279    1.81204


Fermi level: -5.33619

No gap

Forces in eV/Ang:
  0 Cu    0.02849    0.02245   -0.05787
  1 Cu   -0.00648    0.01365   -0.07790
  2 Cu    0.05383   -0.02023   -0.09196
  3 Cu   -0.20420   -0.24355    0.08227
  4 Cu   -0.00026   -0.00050   -0.07407
  5 Cu   -0.02240    0.00164   -0.02711
  6 Cu    0.02158    0.03820    0.06238
  7 Cu   -0.06624    0.03333    0.04786
  8 Cu    0.00207    0.00380   -0.07263
  9 Cu   -0.00021   -0.01494   -0.03199
 10 Cu    0.00406    0.02666   -0.19127
 11 Cu   -0.00112   -0.21722   -0.08789
 12 Cu   -0.02369    0.01736   -0.06644
 13 Cu    0.00892    0.01113   -0.01341
 14 Cu   -0.04780   -0.01220   -0.07392
 15 Cu    0.34377   -0.24152   -0.08845
 16 Cu   -0.00256   -0.03156   -0.04488
 17 Cu    0.01391    0.00642   -0.02909
 18 Cu    0.00785   -0.06135   -0.04553
 19 Cu   -0.02485    1.11324   -0.83553
 20 Cu    0.01345    0.00824   -0.07211
 21 Cu    0.00276    0.01362   -0.03868
 22 Cu   -0.06545    0.01134    0.07346
 23 Cu    0.03253    0.02433   -0.02746
 24 Cu   -0.00585   -0.01043   -0.08556
 25 Cu   -0.01462    0.00114   -0.01816
 26 Cu    0.00330   -0.02401    0.04281
 27 Cu    0.00025   -0.02139   -0.03501
 28 Cu   -0.00221   -0.00737   -0.07213
 29 Cu   -0.00414    0.00438   -0.00815
 30 Cu   -0.01860    0.03767    0.06578
 31 Cu    0.07393    0.02053    0.01895
 32 Cu   -0.01662    0.00312   -0.05192
 33 Cu   -0.01558   -0.01261   -0.03696
 34 Cu    0.06660    0.00597    0.07017
 35 Cu   -0.02678    0.02882   -0.03697
 36 H     0.11513    3.08260    6.16848
 37 O    -0.06294   -3.73408   -4.97883
 38 C    -0.38962    2.34949   -0.13658
 39 C     0.60180    0.99145    6.55819
 40 O    -0.34028   -3.29234   -6.15792

      Step     Time          Energy         fmax
BFGS:    0 01:47:32    -2799.564781        6.9911
System changes: positions 

Initializing position-dependent things.

Density initialized from wave functions
                                           
                                           
                                           
                                           
                                           
                                           
                                           
                   O                       
                 HC                        
           Cu    Ou    Cu                  
            Cu   C Cu    Cu                
            Cu    Cu    Cu                 
             CCu    Cu    CCu              
                                           
              CCu    Cu    CCu             
                Cu    Cu     Cu            
                                           
           Cu    CCu   CCu    Cu           
            Cu     Cu    Cu                
                                           
              Cu    Cu     Cu              
                                           
                                           
                                           
                                           

Positions:
   0 Cu     0.000000    0.000000    9.999999    ( 0.0000,  0.0000,  0.0000)
   1 Cu     1.303035    0.752307   12.127846    ( 0.0000,  0.0000,  0.0000)
   2 Cu     0.000769    1.504326   14.259690    ( 0.0000,  0.0000,  0.0000)
   3 Cu    -0.002917   -0.003479   16.396680    ( 0.0000,  0.0000,  0.0000)
   4 Cu    -1.303035    2.256922    9.999999    ( 0.0000,  0.0000,  0.0000)
   5 Cu     0.000000    3.009230   12.127846    ( 0.0000,  0.0000,  0.0000)
   6 Cu    -1.302726    3.762083   14.261895    ( 0.0000,  0.0000,  0.0000)
   7 Cu    -1.303981    2.257399   16.396189    ( 0.0000,  0.0000,  0.0000)
   8 Cu    -2.606069    4.513845    9.999999    ( 0.0000,  0.0000,  0.0000)
   9 Cu    -1.303035    5.266152   12.127846    ( 0.0000,  0.0000,  0.0000)
  10 Cu    -2.606012    6.018841   14.258271    ( 0.0000,  0.0000,  0.0000)
  11 Cu    -2.606085    4.510742   16.394249    ( 0.0000,  0.0000,  0.0000)
  12 Cu     2.606069    0.000000    9.999999    ( 0.0000,  0.0000,  0.0000)
  13 Cu     3.909104    0.752307   12.127846    ( 0.0000,  0.0000,  0.0000)
  14 Cu     2.605387    1.504441   14.259948    ( 0.0000,  0.0000,  0.0000)
  15 Cu     2.610980   -0.003450   16.394241    ( 0.0000,  0.0000,  0.0000)
  16 Cu     1.303035    2.256922    9.999999    ( 0.0000,  0.0000,  0.0000)
  17 Cu     2.606069    3.009230   12.127846    ( 0.0000,  0.0000,  0.0000)
  18 Cu     1.303147    3.760661   14.260353    ( 0.0000,  0.0000,  0.0000)
  19 Cu     1.302680    2.272826   16.383569    ( 0.0000,  0.0000,  0.0000)
  20 Cu     0.000000    4.513845    9.999999    ( 0.0000,  0.0000,  0.0000)
  21 Cu     1.303035    5.266152   12.127846    ( 0.0000,  0.0000,  0.0000)
  22 Cu    -0.000935    6.018622   14.262053    ( 0.0000,  0.0000,  0.0000)
  23 Cu     0.000465    4.514192   16.395112    ( 0.0000,  0.0000,  0.0000)
  24 Cu     5.212139    0.000000    9.999999    ( 0.0000,  0.0000,  0.0000)
  25 Cu     6.515174    0.752307   12.127846    ( 0.0000,  0.0000,  0.0000)
  26 Cu     5.212186    1.504272   14.261615    ( 0.0000,  0.0000,  0.0000)
  27 Cu     5.212143   -0.000306   16.395005    ( 0.0000,  0.0000,  0.0000)
  28 Cu     3.909104    2.256922    9.999999    ( 0.0000,  0.0000,  0.0000)
  29 Cu     5.212139    3.009230   12.127846    ( 0.0000,  0.0000,  0.0000)
  30 Cu     3.908839    3.762076   14.261943    ( 0.0000,  0.0000,  0.0000)
  31 Cu     3.910160    2.257216   16.395775    ( 0.0000,  0.0000,  0.0000)
  32 Cu     2.606069    4.513845    9.999999    ( 0.0000,  0.0000,  0.0000)
  33 Cu     3.909104    5.266152   12.127846    ( 0.0000,  0.0000,  0.0000)
  34 Cu     2.607021    6.018545   14.262006    ( 0.0000,  0.0000,  0.0000)
  35 Cu     2.605687    4.514257   16.394977    ( 0.0000,  0.0000,  0.0000)
  36 H      1.369347   -0.261621   19.820871    ( 0.0000,  0.0000,  0.0000)
  37 O      1.344286   -0.724638   18.869551    ( 0.0000,  0.0000,  0.0000)
  38 C      1.343372    0.228725   17.939633    ( 0.0000,  0.0000,  0.0000)
  39 C      1.284221    1.705293   18.277379    ( 0.0000,  0.0000,  0.0000)
  40 O      1.323316    2.272644   19.379101    ( 0.0000,  0.0000,  0.0000)

Unit cell:
           periodic     x           y           z      points  spacing
  1. axis:    yes    7.818208    0.000000    0.000000    36     0.1881
  2. axis:    yes   -3.909104    6.770767    0.000000    36     0.1881
  3. axis:    no     0.000000    0.000000   26.383539   148     0.1783

  Lengths:   7.818208   7.818208  26.383539
  Angles:   90.000000  90.000000 120.000000

Effective grid spacing dv^(1/3) = 0.1938

     iter     time        total  log10-change:
                         energy  eigst   dens
iter:   1 01:48:27 -2803.744920  -0.79
iter:   2 01:48:50 -2802.266199  -1.60  -2.12
iter:   3 01:49:13 -2801.503288  -1.90  -2.18
iter:   4 01:49:36 -2801.210043  -1.94  -2.27
iter:   5 01:49:59 -2800.907060  -2.23  -2.30
iter:   6 01:50:22 -2800.825088  -2.26  -2.60
iter:   7 01:50:44 -2800.755441c -2.44  -2.61
iter:   8 01:51:07 -2800.741965c -2.90  -2.91
iter:   9 01:51:30 -2800.738810c -3.12  -3.03
iter:  10 01:51:52 -2800.736579c -3.67  -3.16
iter:  11 01:52:15 -2800.733861c -3.93  -3.23
iter:  12 01:52:38 -2800.732952c -4.23  -3.33
iter:  13 01:53:01 -2800.733654c -4.53  -3.46
iter:  14 01:53:23 -2800.733406c -5.23  -3.52
iter:  15 01:53:46 -2800.732996c -5.11  -3.56
iter:  16 01:54:09 -2800.733112c -5.13  -3.70
iter:  17 01:54:31 -2800.733223c -5.14  -3.90
iter:  18 01:54:54 -2800.732742c -5.04  -3.85
iter:  19 01:55:17 -2800.732712c -5.63  -4.26c
iter:  20 01:55:39 -2800.732704c -6.01  -4.39c
iter:  21 01:56:02 -2800.732739c -6.25  -4.47c
iter:  22 01:56:25 -2800.732725c -6.62  -4.52c
iter:  23 01:56:47 -2800.732730c -6.68  -4.78c
iter:  24 01:57:10 -2800.732716c -7.41c -4.85c

Converged after 24 iterations.

Dipole moment: (-2.770855, -9.710972, -0.096488) |e|*Ang

Energy contributions relative to reference atoms: (reference = -1626921.717276)

Kinetic:       +254.450696
Potential:     -297.545511
External:        +0.000000
XC:            -2760.494708
Entropy (-ST):   -0.423635
Local:           +3.068625
--------------------------
Free energy:   -2800.944534
Extrapolated:  -2800.732716

Showing only first 2 kpts
 Kpt  Band  Eigenvalues  Occupancy
  0   206     -5.41018    1.96032
  0   207     -5.15962    1.60259
  0   208     -5.04649    1.13081
  0   209     -5.00047    0.90177

  1   206     -5.82453    1.99936
  1   207     -5.63974    1.99593
  1   208     -5.45966    1.97562
  1   209     -5.24401    1.80728


Fermi level: -5.02018

No gap

Forces in eV/Ang:
  0 Cu    0.02661    0.02300   -0.06002
  1 Cu   -0.00576    0.01484   -0.08084
  2 Cu    0.02695   -0.01576   -0.07843
  3 Cu   -0.09788   -0.08534    0.08092
  4 Cu    0.00015    0.00036   -0.07200
  5 Cu   -0.02357    0.00237   -0.02462
  6 Cu    0.00960    0.02753    0.04095
  7 Cu   -0.02976    0.01345    0.03773
  8 Cu    0.00263    0.00216   -0.07312
  9 Cu    0.00056   -0.01626   -0.03973
 10 Cu    0.00297    0.00899   -0.14699
 11 Cu    0.00081   -0.21010   -0.11614
 12 Cu   -0.02255    0.01806   -0.06923
 13 Cu    0.01112    0.00764   -0.01305
 14 Cu   -0.02294   -0.00778   -0.06964
 15 Cu    0.18266   -0.06831   -0.03851
 16 Cu   -0.00231   -0.02910   -0.04178
 17 Cu    0.01423    0.00616   -0.02510
 18 Cu    0.00416   -0.02088   -0.08556
 19 Cu   -0.02732    0.47859   -0.02817
 20 Cu    0.01428    0.00664   -0.07153
 21 Cu    0.00302    0.01857   -0.03457
 22 Cu   -0.04487    0.00237    0.05434
 23 Cu    0.02641   -0.00093   -0.02745
 24 Cu   -0.00494   -0.01079   -0.08763
 25 Cu   -0.01741   -0.00328   -0.01977
 26 Cu    0.00168   -0.01115    0.02562
 27 Cu    0.00539   -0.00653   -0.02250
 28 Cu   -0.00241   -0.00605   -0.07031
 29 Cu   -0.00316    0.00645   -0.00810
 30 Cu   -0.00632    0.02862    0.04382
 31 Cu    0.03498    0.00553    0.01761
 32 Cu   -0.01772    0.00176   -0.05146
 33 Cu   -0.01642   -0.01275   -0.04547
 34 Cu    0.04762   -0.00022    0.05699
 35 Cu   -0.02304    0.00405   -0.03546
 36 H    -0.09321   -1.33250   -2.28315
 37 O     0.11405    0.96505    3.87179
 38 C    -0.29595    1.55637   -0.83098
 39 C     0.37787   -0.40153    1.37521
 40 O    -0.18032   -1.03679   -1.44727

BFGS:    1 01:57:22    -2800.732716        3.9919
System changes: positions 

Initializing position-dependent things.

Density initialized from wave functions
                                           
                                           
                                           
                                           
                                           
                                           
                                           
                   O                       
                 HC                        
           Cu    Ou    Cu                  
            Cu   C Cu    Cu                
            Cu    Cu    Cu                 
             CCu    Cu    CCu              
                                           
              CCu    Cu    CCu             
                Cu    Cu     Cu            
                                           
           Cu    CCu   CCu    Cu           
            Cu     Cu    Cu                
                                           
              Cu    Cu     Cu              
                                           
                                           
                                           
                                           

Positions:
   0 Cu     0.000000    0.000000    9.999999    ( 0.0000,  0.0000,  0.0000)
   1 Cu     1.303035    0.752307   12.127846    ( 0.0000,  0.0000,  0.0000)
   2 Cu     0.001233    1.504077   14.258469    ( 0.0000,  0.0000,  0.0000)
   3 Cu    -0.004620   -0.005095   16.397914    ( 0.0000,  0.0000,  0.0000)
   4 Cu    -1.303035    2.256922    9.999999    ( 0.0000,  0.0000,  0.0000)
   5 Cu     0.000000    3.009230   12.127846    ( 0.0000,  0.0000,  0.0000)
   6 Cu    -1.302556    3.762523   14.262561    ( 0.0000,  0.0000,  0.0000)
   7 Cu    -1.304507    2.257643   16.396783    ( 0.0000,  0.0000,  0.0000)
   8 Cu    -2.606069    4.513845    9.999999    ( 0.0000,  0.0000,  0.0000)
   9 Cu    -1.303035    5.266152   12.127846    ( 0.0000,  0.0000,  0.0000)
  10 Cu    -2.605964    6.019013   14.255945    ( 0.0000,  0.0000,  0.0000)
  11 Cu    -2.606077    4.507529   16.392538    ( 0.0000,  0.0000,  0.0000)
  12 Cu     2.606069    0.000000    9.999999    ( 0.0000,  0.0000,  0.0000)
  13 Cu     3.909104    0.752307   12.127846    ( 0.0000,  0.0000,  0.0000)
  14 Cu     2.604988    1.504313   14.258879    ( 0.0000,  0.0000,  0.0000)
  15 Cu     2.614084   -0.004837   16.393555    ( 0.0000,  0.0000,  0.0000)
  16 Cu     1.303035    2.256922    9.999999    ( 0.0000,  0.0000,  0.0000)
  17 Cu     2.606069    3.009230   12.127846    ( 0.0000,  0.0000,  0.0000)
  18 Cu     1.303218    3.760262   14.259131    ( 0.0000,  0.0000,  0.0000)
  19 Cu     1.302269    2.281382   16.381523    ( 0.0000,  0.0000,  0.0000)
  20 Cu     0.000000    4.513845    9.999999    ( 0.0000,  0.0000,  0.0000)
  21 Cu     1.303035    5.266152   12.127846    ( 0.0000,  0.0000,  0.0000)
  22 Cu    -0.001659    6.018676   14.262919    ( 0.0000,  0.0000,  0.0000)
  23 Cu     0.000879    4.514229   16.394695    ( 0.0000,  0.0000,  0.0000)
  24 Cu     5.212139    0.000000    9.999999    ( 0.0000,  0.0000,  0.0000)
  25 Cu     6.515174    0.752307   12.127846    ( 0.0000,  0.0000,  0.0000)
  26 Cu     5.212215    1.504076   14.262040    ( 0.0000,  0.0000,  0.0000)
  27 Cu     5.212214   -0.000435   16.394637    ( 0.0000,  0.0000,  0.0000)
  28 Cu     3.909104    2.256922    9.999999    ( 0.0000,  0.0000,  0.0000)
  29 Cu     5.212139    3.009230   12.127846    ( 0.0000,  0.0000,  0.0000)
  30 Cu     3.908718    3.762529   14.262654    ( 0.0000,  0.0000,  0.0000)
  31 Cu     3.910771    2.257330   16.396046    ( 0.0000,  0.0000,  0.0000)
  32 Cu     2.606069    4.513845    9.999999    ( 0.0000,  0.0000,  0.0000)
  33 Cu     3.909104    5.266152   12.127846    ( 0.0000,  0.0000,  0.0000)
  34 Cu     2.607784    6.018554   14.262900    ( 0.0000,  0.0000,  0.0000)
  35 Cu     2.605329    4.514368   16.394434    ( 0.0000,  0.0000,  0.0000)
  36 H      1.368345   -0.273060   19.803046    ( 0.0000,  0.0000,  0.0000)
  37 O      1.345667   -0.719361   18.910759    ( 0.0000,  0.0000,  0.0000)
  38 C      1.338679    0.254005   17.928375    ( 0.0000,  0.0000,  0.0000)
  39 C      1.290422    1.701971   18.308695    ( 0.0000,  0.0000,  0.0000)
  40 O      1.320251    2.252343   19.347635    ( 0.0000,  0.0000,  0.0000)

Unit cell:
           periodic     x           y           z      points  spacing
  1. axis:    yes    7.818208    0.000000    0.000000    36     0.1881
  2. axis:    yes   -3.909104    6.770767    0.000000    36     0.1881
  3. axis:    no     0.000000    0.000000   26.383539   148     0.1783

  Lengths:   7.818208   7.818208  26.383539
  Angles:   90.000000  90.000000 120.000000

Effective grid spacing dv^(1/3) = 0.1938

     iter     time        total  log10-change:
                         energy  eigst   dens
iter:   1 01:58:17 -2803.318699  -1.47
iter:   2 01:58:39 -2801.826388  -1.85  -1.97
iter:   3 01:59:02 -2801.271151  -2.45  -2.13
iter:   4 01:59:25 -2800.996708  -2.60  -2.40
iter:   5 01:59:47 -2800.946647  -2.90  -2.65
iter:   6 02:00:10 -2800.925724c -2.89  -2.83
iter:   7 02:00:32 -2800.916585c -2.99  -3.05
iter:   8 02:00:55 -2800.916465c -3.44  -3.16
iter:   9 02:01:18 -2800.914519c -3.99  -3.21
iter:  10 02:01:40 -2800.911768c -4.08  -3.21
iter:  11 02:02:03 -2800.911809c -4.39  -3.52
iter:  12 02:02:25 -2800.911003c -4.65  -3.49
iter:  13 02:02:48 -2800.910940c -5.38  -3.73
iter:  14 02:03:11 -2800.910901c -5.39  -3.86
iter:  15 02:03:34 -2800.910978c -5.16  -3.93
iter:  16 02:03:56 -2800.910915c -5.81  -4.05c
iter:  17 02:04:19 -2800.910882c -6.07  -4.19c
iter:  18 02:04:41 -2800.910895c -6.06  -4.32c
iter:  19 02:05:04 -2800.910906c -6.34  -4.49c
iter:  20 02:05:27 -2800.910891c -6.86  -4.60c
iter:  21 02:05:49 -2800.910907c -6.85  -4.65c
iter:  22 02:06:12 -2800.910906c -7.15  -4.72c
iter:  23 02:06:34 -2800.910893c -6.74  -4.85c
iter:  24 02:06:57 -2800.910889c -7.60c -4.95c

Converged after 24 iterations.

Dipole moment: (-2.712799, -9.452464, -0.039628) |e|*Ang

Energy contributions relative to reference atoms: (reference = -1626921.717276)

Kinetic:       +260.636378
Potential:     -302.476266
External:        +0.000000
XC:            -2761.936415
Entropy (-ST):   -0.422797
Local:           +3.076811
--------------------------
Free energy:   -2801.122288
Extrapolated:  -2800.910889

Showing only first 2 kpts
 Kpt  Band  Eigenvalues  Occupancy
  0   206     -5.34234    1.95787
  0   207     -5.09484    1.59275
  0   208     -4.99509    1.18112
  0   209     -4.92634    0.84076

  1   206     -5.76114    1.99935
  1   207     -5.57971    1.99600
  1   208     -5.40683    1.97767
  1   209     -5.17606    1.79614


Fermi level: -4.95846

No gap

Forces in eV/Ang:
  0 Cu    0.02620    0.02271   -0.05963
  1 Cu   -0.00485    0.01614   -0.08312
  2 Cu    0.01248   -0.01241   -0.06067
  3 Cu   -0.05048   -0.04275    0.11175
  4 Cu    0.00008    0.00187   -0.07121
  5 Cu   -0.02464    0.00240   -0.02091
  6 Cu    0.00543    0.01777    0.02702
  7 Cu   -0.01746    0.00903    0.02096
  8 Cu    0.00378    0.00164   -0.07381
  9 Cu    0.00123   -0.01716   -0.04403
 10 Cu    0.00166    0.00154   -0.11004
 11 Cu    0.00218   -0.14123   -0.08585
 12 Cu   -0.02302    0.01720   -0.06964
 13 Cu    0.01403    0.00488   -0.01343
 14 Cu   -0.00898   -0.00479   -0.05941
 15 Cu    0.10488   -0.03126    0.02076
 16 Cu   -0.00203   -0.02725   -0.03975
 17 Cu    0.01511    0.00606   -0.02113
 18 Cu    0.00202   -0.00215   -0.08743
 19 Cu   -0.01350    0.32502    0.03891
 20 Cu    0.01343    0.00510   -0.07059
 21 Cu    0.00337    0.02418   -0.02962
 22 Cu   -0.03036    0.00220    0.04567
 23 Cu    0.01865   -0.01028   -0.02151
 24 Cu   -0.00422   -0.01080   -0.08925
 25 Cu   -0.02100   -0.00608   -0.02060
 26 Cu   -0.00010   -0.00682    0.02342
 27 Cu    0.00808   -0.00127   -0.02350
 28 Cu   -0.00269   -0.00394   -0.06897
 29 Cu   -0.00268    0.00743   -0.00557
 30 Cu   -0.00230    0.01845    0.03118
 31 Cu    0.01932    0.00351    0.00691
 32 Cu   -0.01771    0.00027   -0.05103
 33 Cu   -0.01712   -0.01340   -0.05035
 34 Cu    0.03510    0.00185    0.05280
 35 Cu   -0.01785   -0.00570   -0.02887
 36 H    -0.02978   -0.57891   -0.80066
 37 O     0.06202    0.94297    1.29167
 38 C    -0.25545    0.45968    0.03395
 39 C     0.20962   -2.13392   -2.37005
 40 O    -0.03631    1.10458    2.31779

BFGS:    2 02:07:08    -2800.910889        3.1960
System changes: positions 

Initializing position-dependent things.

Density initialized from wave functions
                                           
                                           
                                           
                                           
                                           
                                           
                                           
                   O                       
                 HC                        
           Cu    Ou    Cu                  
            Cu   C Cu    Cu                
            Cu    Cu    Cu                 
             CCu    Cu    CCu              
                                           
              CCu    Cu    CCu             
                Cu    Cu     Cu            
                                           
           Cu    CCu   CCu    Cu           
            Cu     Cu    Cu                
                                           
              Cu    Cu     Cu              
                                           
                                           
                                           
                                           

Positions:
   0 Cu     0.000000    0.000000    9.999999    ( 0.0000,  0.0000,  0.0000)
   1 Cu     1.303035    0.752307   12.127846    ( 0.0000,  0.0000,  0.0000)
   2 Cu     0.001544    1.503839   14.257305    ( 0.0000,  0.0000,  0.0000)
   3 Cu    -0.005819   -0.006166   16.399710    ( 0.0000,  0.0000,  0.0000)
   4 Cu    -1.303035    2.256922    9.999999    ( 0.0000,  0.0000,  0.0000)
   5 Cu     0.000000    3.009230   12.127846    ( 0.0000,  0.0000,  0.0000)
   6 Cu    -1.302432    3.762893   14.263121    ( 0.0000,  0.0000,  0.0000)
   7 Cu    -1.304900    2.257837   16.397245    ( 0.0000,  0.0000,  0.0000)
   8 Cu    -2.606069    4.513845    9.999999    ( 0.0000,  0.0000,  0.0000)
   9 Cu    -1.303035    5.266152   12.127846    ( 0.0000,  0.0000,  0.0000)
  10 Cu    -2.605928    6.019090   14.253797    ( 0.0000,  0.0000,  0.0000)
  11 Cu    -2.606047    4.504690   16.390893    ( 0.0000,  0.0000,  0.0000)
  12 Cu     2.606069    0.000000    9.999999    ( 0.0000,  0.0000,  0.0000)
  13 Cu     3.909104    0.752307   12.127846    ( 0.0000,  0.0000,  0.0000)
  14 Cu     2.604742    1.504211   14.257782    ( 0.0000,  0.0000,  0.0000)
  15 Cu     2.616429   -0.005687   16.393576    ( 0.0000,  0.0000,  0.0000)
  16 Cu     1.303035    2.256922    9.999999    ( 0.0000,  0.0000,  0.0000)
  17 Cu     2.606069    3.009230   12.127846    ( 0.0000,  0.0000,  0.0000)
  18 Cu     1.303266    3.760101   14.257635    ( 0.0000,  0.0000,  0.0000)
  19 Cu     1.301961    2.288274   16.381350    ( 0.0000,  0.0000,  0.0000)
  20 Cu     0.000000    4.513845    9.999999    ( 0.0000,  0.0000,  0.0000)
  21 Cu     1.303035    5.266152   12.127846    ( 0.0000,  0.0000,  0.0000)
  22 Cu    -0.002280    6.018721   14.263776    ( 0.0000,  0.0000,  0.0000)
  23 Cu     0.001250    4.514114   16.394287    ( 0.0000,  0.0000,  0.0000)
  24 Cu     5.212139    0.000000    9.999999    ( 0.0000,  0.0000,  0.0000)
  25 Cu     6.515174    0.752307   12.127846    ( 0.0000,  0.0000,  0.0000)
  26 Cu     5.212224    1.503926   14.262472    ( 0.0000,  0.0000,  0.0000)
  27 Cu     5.212339   -0.000494   16.394223    ( 0.0000,  0.0000,  0.0000)
  28 Cu     3.909104    2.256922    9.999999    ( 0.0000,  0.0000,  0.0000)
  29 Cu     5.212139    3.009230   12.127846    ( 0.0000,  0.0000,  0.0000)
  30 Cu     3.908649    3.762911   14.263280    ( 0.0000,  0.0000,  0.0000)
  31 Cu     3.911216    2.257411   16.396224    ( 0.0000,  0.0000,  0.0000)
  32 Cu     2.606069    4.513845    9.999999    ( 0.0000,  0.0000,  0.0000)
  33 Cu     3.909104    5.266152   12.127846    ( 0.0000,  0.0000,  0.0000)
  34 Cu     2.608476    6.018579   14.263855    ( 0.0000,  0.0000,  0.0000)
  35 Cu     2.604986    4.514335   16.393893    ( 0.0000,  0.0000,  0.0000)
  36 H      1.367620   -0.284410   19.786496    ( 0.0000,  0.0000,  0.0000)
  37 O      1.346917   -0.705652   18.941420    ( 0.0000,  0.0000,  0.0000)
  38 C      1.333935    0.268304   17.924861    ( 0.0000,  0.0000,  0.0000)
  39 C      1.295115    1.674561   18.290070    ( 0.0000,  0.0000,  0.0000)
  40 O      1.318759    2.259045   19.365534    ( 0.0000,  0.0000,  0.0000)

Unit cell:
           periodic     x           y           z      points  spacing
  1. axis:    yes    7.818208    0.000000    0.000000    36     0.1881
  2. axis:    yes   -3.909104    6.770767    0.000000    36     0.1881
  3. axis:    no     0.000000    0.000000   26.383539   148     0.1783

  Lengths:   7.818208   7.818208  26.383539
  Angles:   90.000000  90.000000 120.000000

Effective grid spacing dv^(1/3) = 0.1938

     iter     time        total  log10-change:
                         energy  eigst   dens
iter:   1 02:08:04 -2801.211368  -1.68
iter:   2 02:08:27 -2801.104934  -2.52  -2.61
iter:   3 02:08:50 -2801.067464c -2.91  -2.64
iter:   4 02:09:13 -2801.026110c -2.97  -2.70
iter:   5 02:09:36 -2800.993220c -3.59  -2.76
iter:   6 02:09:58 -2800.983890c -3.48  -3.09
iter:   7 02:10:21 -2800.981214c -3.40  -3.21
iter:   8 02:10:44 -2800.978889c -3.82  -3.31
iter:   9 02:11:07 -2800.977435c -4.30  -3.49
iter:  10 02:11:30 -2800.978107c -4.50  -3.75
iter:  11 02:11:53 -2800.977624c -5.02  -3.68
iter:  12 02:12:16 -2800.977548c -5.58  -3.81
iter:  13 02:12:39 -2800.977506c -5.56  -4.01c
iter:  14 02:13:01 -2800.977518c -5.75  -4.16c
iter:  15 02:13:24 -2800.977504c -6.01  -4.24c
iter:  16 02:13:47 -2800.977497c -6.35  -4.25c
iter:  17 02:14:10 -2800.977493c -6.41  -4.42c
iter:  18 02:14:33 -2800.977497c -6.76  -4.68c
iter:  19 02:14:56 -2800.977495c -7.10  -4.77c
iter:  20 02:15:18 -2800.977505c -7.24  -4.82c
iter:  21 02:15:41 -2800.977505c -7.48c -5.00c

Converged after 21 iterations.

Dipole moment: (-2.629985, -9.185113, -0.165881) |e|*Ang

Energy contributions relative to reference atoms: (reference = -1626921.717276)

Kinetic:       +259.069736
Potential:     -301.009752
External:        +0.000000
XC:            -2761.900662
Entropy (-ST):   -0.424118
Local:           +3.075231
--------------------------
Free energy:   -2801.189564
Extrapolated:  -2800.977505

Showing only first 2 kpts
 Kpt  Band  Eigenvalues  Occupancy
  0   206     -5.46627    1.95202
  0   207     -5.22479    1.56864
  0   208     -5.13846    1.21066
  0   209     -5.06743    0.85966

  1   206     -5.88279    1.99924
  1   207     -5.71497    1.99592
  1   208     -5.55090    1.97913
  1   209     -5.30510    1.78066


Fermi level: -5.09569

No gap

Forces in eV/Ang:
  0 Cu    0.02541    0.02175   -0.05678
  1 Cu   -0.00481    0.01555   -0.08646
  2 Cu    0.00296   -0.00630   -0.04691
  3 Cu   -0.01259   -0.02597    0.09956
  4 Cu   -0.00003    0.00289   -0.07086
  5 Cu   -0.02606    0.00389   -0.02258
  6 Cu    0.00615    0.00580    0.01898
  7 Cu   -0.01393    0.00623    0.01102
  8 Cu    0.00548    0.00193   -0.07446
  9 Cu    0.00324   -0.01806   -0.04447
 10 Cu    0.00089    0.00175   -0.08025
 11 Cu    0.00400   -0.06315   -0.05314
 12 Cu   -0.02270    0.01565   -0.06790
 13 Cu    0.01632    0.00392   -0.01411
 14 Cu    0.00007   -0.00064   -0.04952
 15 Cu    0.03259   -0.02461    0.04029
 16 Cu   -0.00164   -0.02646   -0.03930
 17 Cu    0.01712    0.00804   -0.02293
 18 Cu    0.00039    0.00173   -0.06894
 19 Cu   -0.00162    0.28224   -0.00685
 20 Cu    0.01130    0.00474   -0.07017
 21 Cu    0.00353    0.02635   -0.02502
 22 Cu   -0.01899    0.00581    0.03571
 23 Cu    0.00620    0.00226   -0.01535
 24 Cu   -0.00364   -0.01073   -0.08966
 25 Cu   -0.02333   -0.00709   -0.02165
 26 Cu   -0.00148   -0.00504    0.02442
 27 Cu    0.00794   -0.00187   -0.02667
 28 Cu   -0.00311   -0.00303   -0.06757
 29 Cu   -0.00309    0.00670   -0.00163
 30 Cu   -0.00299    0.00603    0.02304
 31 Cu    0.01348    0.00195    0.00207
 32 Cu   -0.01694    0.00022   -0.05070
 33 Cu   -0.01913   -0.01431   -0.05136
 34 Cu    0.02494    0.00708    0.04514
 35 Cu   -0.00815    0.00552   -0.02263
 36 H     0.02553    0.62393    1.31937
 37 O    -0.04955   -0.03945   -1.43023
 38 C    -0.19699   -0.27277    0.53444
 39 C     0.23075   -0.09326    0.83039
 40 O    -0.14974   -0.46446   -0.79155

BFGS:    3 02:15:53    -2800.977505        1.4597
System changes: positions 

Initializing position-dependent things.

Density initialized from wave functions
                                           
                                           
                                           
                                           
                                           
                                           
                                           
                   O                       
                 HC                        
           Cu    Ou    Cu                  
            Cu   C Cu    Cu                
            Cu    Cu    Cu                 
             CCu    Cu    CCu              
                                           
              CCu    Cu    CCu             
                Cu    Cu     Cu            
                                           
           Cu    CCu   CCu    Cu           
            Cu     Cu    Cu                
                                           
              Cu    Cu     Cu              
                                           
                                           
                                           
                                           

Positions:
   0 Cu     0.000000    0.000000    9.999999    ( 0.0000,  0.0000,  0.0000)
   1 Cu     1.303035    0.752307   12.127846    ( 0.0000,  0.0000,  0.0000)
   2 Cu     0.001548    1.503786   14.256883    ( 0.0000,  0.0000,  0.0000)
   3 Cu    -0.005852   -0.006322   16.400677    ( 0.0000,  0.0000,  0.0000)
   4 Cu    -1.303035    2.256922    9.999999    ( 0.0000,  0.0000,  0.0000)
   5 Cu     0.000000    3.009230   12.127846    ( 0.0000,  0.0000,  0.0000)
   6 Cu    -1.302380    3.762932   14.263280    ( 0.0000,  0.0000,  0.0000)
   7 Cu    -1.305010    2.257885   16.397329    ( 0.0000,  0.0000,  0.0000)
   8 Cu    -2.606069    4.513845    9.999999    ( 0.0000,  0.0000,  0.0000)
   9 Cu    -1.303035    5.266152   12.127846    ( 0.0000,  0.0000,  0.0000)
  10 Cu    -2.605921    6.019095   14.253089    ( 0.0000,  0.0000,  0.0000)
  11 Cu    -2.606007    4.504180   16.390417    ( 0.0000,  0.0000,  0.0000)
  12 Cu     2.606069    0.000000    9.999999    ( 0.0000,  0.0000,  0.0000)
  13 Cu     3.909104    0.752307   12.127846    ( 0.0000,  0.0000,  0.0000)
  14 Cu     2.604765    1.504210   14.257325    ( 0.0000,  0.0000,  0.0000)
  15 Cu     2.616596   -0.005834   16.394031    ( 0.0000,  0.0000,  0.0000)
  16 Cu     1.303035    2.256922    9.999999    ( 0.0000,  0.0000,  0.0000)
  17 Cu     2.606069    3.009230   12.127846    ( 0.0000,  0.0000,  0.0000)
  18 Cu     1.303267    3.760147   14.256973    ( 0.0000,  0.0000,  0.0000)
  19 Cu     1.301961    2.290619   16.381571    ( 0.0000,  0.0000,  0.0000)
  20 Cu     0.000000    4.513845    9.999999    ( 0.0000,  0.0000,  0.0000)
  21 Cu     1.303035    5.266152   12.127846    ( 0.0000,  0.0000,  0.0000)
  22 Cu    -0.002438    6.018775   14.264098    ( 0.0000,  0.0000,  0.0000)
  23 Cu     0.001296    4.514125   16.394148    ( 0.0000,  0.0000,  0.0000)
  24 Cu     5.212139    0.000000    9.999999    ( 0.0000,  0.0000,  0.0000)
  25 Cu     6.515174    0.752307   12.127846    ( 0.0000,  0.0000,  0.0000)
  26 Cu     5.212207    1.503886   14.262697    ( 0.0000,  0.0000,  0.0000)
  27 Cu     5.212418   -0.000503   16.393971    ( 0.0000,  0.0000,  0.0000)
  28 Cu     3.909104    2.256922    9.999999    ( 0.0000,  0.0000,  0.0000)
  29 Cu     5.212139    3.009230   12.127846    ( 0.0000,  0.0000,  0.0000)
  30 Cu     3.908627    3.762953   14.263479    ( 0.0000,  0.0000,  0.0000)
  31 Cu     3.911317    2.257423   16.396233    ( 0.0000,  0.0000,  0.0000)
  32 Cu     2.606069    4.513845    9.999999    ( 0.0000,  0.0000,  0.0000)
  33 Cu     3.909104    5.266152   12.127846    ( 0.0000,  0.0000,  0.0000)
  34 Cu     2.608693    6.018649   14.264274    ( 0.0000,  0.0000,  0.0000)
  35 Cu     2.604918    4.514376   16.393686    ( 0.0000,  0.0000,  0.0000)
  36 H      1.367872   -0.278741   19.798494    ( 0.0000,  0.0000,  0.0000)
  37 O      1.346412   -0.704990   18.927355    ( 0.0000,  0.0000,  0.0000)
  38 C      1.332147    0.264272   17.930635    ( 0.0000,  0.0000,  0.0000)
  39 C      1.297113    1.672684   18.294653    ( 0.0000,  0.0000,  0.0000)
  40 O      1.317454    2.256411   19.361227    ( 0.0000,  0.0000,  0.0000)

Unit cell:
           periodic     x           y           z      points  spacing
  1. axis:    yes    7.818208    0.000000    0.000000    36     0.1881
  2. axis:    yes   -3.909104    6.770767    0.000000    36     0.1881
  3. axis:    no     0.000000    0.000000   26.383539   148     0.1783

  Lengths:   7.818208   7.818208  26.383539
  Angles:   90.000000  90.000000 120.000000

Effective grid spacing dv^(1/3) = 0.1938

     iter     time        total  log10-change:
                         energy  eigst   dens
iter:   1 02:16:49 -2801.021052  -2.67
iter:   2 02:17:12 -2801.016363  -3.55  -3.20
iter:   3 02:17:34 -2801.014280c -4.00  -3.26
iter:   4 02:17:57 -2801.012052c -4.05  -3.30
iter:   5 02:18:20 -2801.009293c -4.13  -3.31
iter:   6 02:18:42 -2801.009108c -4.09  -3.68
iter:   7 02:19:05 -2801.008561c -4.95  -3.80
iter:   8 02:19:28 -2801.008444c -5.09  -4.03c
iter:   9 02:19:50 -2801.008423c -5.48  -4.21c
iter:  10 02:20:13 -2801.008427c -6.22  -4.30c
iter:  11 02:20:36 -2801.008461c -5.89  -4.35c
iter:  12 02:20:58 -2801.008464c -6.70  -4.58c
iter:  13 02:21:21 -2801.008445c -6.52  -4.68c
iter:  14 02:21:44 -2801.008471c -6.64  -4.65c
iter:  15 02:22:07 -2801.008457c -7.28  -4.72c
iter:  16 02:22:29 -2801.008440c -7.09  -4.88c
iter:  17 02:22:52 -2801.008442c -8.22c -5.12c

Converged after 17 iterations.

Dipole moment: (-2.649336, -9.173820, -0.128214) |e|*Ang

Energy contributions relative to reference atoms: (reference = -1626921.717276)

Kinetic:       +259.076985
Potential:     -301.092686
External:        +0.000000
XC:            -2761.856613
Entropy (-ST):   -0.423938
Local:           +3.075840
--------------------------
Free energy:   -2801.220411
Extrapolated:  -2801.008442

Showing only first 2 kpts
 Kpt  Band  Eigenvalues  Occupancy
  0   206     -5.42524    1.95198
  0   207     -5.18422    1.56994
  0   208     -5.09672    1.20689
  0   209     -5.02568    0.85573

  1   206     -5.84441    1.99926
  1   207     -5.67515    1.99597
  1   208     -5.50803    1.97873
  1   209     -5.26507    1.78246


Fermi level: -5.05474

No gap

Forces in eV/Ang:
  0 Cu    0.02513    0.02192   -0.05706
  1 Cu   -0.00480    0.01570   -0.08781
  2 Cu    0.00438   -0.00525   -0.03900
  3 Cu   -0.00380   -0.01079    0.08776
  4 Cu    0.00002    0.00280   -0.07109
  5 Cu   -0.02625    0.00364   -0.02345
  6 Cu    0.00514    0.00439    0.01527
  7 Cu   -0.00798    0.00289    0.01255
  8 Cu    0.00542    0.00167   -0.07433
  9 Cu    0.00350   -0.01806   -0.04431
 10 Cu    0.00060    0.00265   -0.07412
 11 Cu    0.00356   -0.06011   -0.05955
 12 Cu   -0.02237    0.01588   -0.06814
 13 Cu    0.01625    0.00357   -0.01405
 14 Cu   -0.00169   -0.00079   -0.04210
 15 Cu    0.01322   -0.00822    0.04248
 16 Cu   -0.00176   -0.02642   -0.03964
 17 Cu    0.01727    0.00804   -0.02357
 18 Cu    0.00022    0.00218   -0.06394
 19 Cu    0.00076    0.25647    0.01141
 20 Cu    0.01155    0.00472   -0.07030
 21 Cu    0.00379    0.02701   -0.02482
 22 Cu   -0.01544    0.00455    0.03032
 23 Cu    0.00522    0.00325   -0.01483
 24 Cu   -0.00371   -0.01076   -0.08964
 25 Cu   -0.02327   -0.00747   -0.02149
 26 Cu   -0.00136   -0.00329    0.01990
 27 Cu    0.00663   -0.00126   -0.02077
 28 Cu   -0.00302   -0.00320   -0.06763
 29 Cu   -0.00308    0.00683   -0.00109
 30 Cu   -0.00240    0.00477    0.01889
 31 Cu    0.00711   -0.00053    0.00551
 32 Cu   -0.01711    0.00033   -0.05090
 33 Cu   -0.01959   -0.01435   -0.05150
 34 Cu    0.02093    0.00546    0.03951
 35 Cu   -0.00657    0.00590   -0.02099
 36 H    -0.00482    0.02661    0.17231
 37 O     0.03974    0.33475    0.08699
 38 C    -0.18890   -0.03975    0.16761
 39 C     0.19856   -0.30662    0.30754
 40 O    -0.12934   -0.21337   -0.29416

BFGS:    4 02:23:03    -2801.008442        0.4775
System changes: positions 

Initializing position-dependent things.

Density initialized from wave functions
                                           
                                           
                                           
                                           
                                           
                                           
                                           
                   O                       
                 HC                        
           Cu    Ou    Cu                  
            Cu   C Cu    Cu                
            Cu    Cu    Cu                 
             CCu    Cu    CCu              
                                           
              CCu    Cu    CCu             
                Cu    Cu     Cu            
                                           
           Cu    CCu   CCu    Cu           
            Cu     Cu    Cu                
                                           
              Cu    Cu     Cu              
                                           
                                           
                                           
                                           

Positions:
   0 Cu     0.000000    0.000000    9.999999    ( 0.0000,  0.0000,  0.0000)
   1 Cu     1.303035    0.752307   12.127846    ( 0.0000,  0.0000,  0.0000)
   2 Cu     0.001672    1.503650   14.255952    ( 0.0000,  0.0000,  0.0000)
   3 Cu    -0.006111   -0.006721   16.402652    ( 0.0000,  0.0000,  0.0000)
   4 Cu    -1.303035    2.256922    9.999999    ( 0.0000,  0.0000,  0.0000)
   5 Cu     0.000000    3.009230   12.127846    ( 0.0000,  0.0000,  0.0000)
   6 Cu    -1.302261    3.763069   14.263660    ( 0.0000,  0.0000,  0.0000)
   7 Cu    -1.305234    2.257977   16.397628    ( 0.0000,  0.0000,  0.0000)
   8 Cu    -2.606069    4.513845    9.999999    ( 0.0000,  0.0000,  0.0000)
   9 Cu    -1.303035    5.266152   12.127846    ( 0.0000,  0.0000,  0.0000)
  10 Cu    -2.605904    6.019155   14.251350    ( 0.0000,  0.0000,  0.0000)
  11 Cu    -2.605932    4.502635   16.389065    ( 0.0000,  0.0000,  0.0000)
  12 Cu     2.606069    0.000000    9.999999    ( 0.0000,  0.0000,  0.0000)
  13 Cu     3.909104    0.752307   12.127846    ( 0.0000,  0.0000,  0.0000)
  14 Cu     2.604704    1.504182   14.256344    ( 0.0000,  0.0000,  0.0000)
  15 Cu     2.617219   -0.006159   16.394854    ( 0.0000,  0.0000,  0.0000)
  16 Cu     1.303035    2.256922    9.999999    ( 0.0000,  0.0000,  0.0000)
  17 Cu     2.606069    3.009230   12.127846    ( 0.0000,  0.0000,  0.0000)
  18 Cu     1.303278    3.760165   14.255523    ( 0.0000,  0.0000,  0.0000)
  19 Cu     1.301930    2.296609   16.381670    ( 0.0000,  0.0000,  0.0000)
  20 Cu     0.000000    4.513845    9.999999    ( 0.0000,  0.0000,  0.0000)
  21 Cu     1.303035    5.266152   12.127846    ( 0.0000,  0.0000,  0.0000)
  22 Cu    -0.002829    6.018873   14.264815    ( 0.0000,  0.0000,  0.0000)
  23 Cu     0.001449    4.514171   16.393806    ( 0.0000,  0.0000,  0.0000)
  24 Cu     5.212139    0.000000    9.999999    ( 0.0000,  0.0000,  0.0000)
  25 Cu     6.515174    0.752307   12.127846    ( 0.0000,  0.0000,  0.0000)
  26 Cu     5.212181    1.503798   14.263154    ( 0.0000,  0.0000,  0.0000)
  27 Cu     5.212566   -0.000538   16.393496    ( 0.0000,  0.0000,  0.0000)
  28 Cu     3.909104    2.256922    9.999999    ( 0.0000,  0.0000,  0.0000)
  29 Cu     5.212139    3.009230   12.127846    ( 0.0000,  0.0000,  0.0000)
  30 Cu     3.908569    3.763099   14.263940    ( 0.0000,  0.0000,  0.0000)
  31 Cu     3.911532    2.257431   16.396353    ( 0.0000,  0.0000,  0.0000)
  32 Cu     2.606069    4.513845    9.999999    ( 0.0000,  0.0000,  0.0000)
  33 Cu     3.909104    5.266152   12.127846    ( 0.0000,  0.0000,  0.0000)
  34 Cu     2.609202    6.018763   14.265182    ( 0.0000,  0.0000,  0.0000)
  35 Cu     2.604741    4.514486   16.393203    ( 0.0000,  0.0000,  0.0000)
  36 H      1.367784   -0.277764   19.803418    ( 0.0000,  0.0000,  0.0000)
  37 O      1.347094   -0.698009   18.928228    ( 0.0000,  0.0000,  0.0000)
  38 C      1.327829    0.264738   17.934519    ( 0.0000,  0.0000,  0.0000)
  39 C      1.301674    1.663630   18.299603    ( 0.0000,  0.0000,  0.0000)
  40 O      1.314693    2.252507   19.356543    ( 0.0000,  0.0000,  0.0000)

Unit cell:
           periodic     x           y           z      points  spacing
  1. axis:    yes    7.818208    0.000000    0.000000    36     0.1881
  2. axis:    yes   -3.909104    6.770767    0.000000    36     0.1881
  3. axis:    no     0.000000    0.000000   26.383539   148     0.1783

  Lengths:   7.818208   7.818208  26.383539
  Angles:   90.000000  90.000000 120.000000

Effective grid spacing dv^(1/3) = 0.1938

     iter     time        total  log10-change:
                         energy  eigst   dens
iter:   1 02:23:59 -2801.107189  -2.81
iter:   2 02:24:22 -2801.059068  -3.20  -2.66
iter:   3 02:24:44 -2801.029954c -3.81  -2.82
iter:   4 02:25:07 -2801.020874c -4.36  -3.14
iter:   5 02:25:30 -2801.020569c -4.33  -3.58
iter:   6 02:25:53 -2801.020174c -4.62  -3.64
iter:   7 02:26:15 -2801.019830c -5.01  -3.90
iter:   8 02:26:38 -2801.019836c -5.64  -4.11c
iter:   9 02:27:01 -2801.019847c -5.54  -4.15c
iter:  10 02:27:24 -2801.019793c -6.15  -4.32c
iter:  11 02:27:46 -2801.019776c -6.45  -4.48c
iter:  12 02:28:09 -2801.019797c -6.05  -4.59c
iter:  13 02:28:32 -2801.019772c -6.51  -4.61c
iter:  14 02:28:55 -2801.019781c -7.07  -4.83c
iter:  15 02:29:17 -2801.019785c -7.44c -4.93c

Converged after 15 iterations.

Dipole moment: (-2.644516, -9.079516, -0.110220) |e|*Ang

Energy contributions relative to reference atoms: (reference = -1626921.717276)

Kinetic:       +260.090499
Potential:     -301.883442
External:        +0.000000
XC:            -2762.100078
Entropy (-ST):   -0.423536
Local:           +3.085005
--------------------------
Free energy:   -2801.231553
Extrapolated:  -2801.019785

Showing only first 2 kpts
 Kpt  Band  Eigenvalues  Occupancy
  0   206     -5.40272    1.95041
  0   207     -5.16429    1.56753
  0   208     -5.08000    1.21882
  0   209     -5.00280    0.83786

  1   206     -5.82497    1.99925
  1   207     -5.65689    1.99600
  1   208     -5.48890    1.97875
  1   209     -5.24474    1.78030


Fermi level: -5.03552

No gap

Forces in eV/Ang:
  0 Cu    0.02440    0.02168   -0.05701
  1 Cu   -0.00468    0.01628   -0.09099
  2 Cu    0.00265   -0.00287   -0.02325
  3 Cu    0.00986    0.00779    0.06868
  4 Cu   -0.00009    0.00323   -0.07149
  5 Cu   -0.02695    0.00337   -0.02471
  6 Cu    0.00351    0.00000    0.00820
  7 Cu   -0.00137   -0.00042    0.00763
  8 Cu    0.00584    0.00127   -0.07478
  9 Cu    0.00451   -0.01845   -0.04510
 10 Cu    0.00000    0.00259   -0.05491
 11 Cu    0.00321   -0.03293   -0.05712
 12 Cu   -0.02178    0.01543   -0.06834
 13 Cu    0.01714    0.00263   -0.01440
 14 Cu   -0.00058   -0.00057   -0.02849
 15 Cu   -0.02046    0.00983    0.04887
 16 Cu   -0.00181   -0.02564   -0.03980
 17 Cu    0.01806    0.00836   -0.02462
 18 Cu   -0.00040    0.00575   -0.05361
 19 Cu    0.00693    0.23191    0.00612
 20 Cu    0.01116    0.00439   -0.07038
 21 Cu    0.00433    0.02930   -0.02323
 22 Cu   -0.00803    0.00386    0.02168
 23 Cu   -0.00036    0.00761   -0.01374
 24 Cu   -0.00359   -0.01074   -0.09035
 25 Cu   -0.02424   -0.00838   -0.02163
 26 Cu   -0.00156   -0.00070    0.01400
 27 Cu    0.00467   -0.00064   -0.01517
 28 Cu   -0.00289   -0.00278   -0.06747
 29 Cu   -0.00306    0.00680    0.00075
 30 Cu   -0.00146    0.00041    0.01157
 31 Cu   -0.00094   -0.00288    0.00497
 32 Cu   -0.01701    0.00018   -0.05122
 33 Cu   -0.02096   -0.01479   -0.05287
 34 Cu    0.01306    0.00485    0.03107
 35 Cu   -0.00109    0.00906   -0.01844
 36 H    -0.00506    0.02716    0.11575
 37 O     0.02480    0.17131    0.24937
 38 C    -0.14774   -0.05967   -0.00534
 39 C     0.14591   -0.28305   -0.06356
 40 O    -0.08289   -0.00622    0.09543

BFGS:    5 02:29:29    -2801.019785        0.3247
System changes: positions 

Initializing position-dependent things.

Density initialized from wave functions
                                           
                                           
                                           
                                           
                                           
                                           
                                           
                   O                       
                 HC                        
           Cu    Ou    Cu                  
            Cu   C Cu    Cu                
            Cu    Cu    Cu                 
             CCu    Cu    CCu              
                                           
              CCu    Cu    CCu             
                Cu    Cu     Cu            
                                           
           Cu    CCu   CCu    Cu           
            Cu     Cu    Cu                
                                           
              Cu    Cu     Cu              
                                           
                                           
                                           
                                           

Positions:
   0 Cu     0.000000    0.000000    9.999999    ( 0.0000,  0.0000,  0.0000)
   1 Cu     1.303035    0.752307   12.127846    ( 0.0000,  0.0000,  0.0000)
   2 Cu     0.001869    1.503442   14.254473    ( 0.0000,  0.0000,  0.0000)
   3 Cu    -0.006201   -0.006982   16.406211    ( 0.0000,  0.0000,  0.0000)
   4 Cu    -1.303035    2.256922    9.999999    ( 0.0000,  0.0000,  0.0000)
   5 Cu     0.000000    3.009230   12.127846    ( 0.0000,  0.0000,  0.0000)
   6 Cu    -1.302057    3.763216   14.264242    ( 0.0000,  0.0000,  0.0000)
   7 Cu    -1.305504    2.258066   16.398107    ( 0.0000,  0.0000,  0.0000)
   8 Cu    -2.606069    4.513845    9.999999    ( 0.0000,  0.0000,  0.0000)
   9 Cu    -1.303035    5.266152   12.127846    ( 0.0000,  0.0000,  0.0000)
  10 Cu    -2.605886    6.019280   14.248298    ( 0.0000,  0.0000,  0.0000)
  11 Cu    -2.605785    4.500270   16.386335    ( 0.0000,  0.0000,  0.0000)
  12 Cu     2.606069    0.000000    9.999999    ( 0.0000,  0.0000,  0.0000)
  13 Cu     3.909104    0.752307   12.127846    ( 0.0000,  0.0000,  0.0000)
  14 Cu     2.604618    1.504134   14.254694    ( 0.0000,  0.0000,  0.0000)
  15 Cu     2.617444   -0.006290   16.396782    ( 0.0000,  0.0000,  0.0000)
  16 Cu     1.303035    2.256922    9.999999    ( 0.0000,  0.0000,  0.0000)
  17 Cu     2.606069    3.009230   12.127846    ( 0.0000,  0.0000,  0.0000)
  18 Cu     1.303282    3.760311   14.252809    ( 0.0000,  0.0000,  0.0000)
  19 Cu     1.302057    2.308328   16.381752    ( 0.0000,  0.0000,  0.0000)
  20 Cu     0.000000    4.513845    9.999999    ( 0.0000,  0.0000,  0.0000)
  21 Cu     1.303035    5.266152   12.127846    ( 0.0000,  0.0000,  0.0000)
  22 Cu    -0.003420    6.019062   14.266051    ( 0.0000,  0.0000,  0.0000)
  23 Cu     0.001593    4.514409   16.393127    ( 0.0000,  0.0000,  0.0000)
  24 Cu     5.212139    0.000000    9.999999    ( 0.0000,  0.0000,  0.0000)
  25 Cu     6.515174    0.752307   12.127846    ( 0.0000,  0.0000,  0.0000)
  26 Cu     5.212121    1.503689   14.263938    ( 0.0000,  0.0000,  0.0000)
  27 Cu     5.212820   -0.000592   16.392665    ( 0.0000,  0.0000,  0.0000)
  28 Cu     3.909104    2.256922    9.999999    ( 0.0000,  0.0000,  0.0000)
  29 Cu     5.212139    3.009230   12.127846    ( 0.0000,  0.0000,  0.0000)
  30 Cu     3.908475    3.763264   14.264682    ( 0.0000,  0.0000,  0.0000)
  31 Cu     3.911738    2.257375   16.396590    ( 0.0000,  0.0000,  0.0000)
  32 Cu     2.606069    4.513845    9.999999    ( 0.0000,  0.0000,  0.0000)
  33 Cu     3.909104    5.266152   12.127846    ( 0.0000,  0.0000,  0.0000)
  34 Cu     2.610026    6.018990   14.266828    ( 0.0000,  0.0000,  0.0000)
  35 Cu     2.604541    4.514822   16.392274    ( 0.0000,  0.0000,  0.0000)
  36 H      1.367601   -0.275285   19.812655    ( 0.0000,  0.0000,  0.0000)
  37 O      1.348082   -0.688473   18.933935    ( 0.0000,  0.0000,  0.0000)
  38 C      1.320043    0.264504   17.937823    ( 0.0000,  0.0000,  0.0000)
  39 C      1.309744    1.648238   18.303742    ( 0.0000,  0.0000,  0.0000)
  40 O      1.310067    2.248003   19.353532    ( 0.0000,  0.0000,  0.0000)

Unit cell:
           periodic     x           y           z      points  spacing
  1. axis:    yes    7.818208    0.000000    0.000000    36     0.1881
  2. axis:    yes   -3.909104    6.770767    0.000000    36     0.1881
  3. axis:    no     0.000000    0.000000   26.383539   148     0.1783

  Lengths:   7.818208   7.818208  26.383539
  Angles:   90.000000  90.000000 120.000000

Effective grid spacing dv^(1/3) = 0.1938

     iter     time        total  log10-change:
                         energy  eigst   dens
iter:   1 02:30:24 -2801.092897  -2.53
iter:   2 02:30:47 -2801.058836  -3.14  -2.73
iter:   3 02:31:09 -2801.037794c -3.74  -2.88
iter:   4 02:31:32 -2801.030996c -4.21  -3.17
iter:   5 02:31:55 -2801.030832c -4.03  -3.53
iter:   6 02:32:17 -2801.030057c -4.70  -3.58
iter:   7 02:32:40 -2801.029715c -4.94  -3.85
iter:   8 02:33:03 -2801.030085c -5.06  -4.00
iter:   9 02:33:26 -2801.029790c -5.55  -3.85
iter:  10 02:33:49 -2801.029741c -6.28  -4.17c
iter:  11 02:34:11 -2801.029682c -5.93  -4.29c
iter:  12 02:34:34 -2801.029716c -6.09  -4.52c
iter:  13 02:34:57 -2801.029709c -6.95  -4.66c
iter:  14 02:35:20 -2801.029709c -6.76  -4.66c
iter:  15 02:35:42 -2801.029701c -7.32  -4.80c
iter:  16 02:36:05 -2801.029704c -7.89c -4.87c

Converged after 16 iterations.

Dipole moment: (-2.626093, -8.975660, -0.102147) |e|*Ang

Energy contributions relative to reference atoms: (reference = -1626921.717276)

Kinetic:       +260.984030
Potential:     -302.568903
External:        +0.000000
XC:            -2762.317329
Entropy (-ST):   -0.422818
Local:           +3.083907
--------------------------
Free energy:   -2801.241113
Extrapolated:  -2801.029704

Showing only first 2 kpts
 Kpt  Band  Eigenvalues  Occupancy
  0   206     -5.38943    1.94776
  0   207     -5.15527    1.56384
  0   208     -5.07622    1.23854
  0   209     -4.98923    0.81055

  1   206     -5.81575    1.99925
  1   207     -5.64935    1.99602
  1   208     -5.48077    1.97871
  1   209     -5.23489    1.77653


Fermi level: -5.02758

No gap

Forces in eV/Ang:
  0 Cu    0.02360    0.02145   -0.05775
  1 Cu   -0.00450    0.01716   -0.09751
  2 Cu    0.00020    0.00092    0.00182
  3 Cu    0.01543    0.02522    0.02733
  4 Cu   -0.00000    0.00367   -0.07319
  5 Cu   -0.02871    0.00321   -0.02817
  6 Cu    0.00116   -0.00591   -0.00366
  7 Cu    0.00817   -0.00442   -0.00040
  8 Cu    0.00649    0.00099   -0.07630
  9 Cu    0.00666   -0.01934   -0.04687
 10 Cu   -0.00064    0.00277   -0.02799
 11 Cu    0.00239    0.01047   -0.04625
 12 Cu   -0.02112    0.01479   -0.06946
 13 Cu    0.01913    0.00101   -0.01531
 14 Cu    0.00098   -0.00025   -0.00654
 15 Cu   -0.05208    0.02709    0.04160
 16 Cu   -0.00193   -0.02493   -0.04146
 17 Cu    0.01996    0.00925   -0.02785
 18 Cu   -0.00106    0.01011   -0.03710
 19 Cu    0.01604    0.25502   -0.00068
 20 Cu    0.01043    0.00406   -0.07157
 21 Cu    0.00526    0.03347   -0.02121
 22 Cu    0.00234    0.00348    0.00787
 23 Cu   -0.00958    0.01523   -0.00957
 24 Cu   -0.00350   -0.01070   -0.09215
 25 Cu   -0.02635   -0.00985   -0.02183
 26 Cu   -0.00165    0.00223    0.00478
 27 Cu    0.00023    0.00118   -0.00726
 28 Cu   -0.00290   -0.00228   -0.06811
 29 Cu   -0.00310    0.00655    0.00330
 30 Cu   -0.00046   -0.00576   -0.00083
 31 Cu   -0.01164   -0.00540    0.00388
 32 Cu   -0.01672    0.00003   -0.05279
 33 Cu   -0.02367   -0.01588   -0.05551
 34 Cu    0.00097    0.00415    0.01647
 35 Cu    0.00796    0.01462   -0.01226
 36 H    -0.00716    0.07113    0.06593
 37 O    -0.01807   -0.09451    0.37099
 38 C    -0.07886   -0.16001   -0.10860
 39 C     0.06384    0.02945   -0.12086
 40 O    -0.03310    0.03010    0.17398

BFGS:    6 02:36:17    -2801.029704        0.3833
System changes: positions 

Initializing position-dependent things.

Density initialized from wave functions
                                           
                                           
                                           
                                           
                                           
                                           
                                           
                   O                       
                 HC                        
           Cu    Ou    Cu                  
            Cu   C Cu    Cu                
            Cu    Cu    Cu                 
             CCu    Cu    CCu              
                                           
              CCu    Cu    CCu             
                Cu    Cu     Cu            
                                           
           Cu    CCu   CCu    Cu           
            Cu     Cu    Cu                
                                           
              Cu    Cu     Cu              
                                           
                                           
                                           
                                           

Positions:
   0 Cu     0.000000    0.000000    9.999999    ( 0.0000,  0.0000,  0.0000)
   1 Cu     1.303035    0.752307   12.127846    ( 0.0000,  0.0000,  0.0000)
   2 Cu     0.002016    1.503309   14.253450    ( 0.0000,  0.0000,  0.0000)
   3 Cu    -0.006053   -0.006765   16.409206    ( 0.0000,  0.0000,  0.0000)
   4 Cu    -1.303035    2.256922    9.999999    ( 0.0000,  0.0000,  0.0000)
   5 Cu     0.000000    3.009230   12.127846    ( 0.0000,  0.0000,  0.0000)
   6 Cu    -1.301890    3.763218   14.264591    ( 0.0000,  0.0000,  0.0000)
   7 Cu    -1.305555    2.258056   16.398440    ( 0.0000,  0.0000,  0.0000)
   8 Cu    -2.606069    4.513845    9.999999    ( 0.0000,  0.0000,  0.0000)
   9 Cu    -1.303035    5.266152   12.127846    ( 0.0000,  0.0000,  0.0000)
  10 Cu    -2.605883    6.019420   14.245598    ( 0.0000,  0.0000,  0.0000)
  11 Cu    -2.605638    4.498768   16.383569    ( 0.0000,  0.0000,  0.0000)
  12 Cu     2.606069    0.000000    9.999999    ( 0.0000,  0.0000,  0.0000)
  13 Cu     3.909104    0.752307   12.127846    ( 0.0000,  0.0000,  0.0000)
  14 Cu     2.604572    1.504094   14.253400    ( 0.0000,  0.0000,  0.0000)
  15 Cu     2.616755   -0.005943   16.398845    ( 0.0000,  0.0000,  0.0000)
  16 Cu     1.303035    2.256922    9.999999    ( 0.0000,  0.0000,  0.0000)
  17 Cu     2.606069    3.009230   12.127846    ( 0.0000,  0.0000,  0.0000)
  18 Cu     1.303266    3.760592   14.250201    ( 0.0000,  0.0000,  0.0000)
  19 Cu     1.302434    2.321573   16.381751    ( 0.0000,  0.0000,  0.0000)
  20 Cu     0.000000    4.513845    9.999999    ( 0.0000,  0.0000,  0.0000)
  21 Cu     1.303035    5.266152   12.127846    ( 0.0000,  0.0000,  0.0000)
  22 Cu    -0.003806    6.019262   14.267078    ( 0.0000,  0.0000,  0.0000)
  23 Cu     0.001522    4.514859   16.392476    ( 0.0000,  0.0000,  0.0000)
  24 Cu     5.212139    0.000000    9.999999    ( 0.0000,  0.0000,  0.0000)
  25 Cu     6.515174    0.752307   12.127846    ( 0.0000,  0.0000,  0.0000)
  26 Cu     5.212048    1.503648   14.264585    ( 0.0000,  0.0000,  0.0000)
  27 Cu     5.213001   -0.000608   16.391935    ( 0.0000,  0.0000,  0.0000)
  28 Cu     3.909104    2.256922    9.999999    ( 0.0000,  0.0000,  0.0000)
  29 Cu     5.212139    3.009230   12.127846    ( 0.0000,  0.0000,  0.0000)
  30 Cu     3.908397    3.763282   14.265196    ( 0.0000,  0.0000,  0.0000)
  31 Cu     3.911686    2.257243   16.396827    ( 0.0000,  0.0000,  0.0000)
  32 Cu     2.606069    4.513845    9.999999    ( 0.0000,  0.0000,  0.0000)
  33 Cu     3.909104    5.266152   12.127846    ( 0.0000,  0.0000,  0.0000)
  34 Cu     2.610635    6.019228   14.268299    ( 0.0000,  0.0000,  0.0000)
  35 Cu     2.604543    4.515330   16.391394    ( 0.0000,  0.0000,  0.0000)
  36 H      1.367353   -0.271675   19.821356    ( 0.0000,  0.0000,  0.0000)
  37 O      1.348320   -0.683870   18.943473    ( 0.0000,  0.0000,  0.0000)
  38 C      1.313072    0.261285   17.938804    ( 0.0000,  0.0000,  0.0000)
  39 C      1.316676    1.638690   18.306329    ( 0.0000,  0.0000,  0.0000)
  40 O      1.306110    2.244341   19.352723    ( 0.0000,  0.0000,  0.0000)

Unit cell:
           periodic     x           y           z      points  spacing
  1. axis:    yes    7.818208    0.000000    0.000000    36     0.1881
  2. axis:    yes   -3.909104    6.770767    0.000000    36     0.1881
  3. axis:    no     0.000000    0.000000   26.383539   148     0.1783

  Lengths:   7.818208   7.818208  26.383539
  Angles:   90.000000  90.000000 120.000000

Effective grid spacing dv^(1/3) = 0.1938

     iter     time        total  log10-change:
                         energy  eigst   dens
iter:   1 02:37:13 -2801.046655  -2.74
iter:   2 02:37:35 -2801.041356  -3.51  -3.13
iter:   3 02:37:58 -2801.038669c -4.08  -3.29
iter:   4 02:38:21 -2801.037118c -4.43  -3.44
iter:   5 02:38:44 -2801.037235c -4.41  -3.71
iter:   6 02:39:07 -2801.036996c -4.89  -3.86
iter:   7 02:39:30 -2801.036837c -5.38  -4.04c
iter:   8 02:39:53 -2801.036928c -5.58  -4.14c
iter:   9 02:40:16 -2801.036901c -5.98  -4.13c
iter:  10 02:40:39 -2801.036841c -6.61  -4.33c
iter:  11 02:41:02 -2801.036822c -6.48  -4.55c
iter:  12 02:41:24 -2801.036836c -6.69  -4.72c
iter:  13 02:41:47 -2801.036819c -6.88  -4.80c
iter:  14 02:42:10 -2801.036831c -7.19  -4.85c
iter:  15 02:42:33 -2801.036828c -7.94c -5.12c

Converged after 15 iterations.

Dipole moment: (-2.593370, -8.982257, -0.102303) |e|*Ang

Energy contributions relative to reference atoms: (reference = -1626921.717276)

Kinetic:       +261.198031
Potential:     -302.734550
External:        +0.000000
XC:            -2762.369922
Entropy (-ST):   -0.421946
Local:           +3.080586
--------------------------
Free energy:   -2801.247801
Extrapolated:  -2801.036828

Showing only first 2 kpts
 Kpt  Band  Eigenvalues  Occupancy
  0   206     -5.38688    1.94638
  0   207     -5.15558    1.56447
  0   208     -5.07861    1.24918
  0   209     -4.98525    0.79088

  1   206     -5.81658    1.99925
  1   207     -5.64877    1.99599
  1   208     -5.47946    1.97840
  1   209     -5.23443    1.77536


Fermi level: -5.02770

No gap

Forces in eV/Ang:
  0 Cu    0.02344    0.02150   -0.05686
  1 Cu   -0.00448    0.01832   -0.10260
  2 Cu    0.00033    0.00283    0.02210
  3 Cu    0.00911    0.02878   -0.00692
  4 Cu    0.00023    0.00399   -0.07268
  5 Cu   -0.03057    0.00280   -0.03101
  6 Cu   -0.00075   -0.00816   -0.01297
  7 Cu    0.01356   -0.00557   -0.00598
  8 Cu    0.00683    0.00084   -0.07535
  9 Cu    0.00890   -0.02026   -0.04806
 10 Cu   -0.00101    0.00311   -0.00908
 11 Cu    0.00131    0.03899   -0.03349
 12 Cu   -0.02101    0.01447   -0.06866
 13 Cu    0.02087   -0.00018   -0.01529
 14 Cu    0.00000   -0.00075    0.01211
 15 Cu   -0.05729    0.03048    0.02609
 16 Cu   -0.00215   -0.02477   -0.04118
 17 Cu    0.02192    0.00995   -0.03066
 18 Cu   -0.00117    0.01229   -0.02757
 19 Cu    0.02304    0.28095    0.02650
 20 Cu    0.00999    0.00386   -0.07046
 21 Cu    0.00616    0.03724   -0.02035
 22 Cu    0.00810    0.00303   -0.00308
 23 Cu   -0.01739    0.02257   -0.00487
 24 Cu   -0.00355   -0.01078   -0.09111
 25 Cu   -0.02804   -0.01089   -0.02064
 26 Cu   -0.00117    0.00342   -0.00348
 27 Cu   -0.00403    0.00335   -0.00041
 28 Cu   -0.00295   -0.00185   -0.06677
 29 Cu   -0.00313    0.00613    0.00535
 30 Cu    0.00022   -0.00812   -0.01067
 31 Cu   -0.01646   -0.00574    0.00291
 32 Cu   -0.01652   -0.00013   -0.05207
 33 Cu   -0.02650   -0.01706   -0.05719
 34 Cu   -0.00696    0.00306    0.00360
 35 Cu    0.01609    0.02054   -0.00603
 36 H    -0.00986    0.12862    0.07403
 37 O    -0.03554   -0.24378    0.26988
 38 C    -0.03739   -0.23533   -0.02860
 39 C     0.00511    0.20526   -0.15667
 40 O     0.00008    0.01101    0.14375

BFGS:    7 02:42:45    -2801.036828        0.3654
System changes: positions 

Initializing position-dependent things.

Density initialized from wave functions
                                           
                                           
                                           
                                           
                                           
                                           
                                           
                   O                       
                 H                         
           Cu    OC    Cu                  
            Cu   C Cu    Cu                
            Cu    Cu    Cu                 
             CCu    Cu    CCu              
                                           
              CCu    Cu    CCu             
                Cu    Cu     Cu            
                                           
           Cu    CCu   CCu    Cu           
            Cu     Cu    Cu                
                                           
              Cu    Cu     Cu              
                                           
                                           
                                           
                                           

Positions:
   0 Cu     0.000000    0.000000    9.999999    ( 0.0000,  0.0000,  0.0000)
   1 Cu     1.303035    0.752307   12.127846    ( 0.0000,  0.0000,  0.0000)
   2 Cu     0.002334    1.503103   14.251934    ( 0.0000,  0.0000,  0.0000)
   3 Cu    -0.005624   -0.005716   16.415058    ( 0.0000,  0.0000,  0.0000)
   4 Cu    -1.303035    2.256922    9.999999    ( 0.0000,  0.0000,  0.0000)
   5 Cu     0.000000    3.009230   12.127846    ( 0.0000,  0.0000,  0.0000)
   6 Cu    -1.301571    3.763044   14.264974    ( 0.0000,  0.0000,  0.0000)
   7 Cu    -1.305345    2.257918   16.398970    ( 0.0000,  0.0000,  0.0000)
   8 Cu    -2.606069    4.513845    9.999999    ( 0.0000,  0.0000,  0.0000)
   9 Cu    -1.303035    5.266152   12.127846    ( 0.0000,  0.0000,  0.0000)
  10 Cu    -2.605902    6.019780   14.239920    ( 0.0000,  0.0000,  0.0000)
  11 Cu    -2.605312    4.496665   16.377242    ( 0.0000,  0.0000,  0.0000)
  12 Cu     2.606069    0.000000    9.999999    ( 0.0000,  0.0000,  0.0000)
  13 Cu     3.909104    0.752307   12.127846    ( 0.0000,  0.0000,  0.0000)
  14 Cu     2.604464    1.503992   14.251099    ( 0.0000,  0.0000,  0.0000)
  15 Cu     2.614137   -0.004596   16.403549    ( 0.0000,  0.0000,  0.0000)
  16 Cu     1.303035    2.256922    9.999999    ( 0.0000,  0.0000,  0.0000)
  17 Cu     2.606069    3.009230   12.127846    ( 0.0000,  0.0000,  0.0000)
  18 Cu     1.303210    3.761450   14.244238    ( 0.0000,  0.0000,  0.0000)
  19 Cu     1.303758    2.355165   16.382783    ( 0.0000,  0.0000,  0.0000)
  20 Cu     0.000000    4.513845    9.999999    ( 0.0000,  0.0000,  0.0000)
  21 Cu     1.303035    5.266152   12.127846    ( 0.0000,  0.0000,  0.0000)
  22 Cu    -0.004406    6.019741   14.269068    ( 0.0000,  0.0000,  0.0000)
  23 Cu     0.000945    4.516329   16.391066    ( 0.0000,  0.0000,  0.0000)
  24 Cu     5.212139    0.000000    9.999999    ( 0.0000,  0.0000,  0.0000)
  25 Cu     6.515174    0.752307   12.127846    ( 0.0000,  0.0000,  0.0000)
  26 Cu     5.211879    1.503637   14.265797    ( 0.0000,  0.0000,  0.0000)
  27 Cu     5.213259   -0.000548   16.390458    ( 0.0000,  0.0000,  0.0000)
  28 Cu     3.909104    2.256922    9.999999    ( 0.0000,  0.0000,  0.0000)
  29 Cu     5.212139    3.009230   12.127846    ( 0.0000,  0.0000,  0.0000)
  30 Cu     3.908244    3.763138   14.265967    ( 0.0000,  0.0000,  0.0000)
  31 Cu     3.911210    2.256852   16.397372    ( 0.0000,  0.0000,  0.0000)
  32 Cu     2.606069    4.513845    9.999999    ( 0.0000,  0.0000,  0.0000)
  33 Cu     3.909104    5.266152   12.127846    ( 0.0000,  0.0000,  0.0000)
  34 Cu     2.611705    6.019779   14.271335    ( 0.0000,  0.0000,  0.0000)
  35 Cu     2.604952    4.516868   16.389493    ( 0.0000,  0.0000,  0.0000)
  36 H      1.366604   -0.261046   19.841073    ( 0.0000,  0.0000,  0.0000)
  37 O      1.348123   -0.679591   18.966986    ( 0.0000,  0.0000,  0.0000)
  38 C      1.297995    0.248535   17.942160    ( 0.0000,  0.0000,  0.0000)
  39 C      1.330821    1.624473   18.308923    ( 0.0000,  0.0000,  0.0000)
  40 O      1.297989    2.236207   19.352560    ( 0.0000,  0.0000,  0.0000)

Unit cell:
           periodic     x           y           z      points  spacing
  1. axis:    yes    7.818208    0.000000    0.000000    36     0.1881
  2. axis:    yes   -3.909104    6.770767    0.000000    36     0.1881
  3. axis:    no     0.000000    0.000000   26.383539   148     0.1783

  Lengths:   7.818208   7.818208  26.383539
  Angles:   90.000000  90.000000 120.000000

Effective grid spacing dv^(1/3) = 0.1938

     iter     time        total  log10-change:
                         energy  eigst   dens
iter:   1 02:43:40 -2801.059965  -2.09
iter:   2 02:44:03 -2801.055524  -2.94  -3.07
iter:   3 02:44:26 -2801.052208c -3.51  -3.12
iter:   4 02:44:48 -2801.049611c -3.50  -3.24
iter:   5 02:45:11 -2801.048457c -4.29  -3.53
iter:   6 02:45:34 -2801.048790c -4.13  -3.57
iter:   7 02:45:56 -2801.048293c -4.71  -3.85
[...]
  29 Cu     5.212139    3.009230   12.127846    ( 0.0000,  0.0000,  0.0000)
  30 Cu     3.908444    3.762706   14.264356    ( 0.0000,  0.0000,  0.0000)
  31 Cu     3.910307    2.257061   16.397698    ( 0.0000,  0.0000,  0.0000)
  32 Cu     2.606069    4.513845    9.999999    ( 0.0000,  0.0000,  0.0000)
  33 Cu     3.909104    5.266152   12.127846    ( 0.0000,  0.0000,  0.0000)
  34 Cu     2.610731    6.020300   14.268112    ( 0.0000,  0.0000,  0.0000)
  35 Cu     2.607095    4.519889   16.387734    ( 0.0000,  0.0000,  0.0000)
  36 H      1.349600   -0.163563   19.898914    ( 0.0000,  0.0000,  0.0000)
  37 O      1.342207   -0.676061   19.071657    ( 0.0000,  0.0000,  0.0000)
  38 C      1.304614    0.179108   17.993777    ( 0.0000,  0.0000,  0.0000)
  39 C      1.306350    1.603085   18.288418    ( 0.0000,  0.0000,  0.0000)
  40 O      1.298448    2.175921   19.358836    ( 0.0000,  0.0000,  0.0000)

Unit cell:
           periodic     x           y           z      points  spacing
  1. axis:    yes    7.818208    0.000000    0.000000    36     0.1881
  2. axis:    yes   -3.909104    6.770767    0.000000    36     0.1881
  3. axis:    no     0.000000    0.000000   26.383539   148     0.1783

  Lengths:   7.818208   7.818208  26.383539
  Angles:   90.000000  90.000000 120.000000

Effective grid spacing dv^(1/3) = 0.1938

     iter     time        total  log10-change:
                         energy  eigst   dens
iter:   1 03:53:26 -2801.081527  -3.19
iter:   2 03:53:49 -2801.080642  -4.04  -3.52
iter:   3 03:54:12 -2801.080293c -4.61  -3.59
iter:   4 03:54:35 -2801.079747c -4.63  -3.73
iter:   5 03:54:57 -2801.079700c -5.43  -3.99
iter:   6 03:55:20 -2801.079791c -5.32  -4.17c
iter:   7 03:55:43 -2801.079716c -5.82  -4.25c
iter:   8 03:56:06 -2801.079712c -6.17  -4.54c
iter:   9 03:56:28 -2801.079712c -6.76  -4.66c
iter:  10 03:56:51 -2801.079683c -6.39  -4.74c
iter:  11 03:57:14 -2801.079687c -7.11  -4.95c
iter:  12 03:57:37 -2801.079695c -7.06  -5.13c
iter:  13 03:58:00 -2801.079699c -7.41c -5.17c

Converged after 13 iterations.

Dipole moment: (-2.335633, -9.706644, -0.155455) |e|*Ang

Energy contributions relative to reference atoms: (reference = -1626921.717276)

Kinetic:       +258.551501
Potential:     -300.775036
External:        +0.000000
XC:            -2761.724401
Entropy (-ST):   -0.423097
Local:           +3.079786
--------------------------
Free energy:   -2801.291247
Extrapolated:  -2801.079699

Showing only first 2 kpts
 Kpt  Band  Eigenvalues  Occupancy
  0   206     -5.45371    1.95063
  0   207     -5.23004    1.61688
  0   208     -5.11576    1.14747
  0   209     -5.05018    0.82255

  1   206     -5.89174    1.99937
  1   207     -5.69712    1.99557
  1   208     -5.51792    1.97372
  1   209     -5.30354    1.79595


Fermi level: -5.08605

No gap

Forces in eV/Ang:
  0 Cu    0.02727    0.02480   -0.05850
  1 Cu   -0.00393    0.02698   -0.08891
  2 Cu    0.00625    0.00176   -0.00068
  3 Cu    0.03335   -0.00089   -0.00772
  4 Cu    0.00175    0.00316   -0.07263
  5 Cu   -0.02809   -0.00575   -0.01959
  6 Cu   -0.00055    0.00377   -0.00474
  7 Cu   -0.00140    0.00406   -0.00784
  8 Cu    0.00482    0.00012   -0.07280
  9 Cu    0.01007   -0.01915   -0.04150
 10 Cu   -0.00033    0.00031    0.00697
 11 Cu   -0.00253    0.02651    0.00990
 12 Cu   -0.02430    0.01711   -0.06659
 13 Cu    0.01240    0.00577   -0.00292
 14 Cu   -0.00458   -0.00164   -0.01045
 15 Cu   -0.02604   -0.00440    0.01614
 16 Cu   -0.00291   -0.02972   -0.04377
 17 Cu    0.02003    0.00194   -0.02065
 18 Cu    0.00013   -0.00143   -0.01490
 19 Cu    0.01360   -0.01700    0.01602
 20 Cu    0.01269    0.00492   -0.06824
 21 Cu    0.00560    0.03473   -0.02844
 22 Cu   -0.00249   -0.00075   -0.00059
 23 Cu   -0.00984    0.01431    0.01349
 24 Cu   -0.00530   -0.01296   -0.08725
 25 Cu   -0.01981   -0.00216   -0.00674
 26 Cu   -0.00015   -0.00064   -0.00399
 27 Cu   -0.01165    0.00299   -0.00205
 28 Cu   -0.00387   -0.00203   -0.06627
 29 Cu   -0.00371    0.00432    0.00111
 30 Cu   -0.00089    0.00161   -0.00222
 31 Cu    0.00274   -0.00011    0.00254
 32 Cu   -0.01759    0.00001   -0.05059
 33 Cu   -0.02679   -0.01828   -0.05181
 34 Cu   -0.00268   -0.00255    0.00748
 35 Cu    0.00941    0.01460    0.01127
 36 H    -0.02094    0.01134    0.01844
 37 O     0.00861    0.04133   -0.05732
 38 C    -0.00539    0.03825    0.02571
 39 C     0.02241   -0.00048   -0.01467
 40 O    -0.01178    0.01243   -0.00435

BFGS:   20 03:58:11    -2801.079699        0.0712
System changes: positions 

Initializing position-dependent things.

Density initialized from wave functions
                                           
                                           
                                           
                                           
                                           
                                           
                                           
                   O                       
                 H                         
           Cu    OC    Cu                  
            Cu   C Cu    Cu                
            Cu    Cu    Cu                 
             CCu    Cu    CCu              
                                           
              CCu    Cu    CCu             
                Cu    Cu     Cu            
                                           
           Cu    CCu   CCu    Cu           
            Cu     Cu    Cu                
                                           
              Cu    Cu     Cu              
                                           
                                           
                                           
                                           

Positions:
   0 Cu     0.000000    0.000000    9.999999    ( 0.0000,  0.0000,  0.0000)
   1 Cu     1.303035    0.752307   12.127846    ( 0.0000,  0.0000,  0.0000)
   2 Cu     0.003583    1.503163   14.262721    ( 0.0000,  0.0000,  0.0000)
   3 Cu    -0.003464   -0.006672   16.424658    ( 0.0000,  0.0000,  0.0000)
   4 Cu    -1.303035    2.256922    9.999999    ( 0.0000,  0.0000,  0.0000)
   5 Cu     0.000000    3.009230   12.127846    ( 0.0000,  0.0000,  0.0000)
   6 Cu    -1.301905    3.762769   14.263276    ( 0.0000,  0.0000,  0.0000)
   7 Cu    -1.304269    2.258115   16.399273    ( 0.0000,  0.0000,  0.0000)
   8 Cu    -2.606069    4.513845    9.999999    ( 0.0000,  0.0000,  0.0000)
   9 Cu    -1.303035    5.266152   12.127846    ( 0.0000,  0.0000,  0.0000)
  10 Cu    -2.606019    6.020674   14.245530    ( 0.0000,  0.0000,  0.0000)
  11 Cu    -2.605563    4.504134   16.379206    ( 0.0000,  0.0000,  0.0000)
  12 Cu     2.606069    0.000000    9.999999    ( 0.0000,  0.0000,  0.0000)
  13 Cu     3.909104    0.752307   12.127846    ( 0.0000,  0.0000,  0.0000)
  14 Cu     2.603086    1.503624   14.262048    ( 0.0000,  0.0000,  0.0000)
  15 Cu     2.610290   -0.005157   16.417089    ( 0.0000,  0.0000,  0.0000)
  16 Cu     1.303035    2.256922    9.999999    ( 0.0000,  0.0000,  0.0000)
  17 Cu     2.606069    3.009230   12.127846    ( 0.0000,  0.0000,  0.0000)
  18 Cu     1.303288    3.761689   14.247564    ( 0.0000,  0.0000,  0.0000)
  19 Cu     1.304672    2.371225   16.411674    ( 0.0000,  0.0000,  0.0000)
  20 Cu     0.000000    4.513845    9.999999    ( 0.0000,  0.0000,  0.0000)
  21 Cu     1.303035    5.266152   12.127846    ( 0.0000,  0.0000,  0.0000)
  22 Cu    -0.003805    6.020256   14.267533    ( 0.0000,  0.0000,  0.0000)
  23 Cu    -0.001578    4.520649   16.390320    ( 0.0000,  0.0000,  0.0000)
  24 Cu     5.212139    0.000000    9.999999    ( 0.0000,  0.0000,  0.0000)
  25 Cu     6.515174    0.752307   12.127846    ( 0.0000,  0.0000,  0.0000)
  26 Cu     5.212058    1.503816   14.264420    ( 0.0000,  0.0000,  0.0000)
  27 Cu     5.212341    0.000294   16.393756    ( 0.0000,  0.0000,  0.0000)
  28 Cu     3.909104    2.256922    9.999999    ( 0.0000,  0.0000,  0.0000)
  29 Cu     5.212139    3.009230   12.127846    ( 0.0000,  0.0000,  0.0000)
  30 Cu     3.908319    3.762777   14.263996    ( 0.0000,  0.0000,  0.0000)
  31 Cu     3.910648    2.257229   16.397799    ( 0.0000,  0.0000,  0.0000)
  32 Cu     2.606069    4.513845    9.999999    ( 0.0000,  0.0000,  0.0000)
  33 Cu     3.909104    5.266152   12.127846    ( 0.0000,  0.0000,  0.0000)
  34 Cu     2.610538    6.020139   14.268284    ( 0.0000,  0.0000,  0.0000)
  35 Cu     2.607646    4.521015   16.388360    ( 0.0000,  0.0000,  0.0000)
  36 H      1.352891   -0.183638   19.888554    ( 0.0000,  0.0000,  0.0000)
  37 O      1.344878   -0.677522   19.050191    ( 0.0000,  0.0000,  0.0000)
  38 C      1.304788    0.192910   17.985986    ( 0.0000,  0.0000,  0.0000)
  39 C      1.308830    1.611526   18.289032    ( 0.0000,  0.0000,  0.0000)
  40 O      1.300554    2.187654   19.357396    ( 0.0000,  0.0000,  0.0000)

Unit cell:
           periodic     x           y           z      points  spacing
  1. axis:    yes    7.818208    0.000000    0.000000    36     0.1881
  2. axis:    yes   -3.909104    6.770767    0.000000    36     0.1881
  3. axis:    no     0.000000    0.000000   26.383539   148     0.1783

  Lengths:   7.818208   7.818208  26.383539
  Angles:   90.000000  90.000000 120.000000

Effective grid spacing dv^(1/3) = 0.1938

     iter     time        total  log10-change:
                         energy  eigst   dens
iter:   1 03:59:07 -2801.080768  -2.55
iter:   2 03:59:29 -2801.080710  -3.39  -3.35
iter:   3 03:59:52 -2801.080149c -3.92  -3.46
iter:   4 04:00:15 -2801.080051c -4.16  -3.56
iter:   5 04:00:37 -2801.079425c -4.78  -3.68
iter:   6 04:01:00 -2801.079437c -4.81  -3.89
iter:   7 04:01:23 -2801.079635c -5.14  -4.12c
iter:   8 04:01:45 -2801.079406c -5.40  -4.11c
iter:   9 04:02:08 -2801.079475c -5.76  -4.31c
iter:  10 04:02:30 -2801.079426c -6.10  -4.35c
iter:  11 04:02:53 -2801.079403c -6.22  -4.49c
iter:  12 04:03:15 -2801.079406c -6.55  -4.74c
iter:  13 04:03:38 -2801.079417c -6.86  -4.77c
iter:  14 04:04:01 -2801.079407c -7.24  -5.07c
iter:  15 04:04:23 -2801.079403c -7.53c -5.09c

Converged after 15 iterations.

Dipole moment: (-2.468306, -9.606275, -0.146125) |e|*Ang

Energy contributions relative to reference atoms: (reference = -1626921.717276)

Kinetic:       +258.924793
Potential:     -301.054182
External:        +0.000000
XC:            -2761.817243
Entropy (-ST):   -0.422836
Local:           +3.078647
--------------------------
Free energy:   -2801.290821
Extrapolated:  -2801.079403

Showing only first 2 kpts
 Kpt  Band  Eigenvalues  Occupancy
  0   206     -5.44276    1.95021
  0   207     -5.21728    1.60854
  0   208     -5.10832    1.16041
  0   209     -5.04024    0.82324

  1   206     -5.88083    1.99936
  1   207     -5.68804    1.99562
  1   208     -5.50928    1.97409
  1   209     -5.29272    1.79460


Fermi level: -5.07596

No gap

Forces in eV/Ang:
  0 Cu    0.02694    0.02458   -0.05868
  1 Cu   -0.00458    0.02735   -0.09156
  2 Cu   -0.00199    0.00004   -0.00479
  3 Cu   -0.00325    0.00372    0.00390
  4 Cu    0.00174    0.00315   -0.07286
  5 Cu   -0.02991   -0.00662   -0.02407
  6 Cu   -0.00021   -0.00064    0.00128
  7 Cu   -0.00009   -0.00034   -0.00166
  8 Cu    0.00494    0.00026   -0.07350
  9 Cu    0.01036   -0.01964   -0.04519
 10 Cu   -0.00017   -0.00078    0.00329
 11 Cu    0.00011   -0.00189    0.00759
 12 Cu   -0.02406    0.01697   -0.06737
 13 Cu    0.01370    0.00545   -0.00517
 14 Cu    0.00174   -0.00031   -0.00608
 15 Cu    0.00123    0.00085    0.00899
 16 Cu   -0.00299   -0.02958   -0.04375
 17 Cu    0.02181    0.00180   -0.02553
 18 Cu   -0.00041    0.00145    0.00144
 19 Cu    0.00457    0.00480   -0.00375
 20 Cu    0.01235    0.00490   -0.06889
 21 Cu    0.00604    0.03729   -0.03100
 22 Cu    0.00071   -0.00055    0.00263
 23 Cu    0.00261   -0.00423    0.00758
 24 Cu   -0.00506   -0.01282   -0.08798
 25 Cu   -0.02040   -0.00277   -0.00765
 26 Cu    0.00002    0.00046   -0.00010
 27 Cu    0.00120   -0.00073   -0.00120
 28 Cu   -0.00370   -0.00202   -0.06650
 29 Cu   -0.00375    0.00406   -0.00020
 30 Cu    0.00047   -0.00044    0.00192
 31 Cu   -0.00049    0.00000    0.00120
 32 Cu   -0.01732    0.00020   -0.05115
 33 Cu   -0.02779   -0.01848   -0.05461
 34 Cu   -0.00031   -0.00000    0.00544
 35 Cu   -0.00298   -0.00349    0.00676
 36 H    -0.02316    0.03005   -0.00567
 37 O    -0.00327   -0.01885    0.04416
 38 C    -0.00777   -0.00637   -0.02993
 39 C     0.01032    0.02335   -0.01023
 40 O    -0.00275    0.01199   -0.00493

BFGS:   21 04:04:35    -2801.079403        0.0481
Timing:                                      incl.     excl.
-------------------------------------------------------------------
Density initialized from wave functions:    15.782    15.782   0.2% |
 Symmetrize density:                         0.001     0.001   0.0% |
Forces:                                    252.572   252.572   2.8% ||
Hamiltonian:                                64.083     0.003   0.0% |
 Atomic:                                     2.643     0.017   0.0% |
  XC Correction:                             2.627     2.627   0.0% |
 Calculate atomic Hamiltonians:              0.830     0.830   0.0% |
 Communicate:                                0.259     0.259   0.0% |
 Hartree integrate/restrict:                 0.162     0.162   0.0% |
 Initialize Hamiltonian:                     0.000     0.000   0.0% |
 Poisson:                                    3.193     0.123   0.0% |
  Communicate from 1D:                       0.254     0.254   0.0% |
  Communicate from 2D:                       0.496     0.496   0.0% |
  Communicate to 1D:                         0.151     0.151   0.0% |
  Communicate to 2D:                         0.605     0.605   0.0% |
  FFT 1D:                                    0.854     0.854   0.0% |
  FFT 2D:                                    0.710     0.710   0.0% |
 XC 3D grid:                                56.773    13.571   0.2% |
  VdW-DF integral:                          43.202     2.305   0.0% |
   Convolution:                              3.716     3.716   0.0% |
   FFT:                                      2.614     2.614   0.0% |
   gather:                                  13.031    13.031   0.1% |
   hmm1:                                     0.794     0.794   0.0% |
   hmm2:                                     1.638     1.638   0.0% |
   iFFT:                                     2.466     2.466   0.0% |
   potential:                               12.392     0.301   0.0% |
    collect:                                 0.837     0.837   0.0% |
    p1:                                      7.426     7.426   0.1% |
    p2:                                      2.504     2.504   0.0% |
    sum:                                     1.324     1.324   0.0% |
   splines:                                  4.246     4.246   0.0% |
 vbar:                                       0.219     0.219   0.0% |
LCAO initialization:                         9.941     1.718   0.0% |
 LCAO eigensolver:                           3.461     0.002   0.0% |
  Calculate projections:                     0.000     0.000   0.0% |
  DenseAtomicCorrection:                     0.000     0.000   0.0% |
  Distribute overlap matrix:                 3.265     3.265   0.0% |
  Orbital Layouts:                           0.190     0.190   0.0% |
  Potential matrix:                          0.000     0.000   0.0% |
  Sum over cells:                            0.004     0.004   0.0% |
 LCAO to grid:                               3.890     3.890   0.0% |
 Set positions (LCAO WFS):                   0.872     0.669   0.0% |
  Basic WFS set positions:                   0.001     0.001   0.0% |
  Basis functions set positions:             0.000     0.000   0.0% |
  P tci:                                     0.000     0.000   0.0% |
  ST tci:                                    0.136     0.136   0.0% |
  mktci:                                     0.065     0.065   0.0% |
Redistribute:                                0.012     0.012   0.0% |
SCF-cycle:                                8042.110   105.902   1.2% |
 Davidson:                                6956.384  2329.175  25.9% |---------|
  Apply hamiltonian:                       163.716   163.716   1.8% ||
  Subspace diag:                           636.410     0.045   0.0% |
   calc_h_matrix:                          327.938   170.238   1.9% ||
    Apply hamiltonian:                     157.700   157.700   1.8% ||
   diagonalize:                             16.060    16.060   0.2% |
   rotate_psi:                             292.366   292.366   3.3% ||
  calc. matrices:                         3196.568  1114.217  12.4% |----|
   Apply hamiltonian:                     2082.351  2082.351  23.2% |--------|
  diagonalize:                              82.834    82.834   0.9% |
  rotate_psi:                              547.682   547.682   6.1% |-|
 Density:                                   15.303     0.008   0.0% |
  Atomic density matrices:                   1.815     1.815   0.0% |
  Mix:                                       4.187     4.187   0.0% |
  Multipole moments:                         0.142     0.142   0.0% |
  Pseudo density:                            9.152     9.143   0.1% |
   Symmetrize density:                       0.008     0.008   0.0% |
 Hamiltonian:                              896.251     0.037   0.0% |
  Atomic:                                   39.761     0.239   0.0% |
   XC Correction:                           39.522    39.522   0.4% |
  Calculate atomic Hamiltonians:            12.164    12.164   0.1% |
  Communicate:                               3.968     3.968   0.0% |
  Hartree integrate/restrict:                2.454     2.454   0.0% |
  Poisson:                                  48.148     1.659   0.0% |
   Communicate from 1D:                      3.911     3.911   0.0% |
   Communicate from 2D:                      7.476     7.476   0.1% |
   Communicate to 1D:                        2.251     2.251   0.0% |
   Communicate to 2D:                        9.199     9.199   0.1% |
   FFT 1D:                                  12.937    12.937   0.1% |
   FFT 2D:                                  10.715    10.715   0.1% |
  XC 3D grid:                              789.190   200.674   2.2% ||
   VdW-DF integral:                        588.516    34.906   0.4% |
    Convolution:                            55.962    55.962   0.6% |
    FFT:                                    39.301    39.301   0.4% |
    gather:                                198.602   198.602   2.2% ||
    hmm1:                                   11.375    11.375   0.1% |
    hmm2:                                   24.034    24.034   0.3% |
    iFFT:                                   37.265    37.265   0.4% |
    potential:                             187.069     4.568   0.1% |
     collect:                               12.636    12.636   0.1% |
     p1:                                   112.533   112.533   1.3% ||
     p2:                                    37.998    37.998   0.4% |
     sum:                                   19.334    19.334   0.2% |
    splines:                                 0.002     0.002   0.0% |
  vbar:                                      0.529     0.529   0.0% |
 Orthonormalize:                            68.270     0.004   0.0% |
  calc_s_matrix:                             4.430     4.430   0.0% |
  inverse-cholesky:                         54.923    54.923   0.6% |
  projections:                               0.001     0.001   0.0% |
  rotate_psi_s:                              8.911     8.911   0.1% |
Set symmetry:                                0.002     0.002   0.0% |
Other:                                     609.158   609.158   6.8% |--|
-------------------------------------------------------------------
Total:                                              8993.662 100.0%

Memory usage: 1.23 GiB
Date: Fri Sep 29 04:04:35 2023
