
  ___ ___ ___ _ _ _  
 |   |   |_  | | | | 
 | | | | | . | | | | 
 |__ |  _|___|_____|  22.8.0
 |___|_|             

User:   s204775@c065.nifl.fysik.dtu.dk
Date:   Fri Sep 29 01:35:30 2023
Arch:   x86_64
Pid:    24017
CWD:    /home/cat/s204775/projects/Bachelor_project/OCCOH_missing_features
Python: 3.10.4
gpaw:   /home/modules/software/GPAW/22.8.0-intel-2022a/lib/python3.10/site-packages/gpaw
_gpaw:  /home/modules/software/GPAW/22.8.0-intel-2022a/lib/python3.10/site-packages/
        _gpaw.cpython-310-x86_64-linux-gnu.so
ase:    /home/modules/software/ASE/3.22.1-intel-2022a/lib/python3.10/site-packages/ase (version 3.22.1)
numpy:  /home/modules/software/SciPy-bundle/2022.05-intel-2022a/lib/python3.10/site-packages/numpy (version 1.22.3)
scipy:  /home/modules/software/SciPy-bundle/2022.05-intel-2022a/lib/python3.10/site-packages/scipy (version 1.8.1)
libxc:  5.2.3
units:  Angstrom and eV
cores: 40
OpenMP: False
OMP_NUM_THREADS: 1

Input parameters:
  basis: dzp
  h: 0.18
  kpts: {size: (4, 4, 1)}
  xc: BEEF-vdW

System changes: positions, numbers, cell, pbc, initial_charges, initial_magmoms 

Initialize ...

species:
  Fe:
    name: Iron
    id: 37abbd8d6c3c35915a9b583b742da910
    Z: 26.0
    valence: 8
    core: 18
    charge: 0.0
    file: /home/modules/software/GPAW-setups/0.9.20000/Fe.PBE.gz
    compensation charges: {type: gauss,
                           rc: 0.33,
                           lmax: 2}
    cutoffs: {filter: 2.06,
              core: 2.67}
    valence states:
      #              energy  rcut
      - 4s(2.00)    -5.291   1.164
      - 4p(0.00)    -1.326   1.058
      - 3d(6.00)    -7.505   1.058
      -  s          21.920   1.164
      -  p          25.885   1.058
      -  d          19.706   1.058
  
    # LCAO basis set for Fe:
    #   Name: dzp
    #   File: /home/modules/software/GPAW-setups/0.9.20000/Fe.dzp.basis.gz
    #   Number of radial functions: 5
    #   Number of spherical harmonics: 15
    #     l=0, rc=8.9688 Bohr: 4s-sz confined orbital
    #     l=2, rc=5.1719 Bohr: 3d-sz confined orbital
    #     l=0, rc=5.3281 Bohr: 4s-dz split-valence wave
    #     l=2, rc=3.0938 Bohr: 3d-dz split-valence wave
    #     l=1, rc=8.9688 Bohr: p-type Gaussian polarization
    #   Number of RI-basis functions 0

  H:
    name: Hydrogen
    id: d65de229564ff8ea4db303e23b6d1ecf
    Z: 1.0
    valence: 1
    core: 0
    charge: 0.0
    file: /home/modules/software/GPAW-setups/0.9.20000/H.PBE.gz
    compensation charges: {type: gauss,
                           rc: 0.15,
                           lmax: 2}
    cutoffs: {filter: 0.85,
              core: 0.53}
    valence states:
      #              energy  rcut
      - 1s(1.00)    -6.494   0.476
      -  s          20.717   0.476
      -  p           0.000   0.476
  
    # LCAO basis set for H:
    #   Name: dzp
    #   File: /home/modules/software/GPAW-setups/0.9.20000/H.dzp.basis.gz
    #   Number of radial functions: 3
    #   Number of spherical harmonics: 5
    #     l=0, rc=6.4219 Bohr: 1s-sz confined orbital
    #     l=0, rc=3.6094 Bohr: 1s-dz split-valence wave
    #     l=1, rc=6.4219 Bohr: p-type Gaussian polarization
    #   Number of RI-basis functions 0

  O:
    name: Oxygen
    id: 32ecd46bf208036f09c70b0ec9a88b78
    Z: 8.0
    valence: 6
    core: 2
    charge: 0.0
    file: /home/modules/software/GPAW-setups/0.9.20000/O.PBE.gz
    compensation charges: {type: gauss,
                           rc: 0.21,
                           lmax: 2}
    cutoffs: {filter: 1.17,
              core: 0.83}
    valence states:
      #              energy  rcut
      - 2s(2.00)   -23.961   0.688
      - 2p(4.00)    -9.029   0.598
      -  s           3.251   0.688
      -  p          18.182   0.598
      -  d           0.000   0.619
  
    # LCAO basis set for O:
    #   Name: dzp
    #   File: /home/modules/software/GPAW-setups/0.9.20000/O.dzp.basis.gz
    #   Number of radial functions: 5
    #   Number of spherical harmonics: 13
    #     l=0, rc=4.3438 Bohr: 2s-sz confined orbital
    #     l=1, rc=5.3906 Bohr: 2p-sz confined orbital
    #     l=0, rc=2.2969 Bohr: 2s-dz split-valence wave
    #     l=1, rc=2.8906 Bohr: 2p-dz split-valence wave
    #     l=2, rc=5.3906 Bohr: d-type Gaussian polarization
    #   Number of RI-basis functions 0

  C:
    name: Carbon
    id: 4aa54d4b901d75f77cc0ea3eec22967b
    Z: 6.0
    valence: 4
    core: 2
    charge: 0.0
    file: /home/modules/software/GPAW-setups/0.9.20000/C.PBE.gz
    compensation charges: {type: gauss,
                           rc: 0.20,
                           lmax: 2}
    cutoffs: {filter: 1.14,
              core: 1.14}
    valence states:
      #              energy  rcut
      - 2s(2.00)   -13.751   0.635
      - 2p(2.00)    -5.284   0.635
      -  s          13.461   0.635
      -  p          21.927   0.635
      -  d           0.000   0.635
  
    # LCAO basis set for C:
    #   Name: dzp
    #   File: /home/modules/software/GPAW-setups/0.9.20000/C.dzp.basis.gz
    #   Number of radial functions: 5
    #   Number of spherical harmonics: 13
    #     l=0, rc=5.5469 Bohr: 2s-sz confined orbital
    #     l=1, rc=6.6719 Bohr: 2p-sz confined orbital
    #     l=0, rc=3.0312 Bohr: 2s-dz split-valence wave
    #     l=1, rc=3.7500 Bohr: 2p-dz split-valence wave
    #     l=2, rc=6.6719 Bohr: d-type Gaussian polarization
    #   Number of RI-basis functions 0

Reference energy: -1252449.816593  # eV

Spin-polarized calculation.
Magnetic moment: 97.664047

Convergence criteria:
 Maximum [total energy] change in last 3 cyles: 0.0005 eV / electron
 Maximum integral of absolute [dens]ity change: 0.0001 electrons / valence electron
 Maximum integral of absolute [eigenst]ate change: 4e-08 eV^2 / valence electron
 Maximum number of scf [iter]ations: 333
 (Square brackets indicate name in SCF output, whereas a 'c' in
 the SCF output indicates the quantity has converged.)

Symmetries present (total): 1

  ( 1  0  0)
  ( 0  1  0)
  ( 0  0  1)

16 k-points: 4 x 4 x 1 Monkhorst-Pack grid
8 k-points in the irreducible part of the Brillouin zone
       k-points in crystal coordinates                weights
   0:     0.12500000   -0.37500000    0.00000000          2/16
   1:     0.12500000   -0.12500000    0.00000000          2/16
   2:     0.12500000    0.12500000    0.00000000          2/16
   3:     0.12500000    0.37500000    0.00000000          2/16
   4:     0.37500000   -0.37500000    0.00000000          2/16
   5:     0.37500000   -0.12500000    0.00000000          2/16
   6:     0.37500000    0.12500000    0.00000000          2/16
   7:     0.37500000    0.37500000    0.00000000          2/16

Wave functions: Uniform real-space grid
  Kinetic energy operator: 8*3+1=25 point O(h^6) finite-difference Laplacian
  ScaLapack parameters: grid=1x1, blocksize=None
  Wavefunction extrapolation:
    Improved wavefunction reuse through dual PAW basis 

Occupation numbers: Fermi-Dirac:
  width: 0.1000  # eV
 

Eigensolver
   Davidson(niter=2) 

Densities:
  Coarse grid: 36*36*148 grid
  Fine grid: 72*72*296 grid
  Total Charge: 0.000000 

Density mixing:
  Method: difference
  Backend: pulay
  Linear mixing parameter: 0.05
  old densities: 5
  Damping of long wavelength oscillations: 50 

Hamiltonian:
  XC and Coulomb potentials evaluated on a 72*72*296 grid
  Using the BEEF-vdW Exchange-Correlation functional
  Interpolation: tri-quintic (5. degree polynomial)
  Poisson solver: FastPoissonSolver using
    Stencil: 8*3+1=25 point O(h^6) finite-difference Laplacian
    FFT axes: [0, 1]
    FST axes: [2]
 

XC parameters: BEEF-vdW with 2 nearest neighbor stencil

Memory estimate:
  Process memory now: 208.56 MiB
  Calculator: 499.34 MiB
    Density: 44.44 MiB
      Arrays: 10.19 MiB
      Localized functions: 30.23 MiB
      Mixer: 4.01 MiB
    Hamiltonian: 9.84 MiB
      Arrays: 7.57 MiB
      XC: 0.00 MiB
      Poisson: 0.00 MiB
      vbar: 2.26 MiB
    Wavefunctions: 445.06 MiB
      Arrays psit_nG: 284.45 MiB
      Eigensolver: 154.48 MiB
      Projections: 1.07 MiB
      Projectors: 5.06 MiB

Total number of cores used: 40
Parallelization over k-points: 8
Domain decomposition: 1 x 1 x 5

Number of atoms: 41
Number of atomic orbitals: 597
Number of bands in calculation: 248
Number of valence electrons: 309
Bands to converge: occupied

... initialized

Initializing position-dependent things.

Density initialized from atomic densities
Creating initial wave functions:
  248 bands from LCAO basis set

                                           
                                           
                                           
                                           
                                           
                                           
                                           
                   O                       
                 H                         
           Fe    OC    Fe                  
            Fe   C Fe    Fe                
            Fe    Fe    Fe                 
             FFe    Fe    FFe              
                                           
              FFe    Fe    FFe             
                Fe    Fe     Fe            
                                           
           Fe    FFe   FFe    Fe           
            Fe     Fe    Fe                
                                           
              Fe    Fe     Fe              
                                           
                                           
                                           
                                           

Positions:
   0 Fe     0.000000    0.000000   10.000000    ( 0.0000,  0.0000,  2.7500)
   1 Fe     1.298117    0.749468   12.119817    ( 0.0000,  0.0000,  2.6728)
   2 Fe    -0.000000    1.498938   14.260075    ( 0.0000,  0.0000,  2.6756)
   3 Fe     0.000000    0.000000   16.395073    ( 0.0000,  0.0000,  2.7532)
   4 Fe    -1.298117    2.248405   10.000000    ( 0.0000,  0.0000,  2.7500)
   5 Fe     0.000000    2.997873   12.119817    ( 0.0000,  0.0000,  2.6728)
   6 Fe    -1.298117    3.747342   14.260076    ( 0.0000,  0.0000,  2.6756)
   7 Fe    -1.298117    2.248406   16.395074    ( 0.0000,  0.0000,  2.7532)
   8 Fe    -2.596234    4.496810   10.000000    ( 0.0000,  0.0000,  2.7500)
   9 Fe    -1.298117    5.246278   12.119817    ( 0.0000,  0.0000,  2.6728)
  10 Fe    -2.596234    5.995746   14.260075    ( 0.0000,  0.0000,  2.6756)
  11 Fe    -2.596234    4.496809   16.395074    ( 0.0000,  0.0000,  2.7532)
  12 Fe     2.596234    0.000000   10.000000    ( 0.0000,  0.0000,  2.7500)
  13 Fe     3.894352    0.749468   12.119817    ( 0.0000,  0.0000,  2.6728)
  14 Fe     2.596235    1.498937   14.260075    ( 0.0000,  0.0000,  2.6756)
  15 Fe     2.596235   -0.000000   16.395074    ( 0.0000,  0.0000,  2.7532)
  16 Fe     1.298117    2.248405   10.000000    ( 0.0000,  0.0000,  2.7500)
  17 Fe     2.596234    2.997873   12.119817    ( 0.0000,  0.0000,  2.6728)
  18 Fe     1.298117    3.747342   14.260076    ( 0.0000,  0.0000,  2.6756)
  19 Fe     1.298117    2.248406   16.395074    ( 0.0000,  0.0000,  2.7532)
  20 Fe     0.000000    4.496810   10.000000    ( 0.0000,  0.0000,  2.7500)
  21 Fe     1.298117    5.246278   12.119817    ( 0.0000,  0.0000,  2.6728)
  22 Fe    -0.000000    5.995746   14.260076    ( 0.0000,  0.0000,  2.6756)
  23 Fe     0.000000    4.496810   16.395074    ( 0.0000,  0.0000,  2.7532)
  24 Fe     5.192469    0.000000   10.000000    ( 0.0000,  0.0000,  2.7500)
  25 Fe     6.490586    0.749468   12.119817    ( 0.0000,  0.0000,  2.6728)
  26 Fe     5.192468    1.498937   14.260075    ( 0.0000,  0.0000,  2.6756)
  27 Fe     5.192468   -0.000000   16.395074    ( 0.0000,  0.0000,  2.7532)
  28 Fe     3.894352    2.248405   10.000000    ( 0.0000,  0.0000,  2.7500)
  29 Fe     5.192469    2.997873   12.119817    ( 0.0000,  0.0000,  2.6728)
  30 Fe     3.894352    3.747341   14.260075    ( 0.0000,  0.0000,  2.6756)
  31 Fe     3.894352    2.248405   16.395074    ( 0.0000,  0.0000,  2.7532)
  32 Fe     2.596234    4.496810   10.000000    ( 0.0000,  0.0000,  2.7500)
  33 Fe     3.894352    5.246278   12.119817    ( 0.0000,  0.0000,  2.6728)
  34 Fe     2.596234    5.995746   14.260075    ( 0.0000,  0.0000,  2.6756)
  35 Fe     2.596234    4.496809   16.395074    ( 0.0000,  0.0000,  2.7532)
  36 H      1.362785   -0.314175   19.732319    ( 0.0000,  0.0000,  0.0000)
  37 O      1.340268   -0.679811   18.940246    ( 0.0000,  0.0000,  0.0000)
  38 C      1.344021    0.186644   17.941153    ( 0.0000,  0.0000,  0.0000)
  39 C      1.270707    1.682612   18.183260    ( 0.0000,  0.0000,  0.0000)
  40 O      1.323260    2.311160   19.466640    ( 0.0000,  0.0000,  0.0000)

Unit cell:
           periodic     x           y           z      points  spacing
  1. axis:    yes    7.788703    0.000000    0.000000    36     0.1874
  2. axis:    yes   -3.894352    6.745215    0.000000    36     0.1874
  3. axis:    no     0.000000    0.000000   26.359450   148     0.1781

  Lengths:   7.788703   7.788703  26.359450
  Angles:   90.000000  90.000000 120.000000

Effective grid spacing dv^(1/3) = 0.1933

     iter     time        total  log10-change:  magmom
                         energy  eigst   dens
iter:   1 01:36:40 -2619.972780                  +96.7190
iter:   2 01:37:20 -3005.706822  +0.68  -1.08    +87.8116
iter:   3 01:38:00 -2691.695601  +0.03  -0.66    +77.3301
iter:   4 01:38:40 -2585.435362  -0.66  -0.94    +58.6921
iter:   5 01:39:19 -2584.728974  -1.09  -1.29    +62.6445
iter:   6 01:39:59 -2587.281156  -1.36  -1.34    +68.8138
iter:   7 01:40:39 -2587.288387  -1.27  -1.32    +74.3447
iter:   8 01:41:18 -2594.311112  -0.94  -1.37    +79.8518
iter:   9 01:41:58 -2590.369854  -1.29  -1.32    +82.2084
iter:  10 01:42:38 -2587.788758  -1.73  -1.41    +85.8470
iter:  11 01:43:18 -2588.916560  -1.53  -1.55    +90.6212
iter:  12 01:43:57 -2587.983336  -2.07  -1.62    +90.7667
iter:  13 01:44:37 -2588.938341  -1.81  -1.66    +93.5125
iter:  14 01:45:17 -2588.656713  -2.17  -1.82    +92.9482
iter:  15 01:45:57 -2589.064621  -2.32  -2.01    +93.9375
iter:  16 01:46:36 -2589.106324  -2.21  -2.01    +95.2283
iter:  17 01:47:16 -2589.154763c -2.42  -2.06    +95.1813
iter:  18 01:47:56 -2588.974620  -2.94  -2.01    +95.4289
iter:  19 01:48:36 -2589.114200  -2.50  -2.23    +95.6578
iter:  20 01:49:16 -2588.944875  -3.25  -2.16    +95.6190
iter:  21 01:49:55 -2588.931020  -3.29  -2.43    +95.6346
iter:  22 01:50:35 -2588.934622c -3.51  -2.57    +95.6611
iter:  23 01:51:15 -2588.929743c -3.79  -2.69    +95.6526
iter:  24 01:51:54 -2588.931372c -3.72  -2.74    +95.6607
iter:  25 01:52:34 -2588.931060c -4.29  -2.88    +95.6687
iter:  26 01:53:14 -2588.933132c -4.51  -2.91    +95.6673
iter:  27 01:53:54 -2588.930838c -4.86  -2.88    +95.6696
iter:  28 01:54:33 -2588.929979c -4.66  -2.95    +95.6601
iter:  29 01:55:13 -2588.933858c -4.80  -3.05    +95.6615
iter:  30 01:55:53 -2588.930782c -4.52  -3.03    +95.6602
iter:  31 01:56:33 -2588.931817c -4.92  -3.29    +95.6631
iter:  32 01:57:13 -2588.931254c -5.27  -3.29    +95.6604
iter:  33 01:57:52 -2588.931172c -5.47  -3.36    +95.6605
iter:  34 01:58:32 -2588.931562c -5.39  -3.44    +95.6607
iter:  35 01:59:12 -2588.931650c -5.34  -3.51    +95.6559
iter:  36 01:59:51 -2588.931776c -5.48  -3.61    +95.6580
iter:  37 02:00:31 -2588.931404c -6.07  -3.87    +95.6593
iter:  38 02:01:11 -2588.931679c -6.44  -4.12c   +95.6635
iter:  39 02:01:51 -2588.931559c -6.69  -4.12c   +95.6628
iter:  40 02:02:30 -2588.931535c -6.98  -4.34c   +95.6629
iter:  41 02:03:11 -2588.931606c -6.97  -4.44c   +95.6627
iter:  42 02:03:50 -2588.931563c -7.23  -4.60c   +95.6629
iter:  43 02:04:30 -2588.931598c -7.05  -4.64c   +95.6639
iter:  44 02:05:10 -2588.931628c -7.60c -4.50c   +95.6636

Converged after 44 iterations.

Dipole moment: (-3.133305, -10.649761, -0.392595) |e|*Ang

Total magnetic moment: (0.000000, 0.000000, 95.663631)
Local magnetic moments:
   0 Fe ( 0.000000,  0.000000,  2.828576)
   1 Fe ( 0.000000,  0.000000,  2.757618)
   2 Fe ( 0.000000,  0.000000,  2.719597)
   3 Fe ( 0.000000,  0.000000,  2.388795)
   4 Fe ( 0.000000,  0.000000,  2.825025)
   5 Fe ( 0.000000,  0.000000,  2.749795)
   6 Fe ( 0.000000,  0.000000,  2.749170)
   7 Fe ( 0.000000,  0.000000,  2.868795)
   8 Fe ( 0.000000,  0.000000,  2.825607)
   9 Fe ( 0.000000,  0.000000,  2.751319)
  10 Fe ( 0.000000,  0.000000,  2.738525)
  11 Fe ( 0.000000,  0.000000,  2.875673)
  12 Fe ( 0.000000,  0.000000,  2.829598)
  13 Fe ( 0.000000,  0.000000,  2.747534)
  14 Fe ( 0.000000,  0.000000,  2.714586)
  15 Fe ( 0.000000,  0.000000,  2.306528)
  16 Fe ( 0.000000,  0.000000,  2.827805)
  17 Fe ( 0.000000,  0.000000,  2.749726)
  18 Fe ( 0.000000,  0.000000,  2.733970)
  19 Fe ( 0.000000,  0.000000,  2.063338)
  20 Fe ( 0.000000,  0.000000,  2.830584)
  21 Fe ( 0.000000,  0.000000,  2.760359)
  22 Fe ( 0.000000,  0.000000,  2.720978)
  23 Fe ( 0.000000,  0.000000,  2.869865)
  24 Fe ( 0.000000,  0.000000,  2.828599)
  25 Fe ( 0.000000,  0.000000,  2.746526)
  26 Fe ( 0.000000,  0.000000,  2.747255)
  27 Fe ( 0.000000,  0.000000,  2.840667)
  28 Fe ( 0.000000,  0.000000,  2.825047)
  29 Fe ( 0.000000,  0.000000,  2.751277)
  30 Fe ( 0.000000,  0.000000,  2.749016)
  31 Fe ( 0.000000,  0.000000,  2.868797)
  32 Fe ( 0.000000,  0.000000,  2.831315)
  33 Fe ( 0.000000,  0.000000,  2.749761)
  34 Fe ( 0.000000,  0.000000,  2.722040)
  35 Fe ( 0.000000,  0.000000,  2.866859)
  36 H  ( 0.000000,  0.000000, -0.000216)
  37 O  ( 0.000000,  0.000000, -0.013095)
  38 C  ( 0.000000,  0.000000, -0.054377)
  39 C  ( 0.000000,  0.000000, -0.036084)
  40 O  ( 0.000000,  0.000000, -0.126640)

Energy contributions relative to reference atoms: (reference = -1252449.816593)

Kinetic:       +847.765701
Potential:     -747.386863
External:        +0.000000
XC:            -2691.864312
Entropy (-ST):   -1.673860
Local:           +3.390776
--------------------------
Free energy:   -2589.768558
Extrapolated:  -2588.931628

Spin contamination: 2.949806 electrons
Showing only first 2 kpts
                      Up                     Down
 Kpt  Band  Eigenvalues  Occupancy  Eigenvalues  Occupancy
  0   152     -6.84403    1.00000     -4.03690    0.00000
  0   153     -6.83825    1.00000     -4.02777    0.00000
  0   154     -6.82144    1.00000     -3.99792    0.00000
  0   155     -6.80089    1.00000     -3.98833    0.00000

  1   152     -6.76980    1.00000     -3.92526    0.00000
  1   153     -6.73110    1.00000     -3.92005    0.00000
  1   154     -6.71684    1.00000     -3.91712    0.00000
  1   155     -6.71105    1.00000     -3.91259    0.00000


Fermi level: -5.30060

No gap

Forces in eV/Ang:
  0 Fe   -0.00275    0.00070   -0.15495
  1 Fe   -0.00053    0.00225    0.07818
  2 Fe    0.01216    0.00760   -0.09561
  3 Fe    0.04523    0.00712    0.23171
  4 Fe    0.00527    0.00009   -0.14913
  5 Fe    0.01024    0.00083    0.05137
  6 Fe    0.00530   -0.01774    0.00187
  7 Fe    0.05546   -0.00060    0.04137
  8 Fe   -0.00201    0.00945   -0.15501
  9 Fe   -0.00161    0.00485    0.06363
 10 Fe    0.00390   -0.01514   -0.13187
 11 Fe    0.00204   -0.11870   -0.06955
 12 Fe   -0.00076    0.00211   -0.15557
 13 Fe   -0.00219   -0.00175    0.05322
 14 Fe   -0.00880    0.00341   -0.09099
 15 Fe    0.05536    0.00871    0.11412
 16 Fe   -0.00152    0.00479   -0.16425
 17 Fe   -0.01410    0.00308    0.05208
 18 Fe    0.00311    0.01957   -0.04958
 19 Fe   -0.05199    0.73617   -0.50426
 20 Fe   -0.00793   -0.00296   -0.16221
 21 Fe    0.00354   -0.00436    0.01840
 22 Fe    0.01004    0.01260    0.05359
 23 Fe    0.11747    0.02279   -0.00038
 24 Fe   -0.00255    0.00807   -0.16274
 25 Fe   -0.00157   -0.00226    0.04988
 26 Fe   -0.00332   -0.02769    0.01803
 27 Fe   -0.00640   -0.03654   -0.02832
 28 Fe   -0.01015   -0.00129   -0.14948
 29 Fe   -0.00062    0.00436    0.04624
 30 Fe   -0.00481   -0.02131    0.00463
 31 Fe   -0.03500   -0.00690    0.01897
 32 Fe    0.00457   -0.00299   -0.16516
 33 Fe   -0.00259    0.00629    0.06192
 34 Fe    0.00398    0.01994    0.06403
 35 Fe   -0.11148    0.01508   -0.00289
 36 H     0.11228    3.09724    6.17882
 37 O    -0.08069   -3.95406   -4.81663
 38 C    -0.28743    2.10351   -0.78564
 39 C     0.53652    1.26121    5.74803
 40 O    -0.33206   -3.19662   -5.92283

      Step     Time          Energy         fmax
BFGS:    0 02:05:36    -2588.931628        6.9125
System changes: positions 

Initializing position-dependent things.

Density initialized from wave functions
                                           
                                           
                                           
                                           
                                           
                                           
                                           
                   O                       
                 HC                        
           Fe    Oe    Fe                  
            Fe   C Fe    Fe                
            Fe    Fe    Fe                 
             FFe    Fe    FFe              
                                           
              FFe    Fe    FFe             
                Fe    Fe     Fe            
                                           
           Fe    FFe   FFe    Fe           
            Fe     Fe    Fe                
                                           
              Fe    Fe     Fe              
                                           
                                           
                                           
                                           

Positions:
   0 Fe     0.000000    0.000000   10.000000    ( 0.0000,  0.0000,  2.7500)
   1 Fe     1.298117    0.749468   12.119817    ( 0.0000,  0.0000,  2.6728)
   2 Fe     0.000174    1.499046   14.258709    ( 0.0000,  0.0000,  2.6756)
   3 Fe     0.000646    0.000102   16.398383    ( 0.0000,  0.0000,  2.7532)
   4 Fe    -1.298117    2.248405   10.000000    ( 0.0000,  0.0000,  2.7500)
   5 Fe     0.000000    2.997873   12.119817    ( 0.0000,  0.0000,  2.6728)
   6 Fe    -1.298041    3.747088   14.260102    ( 0.0000,  0.0000,  2.6756)
   7 Fe    -1.297325    2.248397   16.395665    ( 0.0000,  0.0000,  2.7532)
   8 Fe    -2.596234    4.496810   10.000000    ( 0.0000,  0.0000,  2.7500)
   9 Fe    -1.298117    5.246278   12.119817    ( 0.0000,  0.0000,  2.6728)
  10 Fe    -2.596178    5.995530   14.258191    ( 0.0000,  0.0000,  2.6756)
  11 Fe    -2.596205    4.495114   16.394080    ( 0.0000,  0.0000,  2.7532)
  12 Fe     2.596234    0.000000   10.000000    ( 0.0000,  0.0000,  2.7500)
  13 Fe     3.894352    0.749468   12.119817    ( 0.0000,  0.0000,  2.6728)
  14 Fe     2.596109    1.498986   14.258776    ( 0.0000,  0.0000,  2.6756)
  15 Fe     2.597026    0.000124   16.396704    ( 0.0000,  0.0000,  2.7532)
  16 Fe     1.298117    2.248405   10.000000    ( 0.0000,  0.0000,  2.7500)
  17 Fe     2.596234    2.997873   12.119817    ( 0.0000,  0.0000,  2.6728)
  18 Fe     1.298161    3.747621   14.259367    ( 0.0000,  0.0000,  2.6756)
  19 Fe     1.297375    2.258922   16.387870    ( 0.0000,  0.0000,  2.7532)
  20 Fe     0.000000    4.496810   10.000000    ( 0.0000,  0.0000,  2.7500)
  21 Fe     1.298117    5.246278   12.119817    ( 0.0000,  0.0000,  2.6728)
  22 Fe     0.000143    5.995926   14.260841    ( 0.0000,  0.0000,  2.6756)
  23 Fe     0.001678    4.497136   16.395069    ( 0.0000,  0.0000,  2.7532)
  24 Fe     5.192469    0.000000   10.000000    ( 0.0000,  0.0000,  2.7500)
  25 Fe     6.490586    0.749468   12.119817    ( 0.0000,  0.0000,  2.6728)
  26 Fe     5.192421    1.498542   14.260333    ( 0.0000,  0.0000,  2.6756)
  27 Fe     5.192377   -0.000522   16.394669    ( 0.0000,  0.0000,  2.7532)
  28 Fe     3.894352    2.248405   10.000000    ( 0.0000,  0.0000,  2.7500)
  29 Fe     5.192469    2.997873   12.119817    ( 0.0000,  0.0000,  2.6728)
  30 Fe     3.894283    3.747036   14.260141    ( 0.0000,  0.0000,  2.6756)
  31 Fe     3.893852    2.248306   16.395345    ( 0.0000,  0.0000,  2.7532)
  32 Fe     2.596234    4.496810   10.000000    ( 0.0000,  0.0000,  2.7500)
  33 Fe     3.894352    5.246278   12.119817    ( 0.0000,  0.0000,  2.6728)
  34 Fe     2.596290    5.996031   14.260990    ( 0.0000,  0.0000,  2.6756)
  35 Fe     2.594641    4.497025   16.395032    ( 0.0000,  0.0000,  2.7532)
  36 H      1.364389   -0.269928   19.820588    ( 0.0000,  0.0000,  0.0000)
  37 O      1.339115   -0.736297   18.871437    ( 0.0000,  0.0000,  0.0000)
  38 C      1.339915    0.216694   17.929930    ( 0.0000,  0.0000,  0.0000)
  39 C      1.278371    1.700630   18.265375    ( 0.0000,  0.0000,  0.0000)
  40 O      1.318516    2.265494   19.382028    ( 0.0000,  0.0000,  0.0000)

Unit cell:
           periodic     x           y           z      points  spacing
  1. axis:    yes    7.788703    0.000000    0.000000    36     0.1874
  2. axis:    yes   -3.894352    6.745215    0.000000    36     0.1874
  3. axis:    no     0.000000    0.000000   26.359450   148     0.1781

  Lengths:   7.788703   7.788703  26.359450
  Angles:   90.000000  90.000000 120.000000

Effective grid spacing dv^(1/3) = 0.1933

     iter     time        total  log10-change:  magmom
                         energy  eigst   dens
iter:   1 02:07:20 -2592.634299  -0.69           +95.6953
iter:   2 02:08:00 -2593.389911  -1.46  -1.89    +95.5352
iter:   3 02:08:40 -2641.459754  -1.00  -1.59    +95.4137
iter:   4 02:09:20 -2591.407641  -1.32  -1.02    +91.7445
iter:   5 02:10:00 -2590.243427  -1.96  -1.79    +91.9863
iter:   6 02:10:40 -2590.756238  -2.17  -2.13    +93.8034
iter:   7 02:11:21 -2590.628545  -2.16  -1.83    +94.1428
iter:   8 02:12:01 -2589.908433  -2.32  -1.89    +95.2559
iter:   9 02:12:41 -2589.994584  -2.74  -2.42    +95.2698
iter:  10 02:13:21 -2589.999183c -3.15  -2.33    +95.3712
iter:  11 02:14:02 -2590.031431c -2.87  -2.41    +95.5630
iter:  12 02:14:42 -2589.963957c -3.01  -2.32    +95.6114
iter:  13 02:15:22 -2589.955958c -3.42  -2.68    +95.6738
iter:  14 02:16:03 -2589.961422c -3.64  -2.87    +95.7705
iter:  15 02:16:43 -2589.970857c -3.78  -3.04    +95.7163
iter:  16 02:17:23 -2589.982846c -4.18  -3.00    +95.6863
iter:  17 02:18:04 -2589.981361c -4.18  -2.85    +95.6664
iter:  18 02:18:44 -2589.981813c -4.27  -2.97    +95.6876
iter:  19 02:19:24 -2589.978982c -4.41  -2.92    +95.6807
iter:  20 02:20:04 -2589.979470c -5.23  -3.19    +95.6830
iter:  21 02:20:44 -2589.980505c -4.62  -3.08    +95.6818
iter:  22 02:21:25 -2589.979405c -4.47  -3.08    +95.6852
iter:  23 02:22:05 -2589.980723c -5.02  -3.30    +95.6897
iter:  24 02:22:45 -2589.978767c -5.16  -3.28    +95.6892
iter:  25 02:23:25 -2589.978495c -5.20  -3.57    +95.6924
iter:  26 02:24:06 -2589.979222c -5.42  -3.55    +95.6988
iter:  27 02:24:46 -2589.979151c -5.77  -3.45    +95.6992
iter:  28 02:25:26 -2589.979329c -5.81  -3.87    +95.6991
iter:  29 02:26:06 -2589.978910c -6.15  -3.74    +95.7003
iter:  30 02:26:47 -2589.979123c -6.48  -4.10c   +95.7004
iter:  31 02:27:27 -2589.979158c -6.56  -4.15c   +95.7004
iter:  32 02:28:07 -2589.978722c -6.28  -4.27c   +95.7022
iter:  33 02:28:47 -2589.978587c -6.28  -3.89    +95.7034
iter:  34 02:29:28 -2589.979038c -6.54  -3.96    +95.7026
iter:  35 02:30:08 -2589.979511c -6.26  -4.40c   +95.7009
iter:  36 02:30:48 -2589.979368c -6.16  -4.00c   +95.6992
iter:  37 02:31:28 -2589.979197c -6.98  -4.04c   +95.6997
iter:  38 02:32:08 -2589.978879c -6.34  -4.19c   +95.7016
iter:  39 02:32:49 -2589.979213c -6.88  -4.25c   +95.7012
iter:  40 02:33:29 -2589.979211c -7.02  -4.26c   +95.7019
iter:  41 02:34:09 -2589.979167c -6.95  -4.24c   +95.7002
iter:  42 02:34:49 -2589.979102c -7.13  -4.42c   +95.6995
iter:  43 02:35:29 -2589.979087c -7.30  -4.58c   +95.6996
iter:  44 02:36:10 -2589.979266c -7.08  -4.28c   +95.6998
iter:  45 02:36:50 -2589.979190c -7.70c -4.23c   +95.6998

Converged after 45 iterations.

Dipole moment: (-3.268416, -10.801601, -0.152924) |e|*Ang

Total magnetic moment: (0.000000, 0.000000, 95.699783)
Local magnetic moments:
   0 Fe ( 0.000000,  0.000000,  2.829637)
   1 Fe ( 0.000000,  0.000000,  2.757480)
   2 Fe ( 0.000000,  0.000000,  2.721829)
   3 Fe ( 0.000000,  0.000000,  2.372222)
   4 Fe ( 0.000000,  0.000000,  2.826013)
   5 Fe ( 0.000000,  0.000000,  2.750085)
   6 Fe ( 0.000000,  0.000000,  2.750911)
   7 Fe ( 0.000000,  0.000000,  2.863132)
   8 Fe ( 0.000000,  0.000000,  2.826142)
   9 Fe ( 0.000000,  0.000000,  2.751796)
  10 Fe ( 0.000000,  0.000000,  2.737428)
  11 Fe ( 0.000000,  0.000000,  2.872075)
  12 Fe ( 0.000000,  0.000000,  2.830332)
  13 Fe ( 0.000000,  0.000000,  2.747989)
  14 Fe ( 0.000000,  0.000000,  2.717449)
  15 Fe ( 0.000000,  0.000000,  2.296506)
  16 Fe ( 0.000000,  0.000000,  2.827569)
  17 Fe ( 0.000000,  0.000000,  2.750090)
  18 Fe ( 0.000000,  0.000000,  2.734764)
  19 Fe ( 0.000000,  0.000000,  2.166429)
  20 Fe ( 0.000000,  0.000000,  2.831545)
  21 Fe ( 0.000000,  0.000000,  2.760338)
  22 Fe ( 0.000000,  0.000000,  2.720729)
  23 Fe ( 0.000000,  0.000000,  2.861001)
  24 Fe ( 0.000000,  0.000000,  2.828649)
  25 Fe ( 0.000000,  0.000000,  2.747396)
  26 Fe ( 0.000000,  0.000000,  2.749008)
  27 Fe ( 0.000000,  0.000000,  2.831720)
  28 Fe ( 0.000000,  0.000000,  2.826045)
  29 Fe ( 0.000000,  0.000000,  2.751858)
  30 Fe ( 0.000000,  0.000000,  2.749980)
  31 Fe ( 0.000000,  0.000000,  2.863527)
  32 Fe ( 0.000000,  0.000000,  2.832210)
  33 Fe ( 0.000000,  0.000000,  2.750222)
  34 Fe ( 0.000000,  0.000000,  2.722081)
  35 Fe ( 0.000000,  0.000000,  2.858690)
  36 H  ( 0.000000,  0.000000, -0.000167)
  37 O  ( 0.000000,  0.000000, -0.014428)
  38 C  ( 0.000000,  0.000000, -0.062211)
  39 C  ( 0.000000,  0.000000, -0.039136)
  40 O  ( 0.000000,  0.000000, -0.095066)

Energy contributions relative to reference atoms: (reference = -1252449.816593)

Kinetic:       +846.212225
Potential:     -747.206757
External:        +0.000000
XC:            -2691.522362
Entropy (-ST):   -1.674644
Local:           +3.375026
--------------------------
Free energy:   -2590.816511
Extrapolated:  -2589.979190

Spin contamination: 2.947910 electrons
Showing only first 2 kpts
                      Up                     Down
 Kpt  Band  Eigenvalues  Occupancy  Eigenvalues  Occupancy
  0   152     -6.59224    1.00000     -3.78029    0.00000
  0   153     -6.58736    1.00000     -3.77324    0.00000
  0   154     -6.56557    1.00000     -3.74462    0.00000
  0   155     -6.54933    1.00000     -3.73352    0.00000

  1   152     -6.51957    1.00000     -3.66863    0.00000
  1   153     -6.47778    1.00000     -3.66372    0.00000
  1   154     -6.46808    1.00000     -3.66108    0.00000
  1   155     -6.46204    1.00000     -3.65844    0.00000


Fermi level: -5.04603

No gap

Forces in eV/Ang:
  0 Fe   -0.00267    0.00041   -0.15612
  1 Fe   -0.00071    0.00114    0.06786
  2 Fe   -0.00756   -0.01465   -0.09561
  3 Fe    0.01101    0.01242    0.14297
  4 Fe    0.00441   -0.00030   -0.14999
  5 Fe    0.00869    0.00481    0.04769
  6 Fe    0.00305   -0.01123    0.00086
  7 Fe    0.04180   -0.01071    0.00741
  8 Fe   -0.00168    0.00872   -0.15540
  9 Fe    0.00360    0.00413    0.06442
 10 Fe    0.00211   -0.00989   -0.10112
 11 Fe    0.00080   -0.13940   -0.10375
 12 Fe   -0.00029    0.00194   -0.15691
 13 Fe   -0.00219   -0.00203    0.05211
 14 Fe    0.00801   -0.01538   -0.09285
 15 Fe    0.06612    0.02695    0.03332
 16 Fe   -0.00149    0.00434   -0.16553
 17 Fe   -0.01217    0.00615    0.04818
 18 Fe    0.00264    0.02240   -0.04493
 19 Fe   -0.04037    0.26335    0.19198
 20 Fe   -0.00824   -0.00292   -0.16251
 21 Fe    0.00326   -0.00607    0.02239
 22 Fe    0.00100    0.01133    0.05106
 23 Fe    0.10265    0.01396   -0.01519
 24 Fe   -0.00256    0.00805   -0.16102
 25 Fe   -0.00163   -0.00326    0.04949
 26 Fe   -0.00155   -0.01642    0.01308
 27 Fe    0.00069   -0.03162   -0.02599
 28 Fe   -0.00894   -0.00161   -0.15082
 29 Fe   -0.00053    0.00262    0.04896
 30 Fe   -0.00335   -0.01315    0.00333
 31 Fe   -0.02806   -0.01210   -0.00888
 32 Fe    0.00481   -0.00289   -0.16497
 33 Fe   -0.00765    0.00570    0.06396
 34 Fe    0.01138    0.01692    0.06400
 35 Fe   -0.09594    0.01172   -0.01756
 36 H    -0.09653   -1.25250   -2.27109
 37 O     0.09436    0.86645    3.69021
 38 C    -0.26047    1.41457   -0.96203
 39 C     0.37096    0.06004    1.25292
 40 O    -0.19112   -1.29166   -1.70447

BFGS:    1 02:37:16    -2589.979190        3.7917
System changes: positions 

Initializing position-dependent things.

Density initialized from wave functions
                                           
                                           
                                           
                                           
                                           
                                           
                                           
                   O                       
                 HC                        
           Fe    Oe    Fe                  
            Fe   C Fe    Fe                
            Fe    Fe    Fe                 
             FFe    Fe    FFe              
                                           
              FFe    Fe    FFe             
                Fe    Fe     Fe            
                                           
           Fe    FFe   FFe    Fe           
            Fe     Fe    Fe                
                                           
              Fe    Fe     Fe              
                                           
                                           
                                           
                                           

Positions:
   0 Fe     0.000000    0.000000   10.000000    ( 0.0000,  0.0000,  2.7500)
   1 Fe     1.298117    0.749468   12.119817    ( 0.0000,  0.0000,  2.6728)
   2 Fe     0.000099    1.498868   14.257239    ( 0.0000,  0.0000,  2.6756)
   3 Fe     0.000888    0.000281   16.400768    ( 0.0000,  0.0000,  2.7532)
   4 Fe    -1.298117    2.248405   10.000000    ( 0.0000,  0.0000,  2.7500)
   5 Fe     0.000000    2.997873   12.119817    ( 0.0000,  0.0000,  2.6728)
   6 Fe    -1.297990    3.746902   14.260118    ( 0.0000,  0.0000,  2.6756)
   7 Fe    -1.296654    2.248254   16.395850    ( 0.0000,  0.0000,  2.7532)
   8 Fe    -2.596234    4.496810   10.000000    ( 0.0000,  0.0000,  2.7500)
   9 Fe    -1.298117    5.246278   12.119817    ( 0.0000,  0.0000,  2.6728)
  10 Fe    -2.596142    5.995367   14.256572    ( 0.0000,  0.0000,  2.6756)
  11 Fe    -2.596190    4.493014   16.392557    ( 0.0000,  0.0000,  2.7532)
  12 Fe     2.596234    0.000000   10.000000    ( 0.0000,  0.0000,  2.7500)
  13 Fe     3.894352    0.749468   12.119817    ( 0.0000,  0.0000,  2.6728)
  14 Fe     2.596197    1.498789   14.257352    ( 0.0000,  0.0000,  2.6756)
  15 Fe     2.598020    0.000500   16.397387    ( 0.0000,  0.0000,  2.7532)
  16 Fe     1.298117    2.248405   10.000000    ( 0.0000,  0.0000,  2.7500)
  17 Fe     2.596234    2.997873   12.119817    ( 0.0000,  0.0000,  2.6728)
  18 Fe     1.298203    3.747960   14.258667    ( 0.0000,  0.0000,  2.6756)
  19 Fe     1.296730    2.263968   16.389353    ( 0.0000,  0.0000,  2.7532)
  20 Fe     0.000000    4.496810   10.000000    ( 0.0000,  0.0000,  2.7500)
  21 Fe     1.298117    5.246278   12.119817    ( 0.0000,  0.0000,  2.6728)
  22 Fe     0.000178    5.996103   14.261632    ( 0.0000,  0.0000,  2.6756)
  23 Fe     0.003288    4.497369   16.394867    ( 0.0000,  0.0000,  2.7532)
  24 Fe     5.192469    0.000000   10.000000    ( 0.0000,  0.0000,  2.7500)
  25 Fe     6.490586    0.749468   12.119817    ( 0.0000,  0.0000,  2.6728)
  26 Fe     5.192393    1.498265   14.260545    ( 0.0000,  0.0000,  2.6756)
  27 Fe     5.192372   -0.001019   16.394265    ( 0.0000,  0.0000,  2.7532)
  28 Fe     3.894352    2.248405   10.000000    ( 0.0000,  0.0000,  2.7500)
  29 Fe     5.192469    2.997873   12.119817    ( 0.0000,  0.0000,  2.6728)
  30 Fe     3.894228    3.746817   14.260195    ( 0.0000,  0.0000,  2.6756)
  31 Fe     3.893406    2.248131   16.395267    ( 0.0000,  0.0000,  2.7532)
  32 Fe     2.596234    4.496810   10.000000    ( 0.0000,  0.0000,  2.7500)
  33 Fe     3.894352    5.246278   12.119817    ( 0.0000,  0.0000,  2.6728)
  34 Fe     2.596450    5.996297   14.261974    ( 0.0000,  0.0000,  2.6756)
  35 Fe     2.593134    4.497212   16.394793    ( 0.0000,  0.0000,  2.7532)
  36 H      1.363345   -0.280010   19.803494    ( 0.0000,  0.0000,  0.0000)
  37 O      1.340197   -0.733143   18.910227    ( 0.0000,  0.0000,  0.0000)
  38 C      1.335853    0.239894   17.915512    ( 0.0000,  0.0000,  0.0000)
  39 C      1.284423    1.704086   18.294116    ( 0.0000,  0.0000,  0.0000)
  40 O      1.315281    2.241620   19.346929    ( 0.0000,  0.0000,  0.0000)

Unit cell:
           periodic     x           y           z      points  spacing
  1. axis:    yes    7.788703    0.000000    0.000000    36     0.1874
  2. axis:    yes   -3.894352    6.745215    0.000000    36     0.1874
  3. axis:    no     0.000000    0.000000   26.359450   148     0.1781

  Lengths:   7.788703   7.788703  26.359450
  Angles:   90.000000  90.000000 120.000000

Effective grid spacing dv^(1/3) = 0.1933

     iter     time        total  log10-change:  magmom
                         energy  eigst   dens
iter:   1 02:39:00 -2594.474995  -1.35           +95.6939
iter:   2 02:39:40 -2659.322267  -0.77  -1.55    +94.8144
iter:   3 02:40:20 -2606.491955  -0.91  -0.97    +91.1373
iter:   4 02:41:00 -2591.447201  -1.54  -1.26    +85.7275
iter:   5 02:41:40 -2589.348552  -2.11  -1.65    +90.3886
iter:   6 02:42:20 -2589.872774  -2.61  -2.27    +91.7650
iter:   7 02:43:01 -2589.618680  -2.87  -2.02    +92.4769
iter:   8 02:43:41 -2589.998067  -2.45  -2.18    +94.4444
iter:   9 02:44:21 -2590.106711  -2.59  -2.55    +95.2981
iter:  10 02:45:01 -2590.146574c -2.70  -2.71    +95.7619
iter:  11 02:45:41 -2590.160768c -3.04  -2.68    +95.7831
iter:  12 02:46:21 -2590.141207c -3.57  -2.53    +95.7362
iter:  13 02:47:01 -2590.138989c -3.92  -2.78    +95.7464
iter:  14 02:47:42 -2590.134732c -3.81  -2.92    +95.7457
iter:  15 02:48:22 -2590.151447c -3.88  -2.97    +95.7343
iter:  16 02:49:02 -2590.135902c -4.50  -2.68    +95.7202
iter:  17 02:49:42 -2590.134286c -4.66  -3.10    +95.7106
iter:  18 02:50:22 -2590.133672c -4.63  -3.08    +95.7182
iter:  19 02:51:02 -2590.133411c -4.68  -3.23    +95.7202
iter:  20 02:51:43 -2590.134044c -4.93  -3.43    +95.7219
iter:  21 02:52:23 -2590.133475c -5.32  -3.31    +95.7219
iter:  22 02:53:03 -2590.134480c -5.05  -3.52    +95.7230
iter:  23 02:53:43 -2590.133479c -5.63  -3.62    +95.7225
iter:  24 02:54:23 -2590.133984c -5.76  -3.73    +95.7268
iter:  25 02:55:03 -2590.133928c -6.04  -3.84    +95.7263
iter:  26 02:55:43 -2590.133990c -6.05  -3.97    +95.7240
iter:  27 02:56:23 -2590.133963c -6.17  -4.09c   +95.7221
iter:  28 02:57:04 -2590.134020c -6.70  -3.85    +95.7221
iter:  29 02:57:44 -2590.133916c -6.88  -4.18c   +95.7218
iter:  30 02:58:24 -2590.134094c -6.79  -4.16c   +95.7221
iter:  31 02:59:04 -2590.134044c -6.95  -4.18c   +95.7228
iter:  32 02:59:44 -2590.134109c -6.94  -4.42c   +95.7229
iter:  33 03:00:24 -2590.133958c -7.09  -4.23c   +95.7234
iter:  34 03:01:04 -2590.133985c -7.35  -4.52c   +95.7232
iter:  35 03:01:45 -2590.133993c -7.90c -4.75c   +95.7232

Converged after 35 iterations.

Dipole moment: (-3.276655, -10.716203, -0.092963) |e|*Ang

Total magnetic moment: (0.000000, 0.000000, 95.723216)
Local magnetic moments:
   0 Fe ( 0.000000,  0.000000,  2.829638)
   1 Fe ( 0.000000,  0.000000,  2.756991)
   2 Fe ( 0.000000,  0.000000,  2.722582)
   3 Fe ( 0.000000,  0.000000,  2.359279)
   4 Fe ( 0.000000,  0.000000,  2.825944)
   5 Fe ( 0.000000,  0.000000,  2.749820)
   6 Fe ( 0.000000,  0.000000,  2.750200)
   7 Fe ( 0.000000,  0.000000,  2.862193)
   8 Fe ( 0.000000,  0.000000,  2.825611)
   9 Fe ( 0.000000,  0.000000,  2.751016)
  10 Fe ( 0.000000,  0.000000,  2.736834)
  11 Fe ( 0.000000,  0.000000,  2.874698)
  12 Fe ( 0.000000,  0.000000,  2.830055)
  13 Fe ( 0.000000,  0.000000,  2.747578)
  14 Fe ( 0.000000,  0.000000,  2.719381)
  15 Fe ( 0.000000,  0.000000,  2.292821)
  16 Fe ( 0.000000,  0.000000,  2.826503)
  17 Fe ( 0.000000,  0.000000,  2.749794)
  18 Fe ( 0.000000,  0.000000,  2.735002)
  19 Fe ( 0.000000,  0.000000,  2.212604)
  20 Fe ( 0.000000,  0.000000,  2.831717)
  21 Fe ( 0.000000,  0.000000,  2.759951)
  22 Fe ( 0.000000,  0.000000,  2.719827)
  23 Fe ( 0.000000,  0.000000,  2.860298)
  24 Fe ( 0.000000,  0.000000,  2.826991)
  25 Fe ( 0.000000,  0.000000,  2.746918)
  26 Fe ( 0.000000,  0.000000,  2.749268)
  27 Fe ( 0.000000,  0.000000,  2.830924)
  28 Fe ( 0.000000,  0.000000,  2.825860)
  29 Fe ( 0.000000,  0.000000,  2.751555)
  30 Fe ( 0.000000,  0.000000,  2.749023)
  31 Fe ( 0.000000,  0.000000,  2.862144)
  32 Fe ( 0.000000,  0.000000,  2.832146)
  33 Fe ( 0.000000,  0.000000,  2.749308)
  34 Fe ( 0.000000,  0.000000,  2.721328)
  35 Fe ( 0.000000,  0.000000,  2.858392)
  36 H  ( 0.000000,  0.000000, -0.000024)
  37 O  ( 0.000000,  0.000000, -0.014212)
  38 C  ( 0.000000,  0.000000, -0.064628)
  39 C  ( 0.000000,  0.000000, -0.037889)
  40 O  ( 0.000000,  0.000000, -0.085151)

Energy contributions relative to reference atoms: (reference = -1252449.816593)

Kinetic:       +852.689617
Potential:     -752.393416
External:        +0.000000
XC:            -2692.968414
Entropy (-ST):   -1.676186
Local:           +3.376313
--------------------------
Free energy:   -2590.972086
Extrapolated:  -2590.133993

Spin contamination: 2.939996 electrons
Showing only first 2 kpts
                      Up                     Down
 Kpt  Band  Eigenvalues  Occupancy  Eigenvalues  Occupancy
  0   152     -6.52994    1.00000     -3.71688    0.00000
  0   153     -6.52490    1.00000     -3.70921    0.00000
  0   154     -6.50328    1.00000     -3.68192    0.00000
  0   155     -6.48699    1.00000     -3.67001    0.00000

  1   152     -6.45675    1.00000     -3.60436    0.00000
  1   153     -6.41798    1.00000     -3.60057    0.00000
  1   154     -6.40631    1.00000     -3.59735    0.00000
  1   155     -6.40013    1.00000     -3.59427    0.00000


Fermi level: -4.98251

No gap

Forces in eV/Ang:
  0 Fe   -0.00284    0.00052   -0.15676
  1 Fe   -0.00083    0.00045    0.05616
  2 Fe   -0.01123   -0.02091   -0.07946
  3 Fe    0.00169   -0.00750    0.14059
  4 Fe    0.00426   -0.00099   -0.15029
  5 Fe    0.00784    0.00798    0.04021
  6 Fe    0.00386   -0.00880   -0.00428
  7 Fe    0.03026   -0.01668   -0.01320
  8 Fe   -0.00164    0.00863   -0.15532
  9 Fe    0.00783    0.00384    0.06152
 10 Fe    0.00061   -0.00100   -0.07982
 11 Fe    0.00026   -0.08914   -0.07555
 12 Fe    0.00014    0.00205   -0.15744
 13 Fe   -0.00315   -0.00244    0.04689
 14 Fe    0.01003   -0.01888   -0.08055
 15 Fe    0.06134    0.00140    0.03280
 16 Fe   -0.00155    0.00410   -0.16578
 17 Fe   -0.01084    0.00849    0.04045
 18 Fe    0.00200    0.01392   -0.03557
 19 Fe   -0.02032    0.13041    0.24744
 20 Fe   -0.00821   -0.00257   -0.16317
 21 Fe    0.00315   -0.00740    0.02078
 22 Fe   -0.00277    0.00714    0.04124
 23 Fe    0.07666    0.00653   -0.01159
 24 Fe   -0.00260    0.00829   -0.15829
 25 Fe   -0.00093   -0.00447    0.04523
 26 Fe   -0.00037   -0.00739    0.00875
 27 Fe    0.00476   -0.01852   -0.02205
 28 Fe   -0.00862   -0.00214   -0.15111
 29 Fe   -0.00060    0.00112    0.04748
 30 Fe   -0.00359   -0.00936   -0.00238
 31 Fe   -0.02122   -0.01425   -0.02455
 32 Fe    0.00489   -0.00256   -0.16503
 33 Fe   -0.01191    0.00564    0.06202
 34 Fe    0.01380    0.01165    0.05615
 35 Fe   -0.07142    0.00624   -0.01367
 36 H    -0.04493   -0.56825   -0.91930
 37 O     0.07589    0.94787    1.24065
 38 C    -0.22354    0.28935   -0.03937
 39 C     0.20032   -1.56258   -2.64881
 40 O    -0.06379    0.80195    2.27135

BFGS:    2 03:02:11    -2590.133993        3.0819
System changes: positions 

Initializing position-dependent things.

Density initialized from wave functions
                                           
                                           
                                           
                                           
                                           
                                           
                                           
                   O                       
                 HC                        
           Fe    Oe    Fe                  
            Fe   C Fe    Fe                
            Fe    Fe    Fe                 
             FFe    Fe    FFe              
                                           
              FFe    Fe    FFe             
                Fe    Fe     Fe            
                                           
           Fe    FFe   FFe    Fe           
            Fe     Fe    Fe                
                                           
              Fe    Fe     Fe              
                                           
                                           
                                           
                                           

Positions:
   0 Fe     0.000000    0.000000   10.000000    ( 0.0000,  0.0000,  2.7500)
   1 Fe     1.298117    0.749468   12.119817    ( 0.0000,  0.0000,  2.6728)
   2 Fe    -0.000051    1.498582   14.255970    ( 0.0000,  0.0000,  2.6756)
   3 Fe     0.000961    0.000241   16.402946    ( 0.0000,  0.0000,  2.7532)
   4 Fe    -1.298117    2.248405   10.000000    ( 0.0000,  0.0000,  2.7500)
   5 Fe     0.000000    2.997873   12.119817    ( 0.0000,  0.0000,  2.6728)
   6 Fe    -1.297933    3.746757   14.260073    ( 0.0000,  0.0000,  2.6756)
   7 Fe    -1.296145    2.248026   16.395740    ( 0.0000,  0.0000,  2.7532)
   8 Fe    -2.596234    4.496810   10.000000    ( 0.0000,  0.0000,  2.7500)
   9 Fe    -1.298117    5.246278   12.119817    ( 0.0000,  0.0000,  2.6728)
  10 Fe    -2.596126    5.995316   14.255266    ( 0.0000,  0.0000,  2.6756)
  11 Fe    -2.596183    4.491476   16.391314    ( 0.0000,  0.0000,  2.7532)
  12 Fe     2.596234    0.000000   10.000000    ( 0.0000,  0.0000,  2.7500)
  13 Fe     3.894352    0.749468   12.119817    ( 0.0000,  0.0000,  2.6728)
  14 Fe     2.596336    1.498522   14.256082    ( 0.0000,  0.0000,  2.6756)
  15 Fe     2.598967    0.000612   16.397916    ( 0.0000,  0.0000,  2.7532)
  16 Fe     1.298117    2.248405   10.000000    ( 0.0000,  0.0000,  2.7500)
  17 Fe     2.596234    2.997873   12.119817    ( 0.0000,  0.0000,  2.6728)
  18 Fe     1.298236    3.748203   14.258089    ( 0.0000,  0.0000,  2.6756)
  19 Fe     1.296340    2.266623   16.392657    ( 0.0000,  0.0000,  2.7532)
  20 Fe     0.000000    4.496810   10.000000    ( 0.0000,  0.0000,  2.7500)
  21 Fe     1.298117    5.246278   12.119817    ( 0.0000,  0.0000,  2.6728)
  22 Fe     0.000153    5.996228   14.262297    ( 0.0000,  0.0000,  2.6756)
  23 Fe     0.004557    4.497499   16.394682    ( 0.0000,  0.0000,  2.7532)
  24 Fe     5.192469    0.000000   10.000000    ( 0.0000,  0.0000,  2.7500)
  25 Fe     6.490586    0.749468   12.119817    ( 0.0000,  0.0000,  2.6728)
  26 Fe     5.192382    1.498115   14.260696    ( 0.0000,  0.0000,  2.6756)
  27 Fe     5.192427   -0.001352   16.393914    ( 0.0000,  0.0000,  2.7532)
  28 Fe     3.894352    2.248405   10.000000    ( 0.0000,  0.0000,  2.7500)
  29 Fe     5.192469    2.997873   12.119817    ( 0.0000,  0.0000,  2.6728)
  30 Fe     3.894174    3.746657   14.260181    ( 0.0000,  0.0000,  2.6756)
  31 Fe     3.893055    2.247925   16.394963    ( 0.0000,  0.0000,  2.7532)
  32 Fe     2.596234    4.496810   10.000000    ( 0.0000,  0.0000,  2.7500)
  33 Fe     3.894352    5.246278   12.119817    ( 0.0000,  0.0000,  2.6728)
  34 Fe     2.596648    5.996496   14.262857    ( 0.0000,  0.0000,  2.6756)
  35 Fe     2.591949    4.497329   16.394576    ( 0.0000,  0.0000,  2.7532)
  36 H      1.362540   -0.289704   19.787383    ( 0.0000,  0.0000,  0.0000)
  37 O      1.341358   -0.720751   18.935370    ( 0.0000,  0.0000,  0.0000)
  38 C      1.332305    0.248808   17.911474    ( 0.0000,  0.0000,  0.0000)
  39 C      1.288175    1.686916   18.270251    ( 0.0000,  0.0000,  0.0000)
  40 O      1.313778    2.245189   19.364872    ( 0.0000,  0.0000,  0.0000)

Unit cell:
           periodic     x           y           z      points  spacing
  1. axis:    yes    7.788703    0.000000    0.000000    36     0.1874
  2. axis:    yes   -3.894352    6.745215    0.000000    36     0.1874
  3. axis:    no     0.000000    0.000000   26.359450   148     0.1781

  Lengths:   7.788703   7.788703  26.359450
  Angles:   90.000000  90.000000 120.000000

Effective grid spacing dv^(1/3) = 0.1933

     iter     time        total  log10-change:  magmom
                         energy  eigst   dens
iter:   1 03:03:54 -2590.420646  -1.67           +95.7155
iter:   2 03:04:34 -2591.084854  -2.36  -2.42    +95.9592
iter:   3 03:05:15 -2590.836746  -2.52  -1.86    +95.9128
iter:   4 03:05:55 -2590.352561  -2.71  -1.94    +95.9150
iter:   5 03:06:35 -2590.245219  -3.01  -2.28    +95.8718
iter:   6 03:07:15 -2590.228678c -3.40  -2.51    +95.7009
iter:   7 03:07:55 -2590.206260c -3.27  -2.67    +95.7468
iter:   8 03:08:35 -2590.206743c -3.77  -2.96    +95.7614
iter:   9 03:09:15 -2590.236063c -3.70  -3.13    +95.7666
iter:  10 03:09:56 -2590.249907c -3.67  -2.55    +95.7560
iter:  11 03:10:36 -2590.202983c -3.91  -2.48    +95.7568
iter:  12 03:11:16 -2590.202682c -4.51  -3.34    +95.7504
iter:  13 03:11:56 -2590.202721c -5.11  -3.48    +95.7519
iter:  14 03:12:36 -2590.203264c -5.30  -3.57    +95.7397
iter:  15 03:13:16 -2590.202953c -5.45  -3.72    +95.7355
iter:  16 03:13:56 -2590.203460c -5.37  -3.57    +95.7368
iter:  17 03:14:37 -2590.203471c -5.90  -3.87    +95.7403
iter:  18 03:15:17 -2590.203326c -6.09  -3.74    +95.7417
iter:  19 03:15:57 -2590.203419c -6.19  -3.89    +95.7401
iter:  20 03:16:37 -2590.203291c -6.64  -4.03c   +95.7383
iter:  21 03:17:17 -2590.203403c -6.23  -3.97    +95.7384
iter:  22 03:17:57 -2590.203361c -6.48  -4.33c   +95.7371
iter:  23 03:18:38 -2590.203421c -6.96  -4.48c   +95.7357
iter:  24 03:19:18 -2590.203407c -7.20  -4.29c   +95.7358
iter:  25 03:19:58 -2590.203365c -7.31  -4.55c   +95.7355
iter:  26 03:20:38 -2590.203417c -7.12  -4.25c   +95.7357
iter:  27 03:21:18 -2590.203404c -7.74c -4.63c   +95.7364

Converged after 27 iterations.

Dipole moment: (-3.253753, -10.572209, -0.197655) |e|*Ang

Total magnetic moment: (0.000000, 0.000000, 95.736412)
Local magnetic moments:
   0 Fe ( 0.000000,  0.000000,  2.829588)
   1 Fe ( 0.000000,  0.000000,  2.756914)
   2 Fe ( 0.000000,  0.000000,  2.724077)
   3 Fe ( 0.000000,  0.000000,  2.358007)
   4 Fe ( 0.000000,  0.000000,  2.825644)
   5 Fe ( 0.000000,  0.000000,  2.749907)
   6 Fe ( 0.000000,  0.000000,  2.749887)
   7 Fe ( 0.000000,  0.000000,  2.864169)
   8 Fe ( 0.000000,  0.000000,  2.825437)
   9 Fe ( 0.000000,  0.000000,  2.750966)
  10 Fe ( 0.000000,  0.000000,  2.737649)
  11 Fe ( 0.000000,  0.000000,  2.876658)
  12 Fe ( 0.000000,  0.000000,  2.829944)
  13 Fe ( 0.000000,  0.000000,  2.747877)
  14 Fe ( 0.000000,  0.000000,  2.721507)
  15 Fe ( 0.000000,  0.000000,  2.300288)
  16 Fe ( 0.000000,  0.000000,  2.826531)
  17 Fe ( 0.000000,  0.000000,  2.750034)
  18 Fe ( 0.000000,  0.000000,  2.734422)
  19 Fe ( 0.000000,  0.000000,  2.198880)
  20 Fe ( 0.000000,  0.000000,  2.831515)
  21 Fe ( 0.000000,  0.000000,  2.760079)
  22 Fe ( 0.000000,  0.000000,  2.719429)
  23 Fe ( 0.000000,  0.000000,  2.860893)
  24 Fe ( 0.000000,  0.000000,  2.826861)
  25 Fe ( 0.000000,  0.000000,  2.746916)
  26 Fe ( 0.000000,  0.000000,  2.748511)
  27 Fe ( 0.000000,  0.000000,  2.831135)
  28 Fe ( 0.000000,  0.000000,  2.825628)
  29 Fe ( 0.000000,  0.000000,  2.751495)
  30 Fe ( 0.000000,  0.000000,  2.748634)
  31 Fe ( 0.000000,  0.000000,  2.863627)
  32 Fe ( 0.000000,  0.000000,  2.831851)
  33 Fe ( 0.000000,  0.000000,  2.749284)
  34 Fe ( 0.000000,  0.000000,  2.720881)
  35 Fe ( 0.000000,  0.000000,  2.859006)
  36 H  ( 0.000000,  0.000000,  0.000102)
  37 O  ( 0.000000,  0.000000, -0.012781)
  38 C  ( 0.000000,  0.000000, -0.060722)
  39 C  ( 0.000000,  0.000000, -0.038999)
  40 O  ( 0.000000,  0.000000, -0.096422)

Energy contributions relative to reference atoms: (reference = -1252449.816593)

Kinetic:       +850.990421
Potential:     -750.872932
External:        +0.000000
XC:            -2692.859087
Entropy (-ST):   -1.676276
Local:           +3.376332
--------------------------
Free energy:   -2591.041542
Extrapolated:  -2590.203404

Spin contamination: 2.936739 electrons
Showing only first 2 kpts
                      Up                     Down
 Kpt  Band  Eigenvalues  Occupancy  Eigenvalues  Occupancy
  0   152     -6.64024    1.00000     -3.82786    0.00000
  0   153     -6.63540    1.00000     -3.81929    0.00000
  0   154     -6.61435    1.00000     -3.79257    0.00000
  0   155     -6.59818    1.00000     -3.78044    0.00000

  1   152     -6.56603    1.00000     -3.71475    0.00000
  1   153     -6.52892    1.00000     -3.71158    0.00000
  1   154     -6.51672    1.00000     -3.70780    0.00000
  1   155     -6.50990    1.00000     -3.70573    0.00000


Fermi level: -5.09331

No gap

Forces in eV/Ang:
  0 Fe   -0.00289    0.00058   -0.15646
  1 Fe   -0.00099    0.00226    0.05026
  2 Fe    0.00056   -0.01473   -0.06010
  3 Fe   -0.00517   -0.00921    0.11355
  4 Fe    0.00435   -0.00100   -0.14974
  5 Fe    0.00739    0.00857    0.03848
  6 Fe    0.00699   -0.00807   -0.00224
  7 Fe    0.02423   -0.01308   -0.01667
  8 Fe   -0.00169    0.00868   -0.15478
  9 Fe    0.01083    0.00306    0.06058
 10 Fe   -0.00071    0.00019   -0.05970
 11 Fe   -0.00023   -0.05398   -0.05842
 12 Fe    0.00015    0.00198   -0.15697
 13 Fe   -0.00179   -0.00387    0.04600
 14 Fe   -0.00211   -0.01012   -0.06441
 15 Fe    0.04672   -0.00708    0.01733
 16 Fe   -0.00151    0.00400   -0.16538
 17 Fe   -0.01027    0.00860    0.03873
 18 Fe    0.00177    0.01173   -0.03551
 19 Fe   -0.00578    0.16106    0.08041
 20 Fe   -0.00818   -0.00252   -0.16301
 21 Fe    0.00317   -0.00487    0.02311
 22 Fe   -0.00344    0.00370    0.04042
 23 Fe    0.04631    0.01176   -0.00820
 24 Fe   -0.00259    0.00836   -0.15801
 25 Fe   -0.00235   -0.00644    0.04529
 26 Fe    0.00042   -0.00583    0.01126
 27 Fe    0.00674   -0.00927   -0.02058
 28 Fe   -0.00888   -0.00210   -0.15067
 29 Fe   -0.00063    0.00099    0.04875
 30 Fe   -0.00601   -0.00722   -0.00134
 31 Fe   -0.02041   -0.00946   -0.02421
 32 Fe    0.00483   -0.00255   -0.16453
 33 Fe   -0.01506    0.00517    0.06183
 34 Fe    0.01297    0.00745    0.05577
 35 Fe   -0.04304    0.01268   -0.01035
 36 H     0.00709    0.44832    0.84134
 37 O     0.02997    0.12732   -0.98466
 38 C    -0.19509   -0.17772    0.49533
 39 C     0.21439    0.01037    0.38347
 40 O    -0.14281   -0.57274   -0.56595

BFGS:    3 03:21:44    -2590.203404        0.9933
System changes: positions 

Initializing position-dependent things.

Density initialized from wave functions
                                           
                                           
                                           
                                           
                                           
                                           
                                           
                   O                       
                 HC                        
           Fe    Oe    Fe                  
            Fe   C Fe    Fe                
            Fe    Fe    Fe                 
             FFe    Fe    FFe              
                                           
              FFe    Fe    FFe             
                Fe    Fe     Fe            
                                           
           Fe    FFe   FFe    Fe           
            Fe     Fe    Fe                
                                           
              Fe    Fe     Fe              
                                           
                                           
                                           
                                           

Positions:
   0 Fe     0.000000    0.000000   10.000000    ( 0.0000,  0.0000,  2.7500)
   1 Fe     1.298117    0.749468   12.119817    ( 0.0000,  0.0000,  2.6728)
   2 Fe    -0.000049    1.498416   14.255339    ( 0.0000,  0.0000,  2.6756)
   3 Fe     0.000890    0.000131   16.404137    ( 0.0000,  0.0000,  2.7532)
   4 Fe    -1.298117    2.248405   10.000000    ( 0.0000,  0.0000,  2.7500)
   5 Fe     0.000000    2.997873   12.119817    ( 0.0000,  0.0000,  2.6728)
   6 Fe    -1.297858    3.746673   14.260046    ( 0.0000,  0.0000,  2.6756)
   7 Fe    -1.295896    2.247881   16.395540    ( 0.0000,  0.0000,  2.7532)
   8 Fe    -2.596234    4.496810   10.000000    ( 0.0000,  0.0000,  2.7500)
   9 Fe    -1.298117    5.246278   12.119817    ( 0.0000,  0.0000,  2.6728)
  10 Fe    -2.596135    5.995325   14.254650    ( 0.0000,  0.0000,  2.6756)
  11 Fe    -2.596186    4.490929   16.390699    ( 0.0000,  0.0000,  2.7532)
  12 Fe     2.596234    0.000000   10.000000    ( 0.0000,  0.0000,  2.7500)
  13 Fe     3.894352    0.749468   12.119817    ( 0.0000,  0.0000,  2.6728)
  14 Fe     2.596316    1.498408   14.255400    ( 0.0000,  0.0000,  2.6756)
  15 Fe     2.599465    0.000523   16.398080    ( 0.0000,  0.0000,  2.7532)
  16 Fe     1.298117    2.248405   10.000000    ( 0.0000,  0.0000,  2.7500)
  17 Fe     2.596234    2.997873   12.119817    ( 0.0000,  0.0000,  2.6728)
  18 Fe     1.298254    3.748324   14.257715    ( 0.0000,  0.0000,  2.6756)
  19 Fe     1.296296    2.268166   16.393685    ( 0.0000,  0.0000,  2.7532)
  20 Fe     0.000000    4.496810   10.000000    ( 0.0000,  0.0000,  2.7500)
  21 Fe     1.298117    5.246278   12.119817    ( 0.0000,  0.0000,  2.6728)
  22 Fe     0.000112    5.996264   14.262724    ( 0.0000,  0.0000,  2.6756)
  23 Fe     0.005029    4.497620   16.394593    ( 0.0000,  0.0000,  2.7532)
  24 Fe     5.192469    0.000000   10.000000    ( 0.0000,  0.0000,  2.7500)
  25 Fe     6.490586    0.749468   12.119817    ( 0.0000,  0.0000,  2.6728)
  26 Fe     5.192388    1.498061   14.260813    ( 0.0000,  0.0000,  2.6756)
  27 Fe     5.192504   -0.001440   16.393696    ( 0.0000,  0.0000,  2.7532)
  28 Fe     3.894352    2.248405   10.000000    ( 0.0000,  0.0000,  2.7500)
  29 Fe     5.192469    2.997873   12.119817    ( 0.0000,  0.0000,  2.6728)
  30 Fe     3.894109    3.746584   14.260163    ( 0.0000,  0.0000,  2.6756)
  31 Fe     3.892842    2.247822   16.394688    ( 0.0000,  0.0000,  2.7532)
  32 Fe     2.596234    4.496810   10.000000    ( 0.0000,  0.0000,  2.7500)
  33 Fe     3.894352    5.246278   12.119817    ( 0.0000,  0.0000,  2.6728)
  34 Fe     2.596790    5.996571   14.263451    ( 0.0000,  0.0000,  2.6756)
  35 Fe     2.591511    4.497462   16.394465    ( 0.0000,  0.0000,  2.7532)
  36 H      1.362608   -0.285305   19.795585    ( 0.0000,  0.0000,  0.0000)
  37 O      1.341701   -0.718365   18.924893    ( 0.0000,  0.0000,  0.0000)
  38 C      1.330246    0.245972   17.917406    ( 0.0000,  0.0000,  0.0000)
  39 C      1.290337    1.686068   18.271542    ( 0.0000,  0.0000,  0.0000)
  40 O      1.312340    2.240488   19.361641    ( 0.0000,  0.0000,  0.0000)

Unit cell:
           periodic     x           y           z      points  spacing
  1. axis:    yes    7.788703    0.000000    0.000000    36     0.1874
  2. axis:    yes   -3.894352    6.745215    0.000000    36     0.1874
  3. axis:    no     0.000000    0.000000   26.359450   148     0.1781

  Lengths:   7.788703   7.788703  26.359450
  Angles:   90.000000  90.000000 120.000000

Effective grid spacing dv^(1/3) = 0.1933

     iter     time        total  log10-change:  magmom
                         energy  eigst   dens
iter:   1 03:23:28 -2590.264010  -2.74           +95.7375
iter:   2 03:24:08 -2591.200294  -2.72  -2.52    +95.6382
iter:   3 03:24:48 -2590.245833  -3.08  -1.84    +95.6848
iter:   4 03:25:28 -2590.225937  -3.92  -2.66    +95.6854
iter:   5 03:26:09 -2590.223653c -4.44  -3.01    +95.6837
iter:   6 03:26:49 -2590.224103c -4.54  -3.25    +95.7106
iter:   7 03:27:29 -2590.222066c -4.28  -3.16    +95.7308
iter:   8 03:28:09 -2590.222159c -4.45  -3.62    +95.7388
iter:   9 03:28:50 -2590.221870c -5.17  -3.44    +95.7340
iter:  10 03:29:30 -2590.221841c -5.62  -3.85    +95.7323
iter:  11 03:30:10 -2590.222421c -5.50  -3.80    +95.7324
iter:  12 03:30:50 -2590.221905c -5.93  -3.76    +95.7339
iter:  13 03:31:30 -2590.221948c -6.46  -3.97    +95.7343
iter:  14 03:32:11 -2590.221994c -6.62  -4.21c   +95.7329
iter:  15 03:32:51 -2590.221870c -6.67  -3.98    +95.7338
iter:  16 03:33:31 -2590.221931c -6.94  -4.32c   +95.7336
iter:  17 03:34:11 -2590.221933c -7.19  -4.40c   +95.7339
iter:  18 03:34:52 -2590.221986c -7.25  -4.27c   +95.7341
iter:  19 03:35:32 -2590.221887c -6.64  -4.46c   +95.7348
iter:  20 03:36:12 -2590.221930c -7.11  -4.64c   +95.7347
iter:  21 03:36:52 -2590.221932c -7.51c -4.58c   +95.7344

Converged after 21 iterations.

Dipole moment: (-3.278383, -10.537806, -0.172430) |e|*Ang

Total magnetic moment: (0.000000, 0.000000, 95.734360)
Local magnetic moments:
   0 Fe ( 0.000000,  0.000000,  2.829254)
   1 Fe ( 0.000000,  0.000000,  2.756433)
   2 Fe ( 0.000000,  0.000000,  2.724084)
   3 Fe ( 0.000000,  0.000000,  2.359102)
   4 Fe ( 0.000000,  0.000000,  2.825310)
   5 Fe ( 0.000000,  0.000000,  2.749666)
   6 Fe ( 0.000000,  0.000000,  2.750252)
   7 Fe ( 0.000000,  0.000000,  2.864493)
   8 Fe ( 0.000000,  0.000000,  2.825049)
   9 Fe ( 0.000000,  0.000000,  2.750882)
  10 Fe ( 0.000000,  0.000000,  2.737713)
  11 Fe ( 0.000000,  0.000000,  2.876525)
  12 Fe ( 0.000000,  0.000000,  2.829595)
  13 Fe ( 0.000000,  0.000000,  2.747782)
  14 Fe ( 0.000000,  0.000000,  2.721716)
  15 Fe ( 0.000000,  0.000000,  2.306209)
  16 Fe ( 0.000000,  0.000000,  2.826221)
  17 Fe ( 0.000000,  0.000000,  2.749795)
  18 Fe ( 0.000000,  0.000000,  2.735060)
  19 Fe ( 0.000000,  0.000000,  2.199977)
  20 Fe ( 0.000000,  0.000000,  2.831227)
  21 Fe ( 0.000000,  0.000000,  2.760041)
  22 Fe ( 0.000000,  0.000000,  2.719722)
  23 Fe ( 0.000000,  0.000000,  2.860170)
  24 Fe ( 0.000000,  0.000000,  2.826505)
  25 Fe ( 0.000000,  0.000000,  2.746786)
  26 Fe ( 0.000000,  0.000000,  2.748855)
  27 Fe ( 0.000000,  0.000000,  2.830948)
  28 Fe ( 0.000000,  0.000000,  2.825312)
  29 Fe ( 0.000000,  0.000000,  2.751386)
  30 Fe ( 0.000000,  0.000000,  2.748960)
  31 Fe ( 0.000000,  0.000000,  2.863721)
  32 Fe ( 0.000000,  0.000000,  2.831517)
  33 Fe ( 0.000000,  0.000000,  2.749282)
  34 Fe ( 0.000000,  0.000000,  2.721181)
  35 Fe ( 0.000000,  0.000000,  2.858517)
  36 H  ( 0.000000,  0.000000,  0.000056)
  37 O  ( 0.000000,  0.000000, -0.013144)
  38 C  ( 0.000000,  0.000000, -0.061252)
  39 C  ( 0.000000,  0.000000, -0.039217)
  40 O  ( 0.000000,  0.000000, -0.095970)

Energy contributions relative to reference atoms: (reference = -1252449.816593)

Kinetic:       +851.234425
Potential:     -751.110562
External:        +0.000000
XC:            -2692.885786
Entropy (-ST):   -1.675790
Local:           +3.377886
--------------------------
Free energy:   -2591.059827
Extrapolated:  -2590.221932

Spin contamination: 2.941239 electrons
Showing only first 2 kpts
                      Up                     Down
 Kpt  Band  Eigenvalues  Occupancy  Eigenvalues  Occupancy
  0   152     -6.61302    1.00000     -3.80080    0.00000
  0   153     -6.60825    1.00000     -3.79207    0.00000
  0   154     -6.58727    1.00000     -3.76567    0.00000
  0   155     -6.57126    1.00000     -3.75337    0.00000

  1   152     -6.53862    1.00000     -3.68765    0.00000
  1   153     -6.50143    1.00000     -3.68440    0.00000
  1   154     -6.48984    1.00000     -3.68048    0.00000
  1   155     -6.48278    1.00000     -3.67835    0.00000


Fermi level: -5.06624

No gap

Forces in eV/Ang:
  0 Fe   -0.00287    0.00058   -0.15514
  1 Fe   -0.00117    0.00212    0.04746
  2 Fe    0.00359   -0.01250   -0.04906
  3 Fe    0.00499   -0.00657    0.11061
  4 Fe    0.00427   -0.00082   -0.14841
  5 Fe    0.00720    0.00913    0.03762
  6 Fe    0.00694   -0.00744   -0.00276
  7 Fe    0.02071   -0.01289   -0.01693
  8 Fe   -0.00170    0.00857   -0.15353
  9 Fe    0.01202    0.00289    0.06098
 10 Fe   -0.00133    0.00002   -0.05363
 11 Fe   -0.00051   -0.04615   -0.06149
 12 Fe    0.00022    0.00192   -0.15564
 13 Fe   -0.00068   -0.00478    0.04613
 14 Fe   -0.00495   -0.00729   -0.05486
 15 Fe    0.02007   -0.00280    0.02997
 16 Fe   -0.00150    0.00394   -0.16403
 17 Fe   -0.00998    0.00906    0.03772
 18 Fe    0.00149    0.00772   -0.03248
 19 Fe   -0.00108    0.14579    0.07695
 20 Fe   -0.00825   -0.00254   -0.16155
 21 Fe    0.00324   -0.00340    0.02541
 22 Fe   -0.00362    0.00406    0.03778
 23 Fe    0.03827    0.00978   -0.00593
 24 Fe   -0.00261    0.00831   -0.15660
 25 Fe   -0.00347   -0.00766    0.04602
 26 Fe    0.00041   -0.00495    0.01080
 27 Fe    0.00696   -0.00556   -0.01503
 28 Fe   -0.00879   -0.00193   -0.14939
 29 Fe   -0.00067    0.00101    0.04980
 30 Fe   -0.00580   -0.00636   -0.00241
 31 Fe   -0.01890   -0.00890   -0.02232
 32 Fe    0.00492   -0.00256   -0.16289
 33 Fe   -0.01636    0.00508    0.06262
 34 Fe    0.01190    0.00698    0.05262
 35 Fe   -0.03538    0.01165   -0.00722
 36 H    -0.01481    0.06102    0.09033
 37 O     0.04908    0.33985    0.03691
 38 C    -0.16920   -0.00655    0.16253
 39 C     0.18484   -0.14745    0.04797
 40 O    -0.11768   -0.37890   -0.20356

BFGS:    4 03:37:18    -2590.221932        0.4459
System changes: positions 

Initializing position-dependent things.

Density initialized from wave functions
                                           
                                           
                                           
                                           
                                           
                                           
                                           
                   O                       
                 HC                        
           Fe    Oe    Fe                  
            Fe   C Fe    Fe                
            Fe    Fe    Fe                 
             FFe    Fe    FFe              
                                           
              FFe    Fe    FFe             
                Fe    Fe     Fe            
                                           
           Fe    FFe   FFe    Fe           
            Fe     Fe    Fe                
                                           
              Fe    Fe     Fe              
                                           
                                           
                                           
                                           

Positions:
   0 Fe     0.000000    0.000000   10.000000    ( 0.0000,  0.0000,  2.7500)
   1 Fe     1.298117    0.749468   12.119817    ( 0.0000,  0.0000,  2.6728)
   2 Fe     0.000002    1.498095   14.254055    ( 0.0000,  0.0000,  2.6756)
   3 Fe     0.000971   -0.000032   16.406874    ( 0.0000,  0.0000,  2.7532)
   4 Fe    -1.298117    2.248405   10.000000    ( 0.0000,  0.0000,  2.7500)
   5 Fe     0.000000    2.997873   12.119817    ( 0.0000,  0.0000,  2.6728)
   6 Fe    -1.297696    3.746487   14.259980    ( 0.0000,  0.0000,  2.6756)
   7 Fe    -1.295362    2.247566   16.395150    ( 0.0000,  0.0000,  2.7532)
   8 Fe    -2.596234    4.496810   10.000000    ( 0.0000,  0.0000,  2.7500)
   9 Fe    -1.298117    5.246278   12.119817    ( 0.0000,  0.0000,  2.6728)
  10 Fe    -2.596161    5.995320   14.253278    ( 0.0000,  0.0000,  2.6756)
  11 Fe    -2.596196    4.489695   16.389198    ( 0.0000,  0.0000,  2.7532)
  12 Fe     2.596234    0.000000   10.000000    ( 0.0000,  0.0000,  2.7500)
  13 Fe     3.894352    0.749468   12.119817    ( 0.0000,  0.0000,  2.6728)
  14 Fe     2.596232    1.498204   14.253993    ( 0.0000,  0.0000,  2.6756)
  15 Fe     2.600125    0.000454   16.398764    ( 0.0000,  0.0000,  2.7532)
  16 Fe     1.298117    2.248405   10.000000    ( 0.0000,  0.0000,  2.7500)
  17 Fe     2.596234    2.997873   12.119817    ( 0.0000,  0.0000,  2.6728)
  18 Fe     1.298292    3.748539   14.256911    ( 0.0000,  0.0000,  2.6756)
  19 Fe     1.296210    2.271798   16.395771    ( 0.0000,  0.0000,  2.7532)
  20 Fe     0.000000    4.496810   10.000000    ( 0.0000,  0.0000,  2.7500)
  21 Fe     1.298117    5.246278   12.119817    ( 0.0000,  0.0000,  2.6728)
  22 Fe     0.000029    5.996368   14.263654    ( 0.0000,  0.0000,  2.6756)
  23 Fe     0.006060    4.497861   16.394432    ( 0.0000,  0.0000,  2.7532)
  24 Fe     5.192469    0.000000   10.000000    ( 0.0000,  0.0000,  2.7500)
  25 Fe     6.490586    0.749468   12.119817    ( 0.0000,  0.0000,  2.6728)
  26 Fe     5.192396    1.497930   14.261074    ( 0.0000,  0.0000,  2.6756)
  27 Fe     5.192664   -0.001616   16.393299    ( 0.0000,  0.0000,  2.7532)
  28 Fe     3.894352    2.248405   10.000000    ( 0.0000,  0.0000,  2.7500)
  29 Fe     5.192469    2.997873   12.119817    ( 0.0000,  0.0000,  2.6728)
  30 Fe     3.893973    3.746421   14.260112    ( 0.0000,  0.0000,  2.6756)
  31 Fe     3.892373    2.247597   16.394147    ( 0.0000,  0.0000,  2.7532)
  32 Fe     2.596234    4.496810   10.000000    ( 0.0000,  0.0000,  2.7500)
  33 Fe     3.894352    5.246278   12.119817    ( 0.0000,  0.0000,  2.6728)
  34 Fe     2.597083    5.996751   14.264740    ( 0.0000,  0.0000,  2.6756)
  35 Fe     2.590556    4.497740   16.394267    ( 0.0000,  0.0000,  2.7532)
  36 H      1.362284   -0.283295   19.799168    ( 0.0000,  0.0000,  0.0000)
  37 O      1.342847   -0.710385   18.924043    ( 0.0000,  0.0000,  0.0000)
  38 C      1.325959    0.246122   17.921955    ( 0.0000,  0.0000,  0.0000)
  39 C      1.295006    1.681336   18.271060    ( 0.0000,  0.0000,  0.0000)
  40 O      1.309444    2.231764   19.357879    ( 0.0000,  0.0000,  0.0000)

Unit cell:
           periodic     x           y           z      points  spacing
  1. axis:    yes    7.788703    0.000000    0.000000    36     0.1874
  2. axis:    yes   -3.894352    6.745215    0.000000    36     0.1874
  3. axis:    no     0.000000    0.000000   26.359450   148     0.1781

  Lengths:   7.788703   7.788703  26.359450
  Angles:   90.000000  90.000000 120.000000

Effective grid spacing dv^(1/3) = 0.1933

     iter     time        total  log10-change:  magmom
                         energy  eigst   dens
iter:   1 03:39:02 -2590.313694  -2.73           +95.7323
iter:   2 03:39:43 -2591.438635  -2.57  -2.40    +95.5729
iter:   3 03:40:24 -2590.463956  -2.73  -1.80    +95.6268
iter:   4 03:41:04 -2590.242525  -3.52  -2.16    +95.6344
iter:   5 03:41:45 -2590.230037  -4.14  -2.78    +95.6335
iter:   6 03:42:25 -2590.232203c -4.74  -3.22    +95.6788
iter:   7 03:43:06 -2590.232725c -4.69  -3.21    +95.7417
iter:   8 03:43:46 -2590.232509c -4.45  -3.21    +95.7523
iter:   9 03:44:27 -2590.230909c -5.07  -3.14    +95.7446
iter:  10 03:45:07 -2590.231266c -5.28  -3.60    +95.7442
iter:  11 03:45:48 -2590.231140c -5.64  -3.62    +95.7428
iter:  12 03:46:29 -2590.230786c -5.71  -4.00c   +95.7422
iter:  13 03:47:09 -2590.231290c -5.93  -3.86    +95.7376
iter:  14 03:47:50 -2590.230998c -6.15  -3.77    +95.7375
iter:  15 03:48:30 -2590.231063c -6.54  -4.13c   +95.7395
iter:  16 03:49:11 -2590.231248c -6.32  -4.25c   +95.7383
iter:  17 03:49:52 -2590.231295c -6.64  -4.34c   +95.7388
iter:  18 03:50:32 -2590.231230c -6.64  -4.37c   +95.7370
iter:  19 03:51:13 -2590.231223c -7.29  -4.55c   +95.7374
iter:  20 03:51:53 -2590.231242c -7.50c -4.57c   +95.7380

Converged after 20 iterations.

Dipole moment: (-3.306250, -10.443775, -0.159981) |e|*Ang

Total magnetic moment: (0.000000, 0.000000, 95.737973)
Local magnetic moments:
   0 Fe ( 0.000000,  0.000000,  2.829680)
   1 Fe ( 0.000000,  0.000000,  2.756165)
   2 Fe ( 0.000000,  0.000000,  2.724726)
   3 Fe ( 0.000000,  0.000000,  2.357814)
   4 Fe ( 0.000000,  0.000000,  2.825663)
   5 Fe ( 0.000000,  0.000000,  2.749476)
   6 Fe ( 0.000000,  0.000000,  2.750297)
   7 Fe ( 0.000000,  0.000000,  2.864038)
   8 Fe ( 0.000000,  0.000000,  2.825353)
   9 Fe ( 0.000000,  0.000000,  2.750969)
  10 Fe ( 0.000000,  0.000000,  2.738192)
  11 Fe ( 0.000000,  0.000000,  2.875580)
  12 Fe ( 0.000000,  0.000000,  2.829950)
  13 Fe ( 0.000000,  0.000000,  2.748003)
  14 Fe ( 0.000000,  0.000000,  2.722952)
  15 Fe ( 0.000000,  0.000000,  2.314926)
  16 Fe ( 0.000000,  0.000000,  2.826558)
  17 Fe ( 0.000000,  0.000000,  2.749633)
  18 Fe ( 0.000000,  0.000000,  2.735446)
  19 Fe ( 0.000000,  0.000000,  2.203021)
  20 Fe ( 0.000000,  0.000000,  2.831555)
  21 Fe ( 0.000000,  0.000000,  2.760039)
  22 Fe ( 0.000000,  0.000000,  2.719826)
  23 Fe ( 0.000000,  0.000000,  2.858080)
  24 Fe ( 0.000000,  0.000000,  2.826801)
  25 Fe ( 0.000000,  0.000000,  2.746835)
  26 Fe ( 0.000000,  0.000000,  2.748849)
  27 Fe ( 0.000000,  0.000000,  2.829245)
  28 Fe ( 0.000000,  0.000000,  2.825666)
  29 Fe ( 0.000000,  0.000000,  2.751407)
  30 Fe ( 0.000000,  0.000000,  2.748919)
  31 Fe ( 0.000000,  0.000000,  2.862961)
  32 Fe ( 0.000000,  0.000000,  2.831693)
  33 Fe ( 0.000000,  0.000000,  2.749421)
  34 Fe ( 0.000000,  0.000000,  2.721178)
  35 Fe ( 0.000000,  0.000000,  2.856615)
  36 H  ( 0.000000,  0.000000,  0.000020)
  37 O  ( 0.000000,  0.000000, -0.013355)
  38 C  ( 0.000000,  0.000000, -0.061245)
  39 C  ( 0.000000,  0.000000, -0.039467)
  40 O  ( 0.000000,  0.000000, -0.096468)

Energy contributions relative to reference atoms: (reference = -1252449.816593)

Kinetic:       +852.339963
Potential:     -751.976853
External:        +0.000000
XC:            -2693.139696
Entropy (-ST):   -1.675126
Local:           +3.382907
--------------------------
Free energy:   -2591.068805
Extrapolated:  -2590.231242

Spin contamination: 2.944309 electrons
Showing only first 2 kpts
                      Up                     Down
 Kpt  Band  Eigenvalues  Occupancy  Eigenvalues  Occupancy
  0   152     -6.59995    1.00000     -3.78785    0.00000
  0   153     -6.59508    1.00000     -3.77860    0.00000
  0   154     -6.57456    1.00000     -3.75291    0.00000
  0   155     -6.55874    1.00000     -3.74018    0.00000

  1   152     -6.52490    1.00000     -3.67443    0.00000
  1   153     -6.48846    1.00000     -3.67145    0.00000
  1   154     -6.47723    1.00000     -3.66709    0.00000
  1   155     -6.46966    1.00000     -3.66509    0.00000


Fermi level: -5.05321

No gap

Forces in eV/Ang:
  0 Fe   -0.00274    0.00072   -0.15508
  1 Fe   -0.00141    0.00232    0.03912
  2 Fe    0.00684   -0.00890   -0.02891
  3 Fe    0.01383    0.00121    0.09251
  4 Fe    0.00434   -0.00064   -0.14838
  5 Fe    0.00654    0.01008    0.03406
  6 Fe    0.00686   -0.00543   -0.00438
  7 Fe    0.01593   -0.01097   -0.02043
  8 Fe   -0.00172    0.00847   -0.15346
  9 Fe    0.01486    0.00248    0.06022
 10 Fe   -0.00227   -0.00078   -0.03624
 11 Fe   -0.00105   -0.02580   -0.06341
 12 Fe    0.00020    0.00196   -0.15542
 13 Fe    0.00101   -0.00635    0.04532
 14 Fe   -0.00776   -0.00279   -0.03781
 15 Fe   -0.01321    0.00426    0.03726
 16 Fe   -0.00151    0.00370   -0.16385
 17 Fe   -0.00900    0.00972    0.03383
 18 Fe    0.00091    0.00397   -0.02863
 19 Fe    0.00783    0.11182    0.04941
 20 Fe   -0.00840   -0.00261   -0.16162
 21 Fe    0.00337   -0.00060    0.02890
 22 Fe   -0.00337    0.00253    0.03142
 23 Fe    0.01991    0.00849   -0.00392
 24 Fe   -0.00262    0.00833   -0.15633
 25 Fe   -0.00527   -0.00995    0.04637
 26 Fe    0.00047   -0.00261    0.00697
 27 Fe    0.00678   -0.00166   -0.00606
 28 Fe   -0.00881   -0.00169   -0.14939
 29 Fe   -0.00076    0.00077    0.05058
 30 Fe   -0.00524   -0.00396   -0.00512
 31 Fe   -0.01779   -0.00661   -0.02098
 32 Fe    0.00511   -0.00261   -0.16254
 33 Fe   -0.01940    0.00482    0.06264
 34 Fe    0.00906    0.00396    0.04516
 35 Fe   -0.01804    0.01193   -0.00392
 36 H    -0.01425    0.06258    0.02756
 37 O     0.00343    0.11529    0.26132
 38 C    -0.11960    0.00863   -0.05297
 39 C     0.12401   -0.19567   -0.20849
 40 O    -0.05999   -0.20472    0.12147

BFGS:    5 03:52:19    -2590.231242        0.3117
System changes: positions 

Initializing position-dependent things.

Density initialized from wave functions
                                           
                                           
                                           
                                           
                                           
                                           
                                           
                   O                       
                 HC                        
           Fe    Oe    Fe                  
            Fe   C Fe    Fe                
            Fe    Fe    Fe                 
             FFe    Fe    FFe              
                                           
              FFe    Fe    FFe             
                Fe    Fe     Fe            
                                           
           Fe    FFe   FFe    Fe           
            Fe     Fe    Fe                
                                           
              Fe    Fe     Fe              
                                           
                                           
                                           
                                           

Positions:
   0 Fe     0.000000    0.000000   10.000000    ( 0.0000,  0.0000,  2.7500)
   1 Fe     1.298117    0.749468   12.119817    ( 0.0000,  0.0000,  2.6728)
   2 Fe     0.000198    1.497577   14.252110    ( 0.0000,  0.0000,  2.6756)
   3 Fe     0.001361   -0.000139   16.411675    ( 0.0000,  0.0000,  2.7532)
   4 Fe    -1.298117    2.248405   10.000000    ( 0.0000,  0.0000,  2.7500)
   5 Fe     0.000000    2.997873   12.119817    ( 0.0000,  0.0000,  2.6728)
   6 Fe    -1.297383    3.746181   14.259815    ( 0.0000,  0.0000,  2.6756)
   7 Fe    -1.294454    2.247012   16.394308    ( 0.0000,  0.0000,  2.7532)
   8 Fe    -2.596234    4.496810   10.000000    ( 0.0000,  0.0000,  2.7500)
   9 Fe    -1.298117    5.246278   12.119817    ( 0.0000,  0.0000,  2.6728)
  10 Fe    -2.596235    5.995289   14.251089    ( 0.0000,  0.0000,  2.6756)
  11 Fe    -2.596229    4.487852   16.386245    ( 0.0000,  0.0000,  2.7532)
  12 Fe     2.596234    0.000000   10.000000    ( 0.0000,  0.0000,  2.7500)
  13 Fe     3.894352    0.749468   12.119817    ( 0.0000,  0.0000,  2.6728)
  14 Fe     2.595985    1.497936   14.251725    ( 0.0000,  0.0000,  2.6756)
  15 Fe     2.600515    0.000509   16.400272    ( 0.0000,  0.0000,  2.7532)
  16 Fe     1.298117    2.248405   10.000000    ( 0.0000,  0.0000,  2.7500)
  17 Fe     2.596234    2.997873   12.119817    ( 0.0000,  0.0000,  2.6728)
  18 Fe     1.298351    3.748857   14.255455    ( 0.0000,  0.0000,  2.6756)
  19 Fe     1.296282    2.278000   16.398945    ( 0.0000,  0.0000,  2.7532)
  20 Fe     0.000000    4.496810   10.000000    ( 0.0000,  0.0000,  2.7500)
  21 Fe     1.298117    5.246278   12.119817    ( 0.0000,  0.0000,  2.6728)
  22 Fe    -0.000124    5.996527   14.265289    ( 0.0000,  0.0000,  2.6756)
  23 Fe     0.007558    4.498300   16.394174    ( 0.0000,  0.0000,  2.7532)
  24 Fe     5.192469    0.000000   10.000000    ( 0.0000,  0.0000,  2.7500)
  25 Fe     6.490586    0.749468   12.119817    ( 0.0000,  0.0000,  2.6728)
  26 Fe     5.192413    1.497735   14.261480    ( 0.0000,  0.0000,  2.6756)
  27 Fe     5.192971   -0.001852   16.392766    ( 0.0000,  0.0000,  2.7532)
  28 Fe     3.894352    2.248405   10.000000    ( 0.0000,  0.0000,  2.7500)
  29 Fe     5.192469    2.997873   12.119817    ( 0.0000,  0.0000,  2.6728)
  30 Fe     3.893721    3.746167   14.259943    ( 0.0000,  0.0000,  2.6756)
[...]
  0   153     -6.45145    1.00000     -3.64305    0.00000
  0   154     -6.43272    1.00000     -3.60702    0.00000
  0   155     -6.41267    1.00000     -3.59451    0.00000

  1   152     -6.38881    1.00000     -3.56793    0.00000
  1   153     -6.38337    1.00000     -3.54982    0.00000
  1   154     -6.35379    1.00000     -3.54029    0.00000
  1   155     -6.33984    1.00000     -3.51221    0.00000


Fermi level: -4.92447

No gap

Forces in eV/Ang:
  0 Fe   -0.00368    0.00157   -0.16362
  1 Fe    0.00513    0.00488    0.11475
  2 Fe    0.02271   -0.02670   -0.00453
  3 Fe    0.00518   -0.00456   -0.01200
  4 Fe    0.00508   -0.00862   -0.15165
  5 Fe    0.01624   -0.02922    0.10383
  6 Fe   -0.02821    0.00942    0.00532
  7 Fe    0.00880   -0.00175   -0.00582
  8 Fe   -0.00286    0.00831   -0.16053
  9 Fe   -0.01368   -0.05721    0.04240
 10 Fe   -0.02515    0.03714   -0.00884
 11 Fe    0.00602   -0.01336   -0.02474
 12 Fe   -0.00204    0.00176   -0.16122
 13 Fe   -0.04334   -0.00861    0.04214
 14 Fe   -0.03082   -0.01085   -0.01579
 15 Fe   -0.00476    0.00740    0.00936
 16 Fe   -0.00280   -0.00631   -0.17038
 17 Fe   -0.02311   -0.04289    0.11623
 18 Fe   -0.00045   -0.03515    0.01532
 19 Fe   -0.02069    0.00103    0.00005
 20 Fe   -0.00283   -0.00252   -0.16868
 21 Fe   -0.00587   -0.06826    0.01291
 22 Fe   -0.01832    0.00689   -0.01661
 23 Fe    0.02397   -0.00264    0.01029
 24 Fe   -0.00307   -0.00127   -0.16051
 25 Fe    0.03746   -0.01505    0.03227
 26 Fe   -0.00213    0.00201    0.00507
 27 Fe    0.00927    0.00833    0.04623
 28 Fe   -0.00895   -0.00933   -0.15200
 29 Fe   -0.00065   -0.00878    0.06662
 30 Fe    0.02053    0.01766   -0.00378
 31 Fe   -0.02012   -0.00257   -0.01007
 32 Fe    0.00147   -0.00122   -0.17036
 33 Fe    0.01475   -0.05256    0.04152
 34 Fe    0.04637    0.01716   -0.01630
 35 Fe   -0.00289    0.00919   -0.00147
 36 H     0.00403   -0.01215    0.03936
 37 O     0.02842   -0.00095   -0.03915
 38 C     0.01326   -0.02203   -0.01033
 39 C     0.00595   -0.04264    0.02481
 40 O    -0.00067    0.01867    0.04386

BFGS:   65 03:25:15    -2590.857593        0.0521
System changes: positions 

Initializing position-dependent things.

Density initialized from wave functions
                                           
                                           
                                           
                                           
                                           
                                           
                                           
                                           
                 HO                        
           Fe   OFe    Fe                  
            Fe   CCFe    Fe                
            Fe    Fe    Fe                 
             FFe    FFe   FFe              
               Fe    Fe     Fe             
              Fe     Fe    Fe              
                Fe    Fe     Fe            
                  Fe    Fe     Fe          
           Fe    Fe    Fe                  
            Fe     Fe    Fe                
                                           
              Fe     Fe    Fe              
                                           
                                           
                                           
                                           

Positions:
   0 Fe     0.000000    0.000000   10.000000    ( 0.0000,  0.0000,  2.7500)
   1 Fe     1.298117    0.749468   12.119817    ( 0.0000,  0.0000,  2.6728)
   2 Fe     0.007481    1.507152   14.275142    ( 0.0000,  0.0000,  2.6756)
   3 Fe    -0.087213    0.090863   16.349769    ( 0.0000,  0.0000,  2.7532)
   4 Fe    -1.298117    2.248405   10.000000    ( 0.0000,  0.0000,  2.7500)
   5 Fe     0.000000    2.997873   12.119817    ( 0.0000,  0.0000,  2.6728)
   6 Fe    -1.305014    3.752972   14.268643    ( 0.0000,  0.0000,  2.6756)
   7 Fe    -1.317971    2.387747   16.372239    ( 0.0000,  0.0000,  2.7532)
   8 Fe    -2.596234    4.496810   10.000000    ( 0.0000,  0.0000,  2.7500)
   9 Fe    -1.298117    5.246278   12.119817    ( 0.0000,  0.0000,  2.6728)
  10 Fe    -2.594680    5.996513   14.263401    ( 0.0000,  0.0000,  2.6756)
  11 Fe    -2.590327    4.686785   16.495035    ( 0.0000,  0.0000,  2.7532)
  12 Fe     2.596234    0.000000   10.000000    ( 0.0000,  0.0000,  2.7500)
  13 Fe     3.894352    0.749468   12.119817    ( 0.0000,  0.0000,  2.6728)
  14 Fe     2.589458    1.502738   14.282422    ( 0.0000,  0.0000,  2.6756)
  15 Fe     2.683109    0.079130   16.389672    ( 0.0000,  0.0000,  2.7532)
  16 Fe     1.298117    2.248405   10.000000    ( 0.0000,  0.0000,  2.7500)
  17 Fe     2.596234    2.997873   12.119817    ( 0.0000,  0.0000,  2.6728)
  18 Fe     1.299306    3.738277   14.275043    ( 0.0000,  0.0000,  2.6756)
  19 Fe     1.312046    2.385733   16.544288    ( 0.0000,  0.0000,  2.7532)
  20 Fe     0.000000    4.496810   10.000000    ( 0.0000,  0.0000,  2.7500)
  21 Fe     1.298117    5.246278   12.119817    ( 0.0000,  0.0000,  2.6728)
  22 Fe     0.000819    5.999395   14.247031    ( 0.0000,  0.0000,  2.6756)
  23 Fe     0.033287    4.599832   16.355148    ( 0.0000,  0.0000,  2.7532)
  24 Fe     5.192469    0.000000   10.000000    ( 0.0000,  0.0000,  2.7500)
  25 Fe     6.490586    0.749468   12.119817    ( 0.0000,  0.0000,  2.6728)
  26 Fe     5.194617    1.498897   14.248974    ( 0.0000,  0.0000,  2.6756)
  27 Fe     5.191657    0.120523   16.399618    ( 0.0000,  0.0000,  2.7532)
  28 Fe     3.894352    2.248405   10.000000    ( 0.0000,  0.0000,  2.7500)
  29 Fe     5.192469    2.997873   12.119817    ( 0.0000,  0.0000,  2.6728)
  30 Fe     3.900064    3.753544   14.268100    ( 0.0000,  0.0000,  2.6756)
  31 Fe     3.935114    2.377810   16.354445    ( 0.0000,  0.0000,  2.7532)
  32 Fe     2.596234    4.496810   10.000000    ( 0.0000,  0.0000,  2.7500)
  33 Fe     3.894352    5.246278   12.119817    ( 0.0000,  0.0000,  2.6728)
  34 Fe     2.592188    5.996455   14.245344    ( 0.0000,  0.0000,  2.6756)
  35 Fe     2.580230    4.605376   16.375783    ( 0.0000,  0.0000,  2.7532)
  36 H      1.122550   -0.414398   19.841066    ( 0.0000,  0.0000,  0.0000)
  37 O      1.152644   -1.153215   19.208833    ( 0.0000,  0.0000,  0.0000)
  38 C      1.230051   -0.646853   17.931940    ( 0.0000,  0.0000,  0.0000)
  39 C      1.286958    0.759954   17.746348    ( 0.0000,  0.0000,  0.0000)
  40 O      1.262254    1.782509   18.536967    ( 0.0000,  0.0000,  0.0000)

Unit cell:
           periodic     x           y           z      points  spacing
  1. axis:    yes    7.788703    0.000000    0.000000    36     0.1874
  2. axis:    yes   -3.894352    6.745215    0.000000    36     0.1874
  3. axis:    no     0.000000    0.000000   26.359450   148     0.1781

  Lengths:   7.788703   7.788703  26.359450
  Angles:   90.000000  90.000000 120.000000

Effective grid spacing dv^(1/3) = 0.1933

     iter     time        total  log10-change:  magmom
                         energy  eigst   dens
iter:   1 03:27:00 -2590.887778  -3.62           +95.8413
iter:   2 03:27:40 -2591.410182  -2.97  -2.67    +95.7884
iter:   3 03:28:20 -2590.858584  -3.40  -1.97    +95.8417
iter:   4 03:29:00 -2590.857704  -4.33  -3.24    +95.8285
iter:   5 03:29:40 -2590.857907c -5.00  -3.78    +95.8396
iter:   6 03:30:20 -2590.857928c -5.36  -3.80    +95.8461
iter:   7 03:31:00 -2590.857893c -5.63  -3.95    +95.8433
iter:   8 03:31:40 -2590.857850c -6.05  -4.16c   +95.8426
iter:   9 03:32:20 -2590.858079c -6.13  -4.18c   +95.8404
iter:  10 03:33:00 -2590.857869c -6.20  -3.94    +95.8398
iter:  11 03:33:40 -2590.857928c -6.45  -4.36c   +95.8381
iter:  12 03:34:21 -2590.857916c -6.60  -4.45c   +95.8378
iter:  13 03:35:01 -2590.857941c -6.95  -4.21c   +95.8377
iter:  14 03:35:41 -2590.857951c -7.19  -4.43c   +95.8380
iter:  15 03:36:21 -2590.857881c -7.01  -4.45c   +95.8373
iter:  16 03:37:01 -2590.857921c -7.62c -4.46c   +95.8377

Converged after 16 iterations.

Dipole moment: (-12.676689, -12.636017, -0.038136) |e|*Ang

Total magnetic moment: (0.000000, 0.000000, 95.837746)
Local magnetic moments:
   0 Fe ( 0.000000,  0.000000,  2.827946)
   1 Fe ( 0.000000,  0.000000,  2.768920)
   2 Fe ( 0.000000,  0.000000,  2.726036)
   3 Fe ( 0.000000,  0.000000,  2.304814)
   4 Fe ( 0.000000,  0.000000,  2.826128)
   5 Fe ( 0.000000,  0.000000,  2.753329)
   6 Fe ( 0.000000,  0.000000,  2.724877)
   7 Fe ( 0.000000,  0.000000,  2.871022)
   8 Fe ( 0.000000,  0.000000,  2.829747)
   9 Fe ( 0.000000,  0.000000,  2.741635)
  10 Fe ( 0.000000,  0.000000,  2.780769)
  11 Fe ( 0.000000,  0.000000,  2.509732)
  12 Fe ( 0.000000,  0.000000,  2.827132)
  13 Fe ( 0.000000,  0.000000,  2.741791)
  14 Fe ( 0.000000,  0.000000,  2.730742)
  15 Fe ( 0.000000,  0.000000,  2.361533)
  16 Fe ( 0.000000,  0.000000,  2.833104)
  17 Fe ( 0.000000,  0.000000,  2.751811)
  18 Fe ( 0.000000,  0.000000,  2.713935)
  19 Fe ( 0.000000,  0.000000,  2.596111)
  20 Fe ( 0.000000,  0.000000,  2.830961)
  21 Fe ( 0.000000,  0.000000,  2.753973)
  22 Fe ( 0.000000,  0.000000,  2.732259)
  23 Fe ( 0.000000,  0.000000,  2.852497)
  24 Fe ( 0.000000,  0.000000,  2.824386)
  25 Fe ( 0.000000,  0.000000,  2.739142)
  26 Fe ( 0.000000,  0.000000,  2.755276)
  27 Fe ( 0.000000,  0.000000,  2.838910)
  28 Fe ( 0.000000,  0.000000,  2.826549)
  29 Fe ( 0.000000,  0.000000,  2.748155)
  30 Fe ( 0.000000,  0.000000,  2.726733)
  31 Fe ( 0.000000,  0.000000,  2.859176)
  32 Fe ( 0.000000,  0.000000,  2.829987)
  33 Fe ( 0.000000,  0.000000,  2.739248)
  34 Fe ( 0.000000,  0.000000,  2.734132)
  35 Fe ( 0.000000,  0.000000,  2.864264)
  36 H  ( 0.000000,  0.000000,  0.001047)
  37 O  ( 0.000000,  0.000000, -0.016220)
  38 C  ( 0.000000,  0.000000, -0.036756)
  39 C  ( 0.000000,  0.000000, -0.053070)
  40 O  ( 0.000000,  0.000000, -0.000247)

Energy contributions relative to reference atoms: (reference = -1252449.816593)

Kinetic:       +853.602494
Potential:     -752.181447
External:        +0.000000
XC:            -2694.921929
Entropy (-ST):   -1.631853
Local:           +3.458888
--------------------------
Free energy:   -2591.673848
Extrapolated:  -2590.857921

Spin contamination: 2.823188 electrons
Showing only first 2 kpts
                      Up                     Down
 Kpt  Band  Eigenvalues  Occupancy  Eigenvalues  Occupancy
  0   152     -6.47459    1.00000     -3.64822    0.00000
  0   153     -6.45168    1.00000     -3.64328    0.00000
  0   154     -6.43269    1.00000     -3.60723    0.00000
  0   155     -6.41270    1.00000     -3.59495    0.00000

  1   152     -6.38869    1.00000     -3.56775    0.00000
  1   153     -6.38327    1.00000     -3.54992    0.00000
  1   154     -6.35377    1.00000     -3.54051    0.00000
  1   155     -6.33969    1.00000     -3.51261    0.00000


Fermi level: -4.92470

No gap

Forces in eV/Ang:
  0 Fe   -0.00343    0.00157   -0.16225
  1 Fe    0.00494    0.00642    0.11259
  2 Fe    0.01753   -0.01903   -0.00453
  3 Fe    0.00622   -0.00307   -0.00978
  4 Fe    0.00485   -0.00867   -0.14970
  5 Fe    0.01665   -0.02982    0.10529
  6 Fe   -0.02010    0.00734    0.00760
  7 Fe    0.00678   -0.00463   -0.00905
  8 Fe   -0.00284    0.00833   -0.15868
  9 Fe   -0.01471   -0.05765    0.03939
 10 Fe   -0.01847    0.02914   -0.00739
 11 Fe    0.00648   -0.00324   -0.01977
 12 Fe   -0.00216    0.00175   -0.16054
 13 Fe   -0.04373   -0.00737    0.04017
 14 Fe   -0.02448   -0.00714   -0.01399
 15 Fe   -0.00486    0.00789    0.00959
 16 Fe   -0.00271   -0.00658   -0.16927
 17 Fe   -0.02336   -0.04291    0.11672
 18 Fe   -0.00008   -0.02518    0.01426
 19 Fe   -0.01877   -0.00247    0.01665
 20 Fe   -0.00298   -0.00238   -0.16624
 21 Fe   -0.00535   -0.07013    0.01250
 22 Fe   -0.01335    0.00511   -0.00591
 23 Fe    0.01660    0.00382    0.00417
 24 Fe   -0.00313   -0.00108   -0.15853
 25 Fe    0.03787   -0.01403    0.03117
 26 Fe   -0.00184   -0.00016    0.00853
 27 Fe    0.00920   -0.00779    0.04273
 28 Fe   -0.00877   -0.00940   -0.15075
 29 Fe   -0.00105   -0.00924    0.06407
 30 Fe    0.01442    0.01350   -0.00232
 31 Fe   -0.01770   -0.00449   -0.01049
 32 Fe    0.00163   -0.00123   -0.16792
 33 Fe    0.01524   -0.05362    0.03784
 34 Fe    0.03361    0.01338   -0.00655
 35 Fe    0.00261    0.01259   -0.00740
 36 H     0.00855   -0.02071    0.03528
 37 O     0.02104   -0.00746   -0.01789
 38 C     0.01196   -0.00180   -0.00612
 39 C     0.00476   -0.02516    0.02400
 40 O    -0.00240   -0.00911    0.01834

BFGS:   66 03:37:26    -2590.857921        0.0444
Timing:                                      incl.     excl.
-------------------------------------------------------------------
Density initialized from wave functions:    57.947    57.944   0.1% |
 Symmetrize density:                         0.002     0.002   0.0% |
Forces:                                   1486.973  1486.973   1.6% ||
Hamiltonian:                               215.979     0.066   0.0% |
 Atomic:                                    15.121     0.048   0.0% |
  XC Correction:                            15.074    15.074   0.0% |
 Calculate atomic Hamiltonians:              2.136     2.136   0.0% |
 Communicate:                                1.332     1.332   0.0% |
 Hartree integrate/restrict:                 0.986     0.986   0.0% |
 Initialize Hamiltonian:                     0.002     0.002   0.0% |
 Poisson:                                    9.761     0.377   0.0% |
  Communicate from 1D:                       0.734     0.734   0.0% |
  Communicate from 2D:                       1.463     1.463   0.0% |
  Communicate to 1D:                         0.475     0.475   0.0% |
  Communicate to 2D:                         1.924     1.924   0.0% |
  FFT 1D:                                    2.581     2.581   0.0% |
  FFT 2D:                                    2.207     2.207   0.0% |
 XC 3D grid:                               186.278    70.454   0.1% |
  VdW-DF integral:                         115.824     6.956   0.0% |
   Convolution:                             11.079    11.079   0.0% |
   FFT:                                      7.715     7.715   0.0% |
   gather:                                  35.245    35.245   0.0% |
   hmm1:                                     2.310     2.310   0.0% |
   hmm2:                                     4.910     4.910   0.0% |
   iFFT:                                     7.222     7.222   0.0% |
   potential:                               36.278     0.900   0.0% |
    collect:                                 2.530     2.530   0.0% |
    p1:                                     22.032    22.032   0.0% |
    p2:                                      7.537     7.537   0.0% |
    sum:                                     3.279     3.279   0.0% |
   splines:                                  4.107     4.107   0.0% |
 vbar:                                       0.297     0.297   0.0% |
LCAO initialization:                        16.835     1.725   0.0% |
 LCAO eigensolver:                           6.550     0.003   0.0% |
  Calculate projections:                     0.000     0.000   0.0% |
  DenseAtomicCorrection:                     0.000     0.000   0.0% |
  Distribute overlap matrix:                 6.123     6.123   0.0% |
  Orbital Layouts:                           0.412     0.412   0.0% |
  Potential matrix:                          0.002     0.002   0.0% |
  Sum over cells:                            0.010     0.010   0.0% |
 LCAO to grid:                               7.689     7.689   0.0% |
 Set positions (LCAO WFS):                   0.871     0.662   0.0% |
  Basic WFS set positions:                   0.002     0.002   0.0% |
  Basis functions set positions:             0.000     0.000   0.0% |
  P tci:                                     0.001     0.001   0.0% |
  ST tci:                                    0.138     0.138   0.0% |
  mktci:                                     0.067     0.067   0.0% |
Redistribute:                                0.051     0.051   0.0% |
SCF-cycle:                               87910.783   782.563   0.8% |
 Davidson:                               79823.349 27493.460  29.3% |-----------|
  Apply hamiltonian:                      1933.614  1933.614   2.1% ||
  Subspace diag:                          7079.630     0.610   0.0% |
   calc_h_matrix:                         3701.246  1827.607   2.0% ||
    Apply hamiltonian:                    1873.639  1873.639   2.0% ||
   diagonalize:                            174.287   174.287   0.2% |
   rotate_psi:                            3203.487  3203.487   3.4% ||
  calc. matrices:                        36214.444 12282.920  13.1% |----|
   Apply hamiltonian:                    23931.524 23931.524  25.5% |---------|
  diagonalize:                             926.286   926.286   1.0% |
  rotate_psi:                             6175.913  6175.913   6.6% |--|
 Density:                                  192.961     0.061   0.0% |
  Atomic density matrices:                  19.111    19.111   0.0% |
  Mix:                                      46.258    46.258   0.0% |
  Multipole moments:                         0.900     0.900   0.0% |
  Pseudo density:                          126.630   126.557   0.1% |
   Symmetrize density:                       0.074     0.074   0.0% |
 Hamiltonian:                             6730.453     1.995   0.0% |
  Atomic:                                  478.263     1.514   0.0% |
   XC Correction:                          476.749   476.749   0.5% |
  Calculate atomic Hamiltonians:            67.278    67.278   0.1% |
  Communicate:                              43.820    43.820   0.0% |
  Hartree integrate/restrict:               31.440    31.440   0.0% |
  Poisson:                                 308.551    11.535   0.0% |
   Communicate from 1D:                     23.188    23.188   0.0% |
   Communicate from 2D:                     46.557    46.557   0.0% |
   Communicate to 1D:                       15.083    15.083   0.0% |
   Communicate to 2D:                       60.805    60.805   0.1% |
   FFT 1D:                                  81.515    81.515   0.1% |
   FFT 2D:                                  69.868    69.868   0.1% |
  XC 3D grid:                             5795.737  2233.744   2.4% ||
   VdW-DF integral:                       3561.994   220.869   0.2% |
    Convolution:                           352.609   352.609   0.4% |
    FFT:                                   244.502   244.502   0.3% |
    gather:                               1133.368  1133.368   1.2% |
    hmm1:                                   74.103    74.103   0.1% |
    hmm2:                                  156.270   156.270   0.2% |
    iFFT:                                  229.567   229.567   0.2% |
    potential:                            1150.693    28.716   0.0% |
     collect:                               79.735    79.735   0.1% |
     p1:                                   698.720   698.720   0.7% |
     p2:                                   239.324   239.324   0.3% |
     sum:                                  104.198   104.198   0.1% |
    splines:                                 0.011     0.011   0.0% |
  vbar:                                      3.369     3.369   0.0% |
 Orthonormalize:                           381.458     0.027   0.0% |
  calc_s_matrix:                            25.020    25.020   0.0% |
  inverse-cholesky:                        307.322   307.322   0.3% |
  projections:                               0.006     0.006   0.0% |
  rotate_psi_s:                             49.082    49.082   0.1% |
Set symmetry:                                0.001     0.001   0.0% |
Other:                                    4027.585  4027.585   4.3% |-|
-------------------------------------------------------------------
Total:                                             93716.154 100.0%

Memory usage: 1.38 GiB
Date: Sat Sep 30 03:37:26 2023
