
  ___ ___ ___ _ _ _  
 |   |   |_  | | | | 
 | | | | | . | | | | 
 |__ |  _|___|_____|  22.8.0
 |___|_|             

User:   s204775@a121.nifl.fysik.dtu.dk
Date:   Thu Oct  5 00:28:50 2023
Arch:   x86_64
Pid:    126500
CWD:    /home/cat/s204775/projects/Bachelor_project/OCCOH_missing_features
Python: 3.10.4
gpaw:   /home/modules/software/GPAW/22.8.0-intel-2022a/lib/python3.10/site-packages/gpaw
_gpaw:  /home/modules/software/GPAW/22.8.0-intel-2022a/lib/python3.10/site-packages/
        _gpaw.cpython-310-x86_64-linux-gnu.so
ase:    /home/modules/software/ASE/3.22.1-intel-2022a/lib/python3.10/site-packages/ase (version 3.22.1)
numpy:  /home/modules/software/SciPy-bundle/2022.05-intel-2022a/lib/python3.10/site-packages/numpy (version 1.22.3)
scipy:  /home/modules/software/SciPy-bundle/2022.05-intel-2022a/lib/python3.10/site-packages/scipy (version 1.8.1)
libxc:  5.2.3
units:  Angstrom and eV
cores: 40
OpenMP: False
OMP_NUM_THREADS: 1

Input parameters:
  basis: dzp
  h: 0.18
  kpts: {size: (4, 4, 1)}
  xc: BEEF-vdW

System changes: positions, numbers, cell, pbc, initial_charges, initial_magmoms 

Initialize ...

species:
  Hg:
    name: Mercury
    id: 0b51cb891d82143d22b15bac899cb056
    Z: 80.0
    valence: 18
    core: 62
    charge: 0.0
    file: /home/modules/software/GPAW-setups/0.9.20000/Hg.PBE.gz
    compensation charges: {type: gauss,
                           rc: 0.41,
                           lmax: 2}
    cutoffs: {filter: 2.17,
              core: 2.06}
    valence states:
      #              energy  rcut
      - 6s(2.00)    -6.783   1.307
      - 5p(6.00)   -66.572   1.291
      - 6p(0.00)    -1.056   1.291
      - 5d(10.00)    -9.891   1.302
      -  s          20.429   1.307
      -  d          17.320   1.302
  
    # LCAO basis set for Hg:
    #   Name: dzp
    #   File: /home/modules/software/GPAW-setups/0.9.20000/Hg.dzp.basis.gz
    #   Number of radial functions: 9
    #   Number of spherical harmonics: 27
    #     l=0, rc=7.9688 Bohr: 6s-sz confined orbital
    #     l=1, rc=3.3594 Bohr: 5p-sz confined orbital
    #     l=1, rc=12.7031 Bohr: 6p-sz confined orbital
    #     l=2, rc=5.3594 Bohr: 5d-sz confined orbital
    #     l=0, rc=4.6406 Bohr: 6s-dz split-valence wave
    #     l=1, rc=2.2656 Bohr: 5p-dz split-valence wave
    #     l=1, rc=7.7500 Bohr: 6p-dz split-valence wave
    #     l=2, rc=3.2656 Bohr: 5d-dz split-valence wave
    #     l=1, rc=7.9688 Bohr: p-type Gaussian polarization
    #   Number of RI-basis functions 0

  H:
    name: Hydrogen
    id: d65de229564ff8ea4db303e23b6d1ecf
    Z: 1.0
    valence: 1
    core: 0
    charge: 0.0
    file: /home/modules/software/GPAW-setups/0.9.20000/H.PBE.gz
    compensation charges: {type: gauss,
                           rc: 0.15,
                           lmax: 2}
    cutoffs: {filter: 0.85,
              core: 0.53}
    valence states:
      #              energy  rcut
      - 1s(1.00)    -6.494   0.476
      -  s          20.717   0.476
      -  p           0.000   0.476
  
    # LCAO basis set for H:
    #   Name: dzp
    #   File: /home/modules/software/GPAW-setups/0.9.20000/H.dzp.basis.gz
    #   Number of radial functions: 3
    #   Number of spherical harmonics: 5
    #     l=0, rc=6.4219 Bohr: 1s-sz confined orbital
    #     l=0, rc=3.6094 Bohr: 1s-dz split-valence wave
    #     l=1, rc=6.4219 Bohr: p-type Gaussian polarization
    #   Number of RI-basis functions 0

  O:
    name: Oxygen
    id: 32ecd46bf208036f09c70b0ec9a88b78
    Z: 8.0
    valence: 6
    core: 2
    charge: 0.0
    file: /home/modules/software/GPAW-setups/0.9.20000/O.PBE.gz
    compensation charges: {type: gauss,
                           rc: 0.21,
                           lmax: 2}
    cutoffs: {filter: 1.17,
              core: 0.83}
    valence states:
      #              energy  rcut
      - 2s(2.00)   -23.961   0.688
      - 2p(4.00)    -9.029   0.598
      -  s           3.251   0.688
      -  p          18.182   0.598
      -  d           0.000   0.619
  
    # LCAO basis set for O:
    #   Name: dzp
    #   File: /home/modules/software/GPAW-setups/0.9.20000/O.dzp.basis.gz
    #   Number of radial functions: 5
    #   Number of spherical harmonics: 13
    #     l=0, rc=4.3438 Bohr: 2s-sz confined orbital
    #     l=1, rc=5.3906 Bohr: 2p-sz confined orbital
    #     l=0, rc=2.2969 Bohr: 2s-dz split-valence wave
    #     l=1, rc=2.8906 Bohr: 2p-dz split-valence wave
    #     l=2, rc=5.3906 Bohr: d-type Gaussian polarization
    #   Number of RI-basis functions 0

  C:
    name: Carbon
    id: 4aa54d4b901d75f77cc0ea3eec22967b
    Z: 6.0
    valence: 4
    core: 2
    charge: 0.0
    file: /home/modules/software/GPAW-setups/0.9.20000/C.PBE.gz
    compensation charges: {type: gauss,
                           rc: 0.20,
                           lmax: 2}
    cutoffs: {filter: 1.14,
              core: 1.14}
    valence states:
      #              energy  rcut
      - 2s(2.00)   -13.751   0.635
      - 2p(2.00)    -5.284   0.635
      -  s          13.461   0.635
      -  p          21.927   0.635
      -  d           0.000   0.635
  
    # LCAO basis set for C:
    #   Name: dzp
    #   File: /home/modules/software/GPAW-setups/0.9.20000/C.dzp.basis.gz
    #   Number of radial functions: 5
    #   Number of spherical harmonics: 13
    #     l=0, rc=5.5469 Bohr: 2s-sz confined orbital
    #     l=1, rc=6.6719 Bohr: 2p-sz confined orbital
    #     l=0, rc=3.0312 Bohr: 2s-dz split-valence wave
    #     l=1, rc=3.7500 Bohr: 2p-dz split-valence wave
    #     l=2, rc=6.6719 Bohr: d-type Gaussian polarization
    #   Number of RI-basis functions 0

Reference energy: -19199757.485185  # eV

Spin-paired calculation

Convergence criteria:
 Maximum [total energy] change in last 3 cyles: 0.0005 eV / electron
 Maximum integral of absolute [dens]ity change: 0.0001 electrons / valence electron
 Maximum integral of absolute [eigenst]ate change: 4e-08 eV^2 / valence electron
 Maximum number of scf [iter]ations: 333
 (Square brackets indicate name in SCF output, whereas a 'c' in
 the SCF output indicates the quantity has converged.)

Symmetries present (total): 1

  ( 1  0  0)
  ( 0  1  0)
  ( 0  0  1)

16 k-points: 4 x 4 x 1 Monkhorst-Pack grid
8 k-points in the irreducible part of the Brillouin zone
       k-points in crystal coordinates                weights
   0:     0.12500000   -0.37500000    0.00000000          2/16
   1:     0.12500000   -0.12500000    0.00000000          2/16
   2:     0.12500000    0.12500000    0.00000000          2/16
   3:     0.12500000    0.37500000    0.00000000          2/16
   4:     0.37500000   -0.37500000    0.00000000          2/16
   5:     0.37500000   -0.12500000    0.00000000          2/16
   6:     0.37500000    0.12500000    0.00000000          2/16
   7:     0.37500000    0.37500000    0.00000000          2/16

Wave functions: Uniform real-space grid
  Kinetic energy operator: 8*3+1=25 point O(h^6) finite-difference Laplacian
  ScaLapack parameters: grid=1x1, blocksize=None
  Wavefunction extrapolation:
    Improved wavefunction reuse through dual PAW basis 

Occupation numbers: Fermi-Dirac:
  width: 0.1000  # eV
 

Eigensolver
   Davidson(niter=2) 

Densities:
  Coarse grid: 52*52*160 grid
  Fine grid: 104*104*320 grid
  Total Charge: 0.000000 

Density mixing:
  Method: separate
  Backend: pulay
  Linear mixing parameter: 0.05
  old densities: 5
  Damping of long wavelength oscillations: 50 

Hamiltonian:
  XC and Coulomb potentials evaluated on a 104*104*320 grid
  Using the BEEF-vdW Exchange-Correlation functional
  Interpolation: tri-quintic (5. degree polynomial)
  Poisson solver: FastPoissonSolver using
    Stencil: 8*3+1=25 point O(h^6) finite-difference Laplacian
    FFT axes: [0, 1]
    FST axes: [2]
 

XC parameters: BEEF-vdW with 2 nearest neighbor stencil

Memory estimate:
  Process memory now: 232.20 MiB
  Calculator: 1159.41 MiB
    Density: 68.16 MiB
      Arrays: 16.88 MiB
      Localized functions: 44.89 MiB
      Mixer: 6.40 MiB
    Hamiltonian: 13.88 MiB
      Arrays: 11.04 MiB
      XC: 0.00 MiB
      Poisson: 0.00 MiB
      vbar: 2.84 MiB
    Wavefunctions: 1077.38 MiB
      Arrays psit_nG: 519.30 MiB
      Eigensolver: 550.86 MiB
      Projections: 0.87 MiB
      Projectors: 6.35 MiB

Total number of cores used: 40
Parallelization over k-points: 8
Domain decomposition: 1 x 1 x 5

Number of atoms: 41
Number of atomic orbitals: 1029
Number of bands in calculation: 406
Number of valence electrons: 669
Bands to converge: occupied

... initialized

Initializing position-dependent things.

Density initialized from atomic densities
Creating initial wave functions:
  406 bands from LCAO basis set

                                                              
                                                              
                                                              
                                                              
                                                              
                                                              
                                      O                       
                                    H                         
                                   HOC      Hg       Hg       
                                    C                         
                             Hg       Hg       Hg             
                      Hg                                      
                               Hg       Hg                    
                         Hg       Hg       Hg                 
                                                              
                   Hg      Hg       Hg                        
            Hg       Hg       Hg       Hg       Hg            
                                                              
                        Hg       Hg      Hg                   
                 Hg       Hg       Hg                         
                                                              
                    Hg       Hg       Hg                      
             Hg       Hg       Hg                             
                                                              
       Hg       Hg       Hg                                   
                                                              
                                                              
                                                              
                                                              

Positions:
   0 Hg     0.000000    0.000000   10.000000    ( 0.0000,  0.0000,  0.0000)
   1 Hg     3.603292    2.080362   12.942076    ( 0.0000,  0.0000,  0.0000)
   2 Hg     1.809013    1.044434   15.886304    ( 0.0000,  0.0000,  0.0000)
   3 Hg     5.404939    3.120543   18.930235    ( 0.0000,  0.0000,  0.0000)
   4 Hg     1.801646    3.120543   10.000000    ( 0.0000,  0.0000,  0.0000)
   5 Hg     5.404939    5.200905   12.942076    ( 0.0000,  0.0000,  0.0000)
   6 Hg     3.616813    4.152917   15.866715    ( 0.0000,  0.0000,  0.0000)
   7 Hg     7.191366    6.267569   18.938926    ( 0.0000,  0.0000,  0.0000)
   8 Hg     3.603292    6.241086   10.000000    ( 0.0000,  0.0000,  0.0000)
   9 Hg     7.206585    8.321447   12.942076    ( 0.0000,  0.0000,  0.0000)
  10 Hg     5.404939    7.272760   15.886304    ( 0.0000,  0.0000,  0.0000)
  11 Hg     8.977686    9.361566   18.938926    ( 0.0000,  0.0000,  0.0000)
  12 Hg     3.603292    0.000000   10.000000    ( 0.0000,  0.0000,  0.0000)
  13 Hg     7.206585    2.080362   12.942076    ( 0.0000,  0.0000,  0.0000)
  14 Hg     5.404939    1.055793   15.866715    ( 0.0000,  0.0000,  0.0000)
  15 Hg     9.023557    3.094121   18.938926    ( 0.0000,  0.0000,  0.0000)
  16 Hg     5.404939    3.120543   10.000000    ( 0.0000,  0.0000,  0.0000)
  17 Hg     9.008231    5.200905   12.942076    ( 0.0000,  0.0000,  0.0000)
  18 Hg     7.193064    4.152917   15.866715    ( 0.0000,  0.0000,  0.0000)
  19 Hg    10.809877    6.241086   18.929682    ( 0.0000,  0.0000,  0.0000)
  20 Hg     7.206585    6.241086   10.000000    ( 0.0000,  0.0000,  0.0000)
  21 Hg    10.809877    8.321447   12.942076    ( 0.0000,  0.0000,  0.0000)
  22 Hg     8.994409    7.289247   15.879143    ( 0.0000,  0.0000,  0.0000)
  23 Hg    12.642068    9.361566   18.938926    ( 0.0000,  0.0000,  0.0000)
  24 Hg     7.206585    0.000000   10.000000    ( 0.0000,  0.0000,  0.0000)
  25 Hg    10.809877    2.080362   12.942076    ( 0.0000,  0.0000,  0.0000)
  26 Hg     9.000864    1.044434   15.886304    ( 0.0000,  0.0000,  0.0000)
  27 Hg    12.596197    3.094121   18.938926    ( 0.0000,  0.0000,  0.0000)
  28 Hg     9.008231    3.120543   10.000000    ( 0.0000,  0.0000,  0.0000)
  29 Hg    12.611524    5.200905   12.942076    ( 0.0000,  0.0000,  0.0000)
  30 Hg    10.809877    4.144763   15.879143    ( 0.0000,  0.0000,  0.0000)
  31 Hg    14.428388    6.267569   18.938926    ( 0.0000,  0.0000,  0.0000)
  32 Hg    10.809877    6.241086   10.000000    ( 0.0000,  0.0000,  0.0000)
  33 Hg    14.413170    8.321447   12.942076    ( 0.0000,  0.0000,  0.0000)
  34 Hg    12.625346    7.289247   15.879143    ( 0.0000,  0.0000,  0.0000)
  35 Hg    16.214816    9.361628   18.940525    ( 0.0000,  0.0000,  0.0000)
  36 H     10.874545    3.678505   22.266927    ( 0.0000,  0.0000,  0.0000)
  37 O     10.852028    3.312869   21.474854    ( 0.0000,  0.0000,  0.0000)
  38 C     10.855781    4.179324   20.475761    ( 0.0000,  0.0000,  0.0000)
  39 C     10.782467    5.675292   20.717868    ( 0.0000,  0.0000,  0.0000)
  40 O     10.835020    6.303840   22.001248    ( 0.0000,  0.0000,  0.0000)

Unit cell:
           periodic     x           y           z      points  spacing
  1. axis:    yes   10.809877    0.000000    0.000000    52     0.1800
  2. axis:    yes    5.404939    9.361628    0.000000    52     0.1800
  3. axis:    no     0.000000    0.000000   28.826228   160     0.1802

  Lengths:  10.809877  10.809877  28.826228
  Angles:   90.000000  90.000000  60.000000

Effective grid spacing dv^(1/3) = 0.1889

     iter     time        total  log10-change:
                         energy  eigst   dens
iter:   1 00:30:29 -12287.733620
iter:   2 00:31:22 -12288.124255  -0.46  -1.49
iter:   3 00:32:16 -12287.436784  -0.93  -1.51
iter:   4 00:33:09 -12287.848113  -1.53  -1.61
iter:   5 00:34:03 -12289.228778  -1.17  -1.58
iter:   6 00:34:56 -12290.426171  -1.00  -1.82
iter:   7 00:35:50 -12290.244356  -1.54  -2.09
iter:   8 00:36:43 -12290.764658  -1.50  -2.13
iter:   9 00:37:37 -12290.589349  -1.59  -2.21
iter:  10 00:38:30 -12290.396179  -2.53  -2.37
iter:  11 00:39:24 -12290.427930c -2.43  -2.49
iter:  12 00:40:17 -12290.413061c -2.56  -2.58
iter:  13 00:41:11 -12290.416312c -2.80  -2.74
iter:  14 00:42:04 -12290.401246c -3.11  -2.84
iter:  15 00:42:58 -12290.393132c -3.48  -3.01
iter:  16 00:43:51 -12290.389022c -4.04  -3.09
iter:  17 00:44:45 -12290.387524c -4.43  -3.21
iter:  18 00:45:38 -12290.386076c -4.17  -3.42
iter:  19 00:46:32 -12290.385901c -4.80  -3.73
iter:  20 00:47:25 -12290.385906c -5.04  -3.80
iter:  21 00:48:19 -12290.386012c -5.28  -4.02c
iter:  22 00:49:12 -12290.385992c -5.72  -4.09c
iter:  23 00:50:06 -12290.385926c -5.84  -4.24c
iter:  24 00:51:00 -12290.385875c -6.01  -4.36c
iter:  25 00:51:53 -12290.385885c -6.49  -4.45c
iter:  26 00:52:47 -12290.385880c -6.76  -4.53c
iter:  27 00:53:40 -12290.385885c -7.27  -4.67c
iter:  28 00:54:34 -12290.385898c -7.61c -4.71c

Converged after 28 iterations.

Dipole moment: (-20.173518, -11.954836, -0.535317) |e|*Ang

Energy contributions relative to reference atoms: (reference = -19199757.485185)

Kinetic:       +2071.806852
Potential:     -1853.905265
External:        +0.000000
XC:            -12422.316511
Entropy (-ST):   -0.266212
Local:          -85.837867
--------------------------
Free energy:   -12290.519004
Extrapolated:  -12290.385898

Showing only first 2 kpts
 Kpt  Band  Eigenvalues  Occupancy
  0   332     -5.49991    1.99762
  0   333     -5.05021    1.80679
  0   334     -4.87958    1.25856
  0   335     -4.54138    0.10907

  1   332     -5.49570    1.99752
  1   333     -4.96358    1.59450
  1   334     -4.84005    1.06684
  1   335     -4.56854    0.14071


Fermi level: -4.82666

No gap

Forces in eV/Ang:
  0 Hg    0.00100    0.00278   -0.08263
  1 Hg   -0.02164   -0.01257   -0.00183
  2 Hg   -0.01179    0.01991    0.07259
  3 Hg   -0.00087    0.00741    0.07176
  4 Hg   -0.01171   -0.02545   -0.08502
  5 Hg    0.00055    0.01617    0.00738
  6 Hg   -0.01411   -0.00384    0.03482
  7 Hg   -0.02247   -0.02550   -0.00118
  8 Hg    0.01426    0.01977   -0.08237
  9 Hg    0.00212   -0.00027    0.01627
 10 Hg    0.00158   -0.00536    0.04628
 11 Hg    0.00780    0.01446    0.01284
 12 Hg   -0.02729    0.00375   -0.08239
 13 Hg    0.02416   -0.01418   -0.00107
 14 Hg    0.00032    0.01753    0.03353
 15 Hg   -0.23283   -0.04614   -0.24661
 16 Hg   -0.00087   -0.00049   -0.08250
 17 Hg    0.00987   -0.00297    0.03835
 18 Hg    0.01724   -0.00425    0.03273
 19 Hg    0.06257    2.74345   -5.50340
 20 Hg   -0.01466    0.02095   -0.08149
 21 Hg    0.00101   -0.00814    0.03975
 22 Hg    0.05279   -0.02821    0.12258
 23 Hg   -0.01142    0.00933    0.01612
 24 Hg    0.02719    0.00194   -0.08284
 25 Hg   -0.00051    0.01195    0.00827
 26 Hg    0.01631    0.02304    0.06951
 27 Hg    0.31117   -0.10383   -0.32565
 28 Hg    0.01353   -0.02540   -0.08482
 29 Hg   -0.01038   -0.00268    0.04026
 30 Hg    0.00058    0.03030    0.12900
 31 Hg    0.01861   -0.02462    0.00134
 32 Hg    0.00068   -0.00236   -0.06911
 33 Hg   -0.00210    0.00031    0.01633
 34 Hg   -0.05458   -0.02425    0.12259
 35 Hg    0.00384    0.06279   -0.00333
 36 H     0.13341    3.01470    6.23119
 37 O    -0.10881   -3.19516   -4.80444
 38 C    -0.26610    2.29821   -0.42517
 39 C     0.32774   -2.14848   10.75026
 40 O    -0.24280   -2.58802   -6.18187

      Step     Time          Energy         fmax
BFGS:    0 00:54:49   -12290.385898        6.0260
System changes: positions 

Initializing position-dependent things.

Density initialized from wave functions
                                                              
                                                              
                                                              
                                                              
                                                              
                                                              
                                      O                       
                                    H                         
                                   HOC      Hg       Hg       
                                    C                         
                             Hg       Hg       Hg             
                      Hg                                      
                               Hg       Hg                    
                         Hg       Hg       Hg                 
                                                              
                   Hg      Hg       Hg                        
            Hg                Hg       Hg       Hg            
                     Hg                                       
                        Hg       Hg      Hg                   
                 Hg       Hg       Hg                         
                                                              
                    Hg       Hg       Hg                      
             Hg       Hg       Hg                             
                                                              
       Hg       Hg       Hg                                   
                                                              
                                                              
                                                              
                                                              

Positions:
   0 Hg     0.000000    0.000000   10.000000    ( 0.0000,  0.0000,  0.0000)
   1 Hg     3.603292    2.080362   12.942076    ( 0.0000,  0.0000,  0.0000)
   2 Hg     1.809013    1.044434   15.886304    ( 0.0000,  0.0000,  0.0000)
   3 Hg     5.404939    3.120543   18.930235    ( 0.0000,  0.0000,  0.0000)
   4 Hg     1.801646    3.120543   10.000000    ( 0.0000,  0.0000,  0.0000)
   5 Hg     5.404939    5.200905   12.942076    ( 0.0000,  0.0000,  0.0000)
   6 Hg     3.616813    4.152917   15.866715    ( 0.0000,  0.0000,  0.0000)
   7 Hg     7.191366    6.267569   18.938926    ( 0.0000,  0.0000,  0.0000)
   8 Hg     3.603292    6.241086   10.000000    ( 0.0000,  0.0000,  0.0000)
   9 Hg     7.206585    8.321447   12.942076    ( 0.0000,  0.0000,  0.0000)
  10 Hg     5.404939    7.272760   15.886304    ( 0.0000,  0.0000,  0.0000)
  11 Hg     8.977686    9.361566   18.938926    ( 0.0000,  0.0000,  0.0000)
  12 Hg     3.603292    0.000000   10.000000    ( 0.0000,  0.0000,  0.0000)
  13 Hg     7.206585    2.080362   12.942076    ( 0.0000,  0.0000,  0.0000)
  14 Hg     5.404939    1.055793   15.866715    ( 0.0000,  0.0000,  0.0000)
  15 Hg     9.023557    3.094121   18.938926    ( 0.0000,  0.0000,  0.0000)
  16 Hg     5.404939    3.120543   10.000000    ( 0.0000,  0.0000,  0.0000)
  17 Hg     9.008231    5.200905   12.942076    ( 0.0000,  0.0000,  0.0000)
  18 Hg     7.193064    4.152917   15.866715    ( 0.0000,  0.0000,  0.0000)
  19 Hg    10.809877    6.241086   18.929682    ( 0.0000,  0.0000,  0.0000)
  20 Hg     7.206585    6.241086   10.000000    ( 0.0000,  0.0000,  0.0000)
  21 Hg    10.809877    8.321447   12.942076    ( 0.0000,  0.0000,  0.0000)
  22 Hg     8.994409    7.289247   15.879143    ( 0.0000,  0.0000,  0.0000)
  23 Hg    12.642068    9.361566   18.938926    ( 0.0000,  0.0000,  0.0000)
  24 Hg     7.206585    0.000000   10.000000    ( 0.0000,  0.0000,  0.0000)
  25 Hg    10.809877    2.080362   12.942076    ( 0.0000,  0.0000,  0.0000)
  26 Hg     9.000864    1.044434   15.886304    ( 0.0000,  0.0000,  0.0000)
  27 Hg    12.596197    3.094121   18.938926    ( 0.0000,  0.0000,  0.0000)
  28 Hg     9.008231    3.120543   10.000000    ( 0.0000,  0.0000,  0.0000)
  29 Hg    12.611524    5.200905   12.942076    ( 0.0000,  0.0000,  0.0000)
  30 Hg    10.809877    4.144763   15.879143    ( 0.0000,  0.0000,  0.0000)
  31 Hg    14.428388    6.267569   18.938926    ( 0.0000,  0.0000,  0.0000)
  32 Hg    10.809877    6.241086   10.000000    ( 0.0000,  0.0000,  0.0000)
  33 Hg    14.413170    8.321447   12.942076    ( 0.0000,  0.0000,  0.0000)
  34 Hg    12.625346    7.289247   15.879143    ( 0.0000,  0.0000,  0.0000)
  35 Hg    16.214816    9.361628   18.940525    ( 0.0000,  0.0000,  0.0000)
  36 H     10.874071    3.682934   22.272242    ( 0.0000,  0.0000,  0.0000)
  37 O     10.853044    3.320734   21.480116    ( 0.0000,  0.0000,  0.0000)
  38 C     10.854194    4.153996   20.475942    ( 0.0000,  0.0000,  0.0000)
  39 C     10.780333    5.636430   20.767823    ( 0.0000,  0.0000,  0.0000)
  40 O     10.836032    6.320466   22.022371    ( 0.0000,  0.0000,  0.0000)

Unit cell:
           periodic     x           y           z      points  spacing
  1. axis:    yes   10.809877    0.000000    0.000000    52     0.1800
  2. axis:    yes    5.404939    9.361628    0.000000    52     0.1800
  3. axis:    no     0.000000    0.000000   28.826228   160     0.1802

  Lengths:  10.809877  10.809877  28.826228
  Angles:   90.000000  90.000000  60.000000

Effective grid spacing dv^(1/3) = 0.1889

     iter     time        total  log10-change:
                         energy  eigst   dens
iter:   1 00:56:28 -12290.742866  -2.12
iter:   2 00:57:22 -12290.718612  -3.01  -2.92
iter:   3 00:58:15 -12290.696793c -3.40  -3.11
iter:   4 00:59:09 -12290.692153c -3.64  -3.40
iter:   5 01:00:02 -12290.691598c -4.25  -3.46
iter:   6 01:00:55 -12290.686580c -4.20  -3.48
iter:   7 01:01:49 -12290.687767c -4.23  -3.71
iter:   8 01:02:42 -12290.687929c -5.00  -3.78
iter:   9 01:03:36 -12290.687536c -5.31  -3.99
iter:  10 01:04:29 -12290.687530c -5.54  -4.09c
iter:  11 01:05:22 -12290.687610c -5.71  -4.26c
iter:  12 01:06:16 -12290.687569c -6.00  -4.33c
iter:  13 01:07:09 -12290.687360c -6.43  -4.40c
iter:  14 01:08:02 -12290.687361c -6.64  -4.65c
iter:  15 01:08:56 -12290.687378c -7.07  -4.83c
iter:  16 01:09:49 -12290.687462c -6.93  -4.86c
iter:  17 01:10:42 -12290.687478c -7.57c -5.07c

Converged after 17 iterations.

Dipole moment: (-20.151974, -11.956137, -0.509316) |e|*Ang

Energy contributions relative to reference atoms: (reference = -19199757.485185)

Kinetic:       +2071.789613
Potential:     -1854.042315
External:        +0.000000
XC:            -12422.396922
Entropy (-ST):   -0.252195
Local:          -85.911756
--------------------------
Free energy:   -12290.813575
Extrapolated:  -12290.687478

Showing only first 2 kpts
 Kpt  Band  Eigenvalues  Occupancy
  0   332     -5.48476    1.99745
  0   333     -5.06019    1.83651
  0   334     -4.86557    1.23205
  0   335     -4.51763    0.09424

  1   332     -5.48082    1.99735
  1   333     -4.97757    1.66199
  1   334     -4.83121    1.06447
  1   335     -4.53893    0.11533


Fermi level: -4.81830

No gap

Forces in eV/Ang:
  0 Hg    0.00098    0.00307   -0.08169
  1 Hg   -0.02159   -0.01202    0.00112
  2 Hg   -0.01349    0.02222    0.07631
  3 Hg   -0.00042    0.00852    0.07358
  4 Hg   -0.01250   -0.02444   -0.08428
  5 Hg    0.00054    0.01618    0.01092
  6 Hg   -0.01416   -0.00630    0.03964
  7 Hg   -0.01708   -0.02611    0.00010
  8 Hg    0.01359    0.01943   -0.08090
  9 Hg    0.00177   -0.00025    0.01866
 10 Hg    0.00199   -0.00450    0.04662
 11 Hg    0.00942    0.01050    0.01681
 12 Hg   -0.02707    0.00323   -0.08073
 13 Hg    0.02408   -0.01370    0.00197
 14 Hg    0.00051    0.02007    0.03444
 15 Hg   -0.25382   -0.05173   -0.27075
 16 Hg   -0.00090   -0.00012   -0.08131
 17 Hg    0.01029   -0.00348    0.03775
 18 Hg    0.01745   -0.00673    0.03763
 19 Hg    0.04007    2.27261   -4.03445
 20 Hg   -0.01397    0.02062   -0.08010
 21 Hg    0.00109   -0.00786    0.03999
 22 Hg    0.04923   -0.02801    0.12050
 23 Hg   -0.01262    0.00568    0.02014
 24 Hg    0.02694    0.00149   -0.08114
 25 Hg   -0.00062    0.01240    0.00815
 26 Hg    0.01767    0.02591    0.07359
 27 Hg    0.34285   -0.11440   -0.35945
 28 Hg    0.01427   -0.02439   -0.08400
 29 Hg   -0.01082   -0.00307    0.03943
 30 Hg    0.00046    0.02452    0.12849
 31 Hg    0.01250   -0.02569    0.00338
 32 Hg    0.00068   -0.00303   -0.06780
 33 Hg   -0.00184    0.00040    0.01867
 34 Hg   -0.05152   -0.02409    0.12082
 35 Hg    0.00373    0.06018   -0.00344
 36 H     0.12938    3.08745    6.29421
 37 O    -0.10921   -4.11540   -4.31576
 38 C    -0.24689    2.93267   -0.41516
 39 C     0.33156   -0.85099    8.83102
 40 O    -0.21826   -3.14793   -6.15372

BFGS:    1 01:10:58   -12290.687478        4.6467
System changes: positions 

Initializing position-dependent things.

Density initialized from wave functions
                                                              
                                                              
                                                              
                                                              
                                                              
                                                              
                                      O                       
                                    H                         
                                   HOC      Hg       Hg       
                                    C                         
                             Hg       Hg       Hg             
                                                              
                      Hg       Hg       Hg                    
                         Hg       Hg       Hg                 
                                                              
                   Hg      Hg       Hg                        
            Hg                Hg       Hg       Hg            
                     Hg                                       
                        Hg       Hg      Hg                   
                 Hg       Hg       Hg                         
                                                              
                    Hg       Hg       Hg                      
             Hg       Hg       Hg                             
                                                              
       Hg       Hg       Hg                                   
                                                              
                                                              
                                                              
                                                              

Positions:
   0 Hg     0.000000    0.000000   10.000000    ( 0.0000,  0.0000,  0.0000)
   1 Hg     3.603292    2.080362   12.942076    ( 0.0000,  0.0000,  0.0000)
   2 Hg     1.809013    1.044434   15.886304    ( 0.0000,  0.0000,  0.0000)
   3 Hg     5.404939    3.120543   18.930235    ( 0.0000,  0.0000,  0.0000)
   4 Hg     1.801646    3.120543   10.000000    ( 0.0000,  0.0000,  0.0000)
   5 Hg     5.404939    5.200905   12.942076    ( 0.0000,  0.0000,  0.0000)
   6 Hg     3.616813    4.152917   15.866715    ( 0.0000,  0.0000,  0.0000)
   7 Hg     7.191366    6.267569   18.938926    ( 0.0000,  0.0000,  0.0000)
   8 Hg     3.603292    6.241086   10.000000    ( 0.0000,  0.0000,  0.0000)
   9 Hg     7.206585    8.321447   12.942076    ( 0.0000,  0.0000,  0.0000)
  10 Hg     5.404939    7.272760   15.886304    ( 0.0000,  0.0000,  0.0000)
  11 Hg     8.977686    9.361566   18.938926    ( 0.0000,  0.0000,  0.0000)
  12 Hg     3.603292    0.000000   10.000000    ( 0.0000,  0.0000,  0.0000)
  13 Hg     7.206585    2.080362   12.942076    ( 0.0000,  0.0000,  0.0000)
  14 Hg     5.404939    1.055793   15.866715    ( 0.0000,  0.0000,  0.0000)
  15 Hg     9.023557    3.094121   18.938926    ( 0.0000,  0.0000,  0.0000)
  16 Hg     5.404939    3.120543   10.000000    ( 0.0000,  0.0000,  0.0000)
  17 Hg     9.008231    5.200905   12.942076    ( 0.0000,  0.0000,  0.0000)
  18 Hg     7.193064    4.152917   15.866715    ( 0.0000,  0.0000,  0.0000)
  19 Hg    10.809877    6.241086   18.929682    ( 0.0000,  0.0000,  0.0000)
  20 Hg     7.206585    6.241086   10.000000    ( 0.0000,  0.0000,  0.0000)
  21 Hg    10.809877    8.321447   12.942076    ( 0.0000,  0.0000,  0.0000)
  22 Hg     8.994409    7.289247   15.879143    ( 0.0000,  0.0000,  0.0000)
  23 Hg    12.642068    9.361566   18.938926    ( 0.0000,  0.0000,  0.0000)
  24 Hg     7.206585    0.000000   10.000000    ( 0.0000,  0.0000,  0.0000)
  25 Hg    10.809877    2.080362   12.942076    ( 0.0000,  0.0000,  0.0000)
  26 Hg     9.000864    1.044434   15.886304    ( 0.0000,  0.0000,  0.0000)
  27 Hg    12.596197    3.094121   18.938926    ( 0.0000,  0.0000,  0.0000)
  28 Hg     9.008231    3.120543   10.000000    ( 0.0000,  0.0000,  0.0000)
  29 Hg    12.611524    5.200905   12.942076    ( 0.0000,  0.0000,  0.0000)
  30 Hg    10.809877    4.144763   15.879143    ( 0.0000,  0.0000,  0.0000)
  31 Hg    14.428388    6.267569   18.938926    ( 0.0000,  0.0000,  0.0000)
  32 Hg    10.809877    6.241086   10.000000    ( 0.0000,  0.0000,  0.0000)
  33 Hg    14.413170    8.321447   12.942076    ( 0.0000,  0.0000,  0.0000)
  34 Hg    12.625346    7.289247   15.879143    ( 0.0000,  0.0000,  0.0000)
  35 Hg    16.214816    9.361628   18.940525    ( 0.0000,  0.0000,  0.0000)
  36 H     10.872714    3.698309   22.285620    ( 0.0000,  0.0000,  0.0000)
  37 O     10.855748    3.313287   21.512219    ( 0.0000,  0.0000,  0.0000)
  38 C     10.849722    4.106500   20.479978    ( 0.0000,  0.0000,  0.0000)
  39 C     10.774192    5.556100   20.874594    ( 0.0000,  0.0000,  0.0000)
  40 O     10.840023    6.351188   22.061354    ( 0.0000,  0.0000,  0.0000)

Unit cell:
           periodic     x           y           z      points  spacing
  1. axis:    yes   10.809877    0.000000    0.000000    52     0.1800
  2. axis:    yes    5.404939    9.361628    0.000000    52     0.1800
  3. axis:    no     0.000000    0.000000   28.826228   160     0.1802

  Lengths:  10.809877  10.809877  28.826228
  Angles:   90.000000  90.000000  60.000000

Effective grid spacing dv^(1/3) = 0.1889

     iter     time        total  log10-change:
                         energy  eigst   dens
iter:   1 01:12:37 -12291.243163  -1.53
iter:   2 01:13:31 -12291.073098  -2.40  -2.53
iter:   3 01:14:24 -12291.029763c -2.91  -2.88
iter:   4 01:15:18 -12290.991870c -3.10  -3.11
iter:   5 01:16:11 -12290.986310c -3.65  -3.14
iter:   6 01:17:05 -12290.983513c -3.50  -3.28
iter:   7 01:17:58 -12290.982199c -3.97  -3.29
iter:   8 01:18:52 -12290.979683c -4.68  -3.61
iter:   9 01:19:45 -12290.978946c -4.98  -3.76
iter:  10 01:20:39 -12290.979645c -4.96  -3.77
iter:  11 01:21:32 -12290.979522c -5.40  -4.04c
iter:  12 01:22:26 -12290.979165c -5.79  -4.05c
iter:  13 01:23:19 -12290.979169c -5.93  -4.28c
iter:  14 01:24:12 -12290.979186c -6.33  -4.45c
iter:  15 01:25:06 -12290.979222c -6.54  -4.57c
iter:  16 01:25:59 -12290.979217c -6.82  -4.68c
iter:  17 01:26:53 -12290.979189c -7.18  -4.82c
iter:  18 01:27:46 -12290.979181c -8.03c -4.88c

Converged after 18 iterations.

Dipole moment: (-20.142360, -11.930571, -0.488416) |e|*Ang

Energy contributions relative to reference atoms: (reference = -19199757.485185)

Kinetic:       +2069.705663
Potential:     -1852.481635
External:        +0.000000
XC:            -12422.177693
Entropy (-ST):   -0.222645
Local:          -85.914194
--------------------------
Free energy:   -12291.090504
Extrapolated:  -12290.979181

Showing only first 2 kpts
 Kpt  Band  Eigenvalues  Occupancy
  0   332     -5.47030    1.99669
  0   333     -5.10025    1.87419
  0   334     -4.87537    1.22241
  0   335     -4.47075    0.05352

  1   332     -5.46744    1.99659
  1   333     -5.02921    1.75964
  1   334     -4.85011    1.09954
  1   335     -4.47483    0.05568


Fermi level: -4.83013

No gap

Forces in eV/Ang:
  0 Hg    0.00096    0.00376   -0.08174
  1 Hg   -0.02276   -0.01096    0.00238
  2 Hg   -0.01587    0.02545    0.07619
  3 Hg    0.00108    0.00995    0.07557
  4 Hg   -0.01347   -0.02379   -0.08519
  5 Hg    0.00061    0.01614    0.01143
  6 Hg   -0.01479   -0.00955    0.04235
  7 Hg   -0.00965   -0.02531    0.00231
  8 Hg    0.01319    0.01917   -0.08075
  9 Hg   -0.00008    0.00134    0.01708
 10 Hg    0.00197   -0.00237    0.04711
 11 Hg    0.01131    0.00406    0.02136
 12 Hg   -0.02745    0.00329   -0.08003
 13 Hg    0.02484   -0.01247    0.00330
 14 Hg    0.00074    0.02267    0.03560
 15 Hg   -0.28130   -0.05955   -0.28766
 16 Hg   -0.00101    0.00009   -0.08073
 17 Hg    0.01162   -0.00561    0.03403
 18 Hg    0.01812   -0.01033    0.04106
 19 Hg    0.00247    1.52254   -1.98430
 20 Hg   -0.01355    0.02041   -0.08004
 21 Hg    0.00114   -0.00683    0.03785
 22 Hg    0.04197   -0.02655    0.10907
 23 Hg   -0.01391    0.00071    0.02423
 24 Hg    0.02715    0.00173   -0.08033
 25 Hg   -0.00077    0.01269    0.00469
 26 Hg    0.01869    0.02946    0.07438
 27 Hg    0.38792   -0.12696   -0.39225
 28 Hg    0.01509   -0.02365   -0.08460
 29 Hg   -0.01219   -0.00509    0.03548
 30 Hg    0.00046    0.01464    0.10891
 31 Hg    0.00411   -0.02598    0.00620
 32 Hg    0.00064   -0.00408   -0.06967
 33 Hg   -0.00018    0.00216    0.01730
 34 Hg   -0.04465   -0.02344    0.10980
 35 Hg    0.00345    0.05545   -0.00304
 36 H     0.13064    3.50634    6.72360
 37 O    -0.09921   -5.48686   -4.53129
 38 C    -0.26024    3.48233    0.25042
 39 C     0.39231    1.34219    5.88164
 40 O    -0.25289   -4.18002   -6.06736

BFGS:    2 01:28:02   -12290.979181        3.0902
System changes: positions 

Initializing position-dependent things.

Density initialized from wave functions
                                                              
                                                              
                                                              
                                                              
                                                              
                                                              
                                      O                       
                                    H                         
                                   HOC      Hg       Hg       
                                    C                         
                             Hg       Hg       Hg             
                                                              
                      Hg       Hg       Hg                    
                         Hg       Hg       Hg                 
                                                              
                   Hg      Hg       Hg                        
            Hg                Hg       Hg       Hg            
                     Hg                                       
                        Hg       Hg      Hg                   
                 Hg       Hg       Hg                         
                                                              
                    Hg       Hg       Hg                      
             Hg       Hg       Hg                             
                                                              
       Hg       Hg       Hg                                   
                                                              
                                                              
                                                              
                                                              

Positions:
   0 Hg     0.000000    0.000000   10.000000    ( 0.0000,  0.0000,  0.0000)
   1 Hg     3.603292    2.080362   12.942076    ( 0.0000,  0.0000,  0.0000)
   2 Hg     1.809013    1.044434   15.886304    ( 0.0000,  0.0000,  0.0000)
   3 Hg     5.404939    3.120543   18.930235    ( 0.0000,  0.0000,  0.0000)
   4 Hg     1.801646    3.120543   10.000000    ( 0.0000,  0.0000,  0.0000)
   5 Hg     5.404939    5.200905   12.942076    ( 0.0000,  0.0000,  0.0000)
   6 Hg     3.616813    4.152917   15.866715    ( 0.0000,  0.0000,  0.0000)
   7 Hg     7.191366    6.267569   18.938926    ( 0.0000,  0.0000,  0.0000)
   8 Hg     3.603292    6.241086   10.000000    ( 0.0000,  0.0000,  0.0000)
   9 Hg     7.206585    8.321447   12.942076    ( 0.0000,  0.0000,  0.0000)
  10 Hg     5.404939    7.272760   15.886304    ( 0.0000,  0.0000,  0.0000)
  11 Hg     8.977686    9.361566   18.938926    ( 0.0000,  0.0000,  0.0000)
  12 Hg     3.603292    0.000000   10.000000    ( 0.0000,  0.0000,  0.0000)
  13 Hg     7.206585    2.080362   12.942076    ( 0.0000,  0.0000,  0.0000)
  14 Hg     5.404939    1.055793   15.866715    ( 0.0000,  0.0000,  0.0000)
  15 Hg     9.023557    3.094121   18.938926    ( 0.0000,  0.0000,  0.0000)
  16 Hg     5.404939    3.120543   10.000000    ( 0.0000,  0.0000,  0.0000)
  17 Hg     9.008231    5.200905   12.942076    ( 0.0000,  0.0000,  0.0000)
  18 Hg     7.193064    4.152917   15.866715    ( 0.0000,  0.0000,  0.0000)
  19 Hg    10.809877    6.241086   18.929682    ( 0.0000,  0.0000,  0.0000)
  20 Hg     7.206585    6.241086   10.000000    ( 0.0000,  0.0000,  0.0000)
  21 Hg    10.809877    8.321447   12.942076    ( 0.0000,  0.0000,  0.0000)
  22 Hg     8.994409    7.289247   15.879143    ( 0.0000,  0.0000,  0.0000)
  23 Hg    12.642068    9.361566   18.938926    ( 0.0000,  0.0000,  0.0000)
  24 Hg     7.206585    0.000000   10.000000    ( 0.0000,  0.0000,  0.0000)
  25 Hg    10.809877    2.080362   12.942076    ( 0.0000,  0.0000,  0.0000)
  26 Hg     9.000864    1.044434   15.886304    ( 0.0000,  0.0000,  0.0000)
  27 Hg    12.596197    3.094121   18.938926    ( 0.0000,  0.0000,  0.0000)
  28 Hg     9.008231    3.120543   10.000000    ( 0.0000,  0.0000,  0.0000)
  29 Hg    12.611524    5.200905   12.942076    ( 0.0000,  0.0000,  0.0000)
  30 Hg    10.809877    4.144763   15.879143    ( 0.0000,  0.0000,  0.0000)
  31 Hg    14.428388    6.267569   18.938926    ( 0.0000,  0.0000,  0.0000)
  32 Hg    10.809877    6.241086   10.000000    ( 0.0000,  0.0000,  0.0000)
  33 Hg    14.413170    8.321447   12.942076    ( 0.0000,  0.0000,  0.0000)
  34 Hg    12.625346    7.289247   15.879143    ( 0.0000,  0.0000,  0.0000)
  35 Hg    16.214816    9.361628   18.940525    ( 0.0000,  0.0000,  0.0000)
  36 H     10.872189    3.709408   22.297784    ( 0.0000,  0.0000,  0.0000)
  37 O     10.857265    3.294690   21.533700    ( 0.0000,  0.0000,  0.0000)
  38 C     10.846397    4.086163   20.495319    ( 0.0000,  0.0000,  0.0000)
  39 C     10.770611    5.526824   20.914540    ( 0.0000,  0.0000,  0.0000)
  40 O     10.842562    6.359452   22.074907    ( 0.0000,  0.0000,  0.0000)

Unit cell:
           periodic     x           y           z      points  spacing
  1. axis:    yes   10.809877    0.000000    0.000000    52     0.1800
  2. axis:    yes    5.404939    9.361628    0.000000    52     0.1800
  3. axis:    no     0.000000    0.000000   28.826228   160     0.1802

  Lengths:  10.809877  10.809877  28.826228
  Angles:   90.000000  90.000000  60.000000

Effective grid spacing dv^(1/3) = 0.1889

     iter     time        total  log10-change:
                         energy  eigst   dens
iter:   1 01:29:41 -12291.156268  -2.25
iter:   2 01:30:35 -12291.109932  -3.13  -2.82
iter:   3 01:31:28 -12291.100008c -3.61  -3.16
iter:   4 01:32:22 -12291.095911c -3.81  -3.48
iter:   5 01:33:15 -12291.095308c -4.44  -3.50
iter:   6 01:34:09 -12291.095950c -4.39  -3.62
iter:   7 01:35:02 -12291.095687c -4.93  -3.79
iter:   8 01:35:56 -12291.094712c -5.23  -4.00c
iter:   9 01:36:49 -12291.094698c -5.72  -4.10c
iter:  10 01:37:42 -12291.095000c -5.85  -4.17c
iter:  11 01:38:36 -12291.094894c -6.05  -4.44c
iter:  12 01:39:29 -12291.094913c -6.75  -4.51c
iter:  13 01:40:23 -12291.094921c -6.81  -4.80c
iter:  14 01:41:16 -12291.094858c -6.99  -4.87c
iter:  15 01:42:10 -12291.094870c -7.18  -4.98c
iter:  16 01:43:03 -12291.094877c -8.10c -5.19c

Converged after 16 iterations.

Dipole moment: (-20.146701, -11.916727, -0.485805) |e|*Ang

Energy contributions relative to reference atoms: (reference = -19199757.485185)

Kinetic:       +2068.092128
Potential:     -1851.302645
External:        +0.000000
XC:            -12421.860210
Entropy (-ST):   -0.216141
Local:          -85.916079
--------------------------
Free energy:   -12291.202947
Extrapolated:  -12291.094877

Showing only first 2 kpts
 Kpt  Band  Eigenvalues  Occupancy
  0   332     -5.46870    1.99628
  0   333     -5.11402    1.87844
  0   334     -4.88537    1.22192
  0   335     -4.46088    0.04404

  1   332     -5.46596    1.99617
  1   333     -5.04763    1.77670
  1   334     -4.86333    1.11497
  1   335     -4.45588    0.04194


Fermi level: -4.84023

No gap

Forces in eV/Ang:
  0 Hg    0.00096    0.00398   -0.08375
  1 Hg   -0.02336   -0.01076    0.00062
  2 Hg   -0.01469    0.02602    0.07612
  3 Hg    0.00143    0.01001    0.07710
  4 Hg   -0.01367   -0.02364   -0.08732
  5 Hg    0.00068    0.01630    0.00970
  6 Hg   -0.01889   -0.00722    0.04368
  7 Hg   -0.00849   -0.02425    0.00164
  8 Hg    0.01303    0.01908   -0.08253
  9 Hg   -0.00006    0.00152    0.01497
 10 Hg    0.00168   -0.00298    0.04890
 11 Hg    0.01248    0.00189    0.01983
 12 Hg   -0.02755    0.00336   -0.08167
 13 Hg    0.02527   -0.01219    0.00158
 14 Hg    0.00072    0.01743    0.03770
 15 Hg   -0.27504   -0.05412   -0.27703
 16 Hg   -0.00104    0.00005   -0.08218
 17 Hg    0.01312   -0.00554    0.03365
 18 Hg    0.02206   -0.00800    0.04245
 19 Hg   -0.00682    1.28825   -1.49159
 20 Hg   -0.01337    0.02032   -0.08182
 21 Hg    0.00115   -0.00786    0.03843
 22 Hg    0.04526   -0.02884    0.10836
 23 Hg   -0.01501   -0.00137    0.02217
 24 Hg    0.02718    0.00187   -0.08193
 25 Hg   -0.00081    0.01322    0.00189
 26 Hg    0.01697    0.02964    0.07437
 27 Hg    0.38455   -0.12232   -0.38679
 28 Hg    0.01522   -0.02346   -0.08656
 29 Hg   -0.01369   -0.00504    0.03504
 30 Hg    0.00073    0.01840    0.10144
 31 Hg    0.00322   -0.02485    0.00474
 32 Hg    0.00060   -0.00434   -0.07218
 33 Hg   -0.00030    0.00240    0.01531
 34 Hg   -0.04784   -0.02613    0.10947
 35 Hg    0.00354    0.05230   -0.00110
 36 H     0.11035    3.32890    6.20624
 37 O    -0.04861   -5.37528   -4.00531
 38 C    -0.22992    3.54432    0.36942
 39 C     0.39249    1.86871    5.14429
 40 O    -0.28694   -4.51049   -5.98237

BFGS:    3 01:43:18   -12291.094877        3.3174
System changes: positions 

Initializing position-dependent things.

Density initialized from wave functions
                                                              
                                                              
                                                              
                                                              
                                                              
                                                              
                                      O                       
                                    H                         
                                   HOC      Hg       Hg       
                                    C                         
                             Hg       Hg       Hg             
                                                              
                      Hg       Hg       Hg                    
                         Hg       Hg       Hg                 
                                                              
                   Hg      Hg       Hg                        
                              Hg       Hg       Hg            
            Hg       Hg       Hg                              
                        Hg       Hg      Hg                   
                 Hg       Hg       Hg                         
                                                              
                    Hg       Hg       Hg                      
             Hg       Hg       Hg                             
                                                              
       Hg       Hg       Hg                                   
                                                              
                                                              
                                                              
                                                              

Positions:
   0 Hg     0.000000    0.000000   10.000000    ( 0.0000,  0.0000,  0.0000)
   1 Hg     3.603292    2.080362   12.942076    ( 0.0000,  0.0000,  0.0000)
   2 Hg     1.809013    1.044434   15.886304    ( 0.0000,  0.0000,  0.0000)
   3 Hg     5.404939    3.120543   18.930235    ( 0.0000,  0.0000,  0.0000)
   4 Hg     1.801646    3.120543   10.000000    ( 0.0000,  0.0000,  0.0000)
   5 Hg     5.404939    5.200905   12.942076    ( 0.0000,  0.0000,  0.0000)
   6 Hg     3.616813    4.152917   15.866715    ( 0.0000,  0.0000,  0.0000)
   7 Hg     7.191366    6.267569   18.938926    ( 0.0000,  0.0000,  0.0000)
   8 Hg     3.603292    6.241086   10.000000    ( 0.0000,  0.0000,  0.0000)
   9 Hg     7.206585    8.321447   12.942076    ( 0.0000,  0.0000,  0.0000)
  10 Hg     5.404939    7.272760   15.886304    ( 0.0000,  0.0000,  0.0000)
  11 Hg     8.977686    9.361566   18.938926    ( 0.0000,  0.0000,  0.0000)
  12 Hg     3.603292    0.000000   10.000000    ( 0.0000,  0.0000,  0.0000)
  13 Hg     7.206585    2.080362   12.942076    ( 0.0000,  0.0000,  0.0000)
  14 Hg     5.404939    1.055793   15.866715    ( 0.0000,  0.0000,  0.0000)
  15 Hg     9.023557    3.094121   18.938926    ( 0.0000,  0.0000,  0.0000)
  16 Hg     5.404939    3.120543   10.000000    ( 0.0000,  0.0000,  0.0000)
  17 Hg     9.008231    5.200905   12.942076    ( 0.0000,  0.0000,  0.0000)
  18 Hg     7.193064    4.152917   15.866715    ( 0.0000,  0.0000,  0.0000)
  19 Hg    10.809877    6.241086   18.929682    ( 0.0000,  0.0000,  0.0000)
  20 Hg     7.206585    6.241086   10.000000    ( 0.0000,  0.0000,  0.0000)
  21 Hg    10.809877    8.321447   12.942076    ( 0.0000,  0.0000,  0.0000)
  22 Hg     8.994409    7.289247   15.879143    ( 0.0000,  0.0000,  0.0000)
  23 Hg    12.642068    9.361566   18.938926    ( 0.0000,  0.0000,  0.0000)
  24 Hg     7.206585    0.000000   10.000000    ( 0.0000,  0.0000,  0.0000)
  25 Hg    10.809877    2.080362   12.942076    ( 0.0000,  0.0000,  0.0000)
  26 Hg     9.000864    1.044434   15.886304    ( 0.0000,  0.0000,  0.0000)
  27 Hg    12.596197    3.094121   18.938926    ( 0.0000,  0.0000,  0.0000)
  28 Hg     9.008231    3.120543   10.000000    ( 0.0000,  0.0000,  0.0000)
  29 Hg    12.611524    5.200905   12.942076    ( 0.0000,  0.0000,  0.0000)
  30 Hg    10.809877    4.144763   15.879143    ( 0.0000,  0.0000,  0.0000)
  31 Hg    14.428388    6.267569   18.938926    ( 0.0000,  0.0000,  0.0000)
  32 Hg    10.809877    6.241086   10.000000    ( 0.0000,  0.0000,  0.0000)
  33 Hg    14.413170    8.321447   12.942076    ( 0.0000,  0.0000,  0.0000)
  34 Hg    12.625346    7.289247   15.879143    ( 0.0000,  0.0000,  0.0000)
  35 Hg    16.214816    9.361628   18.940525    ( 0.0000,  0.0000,  0.0000)
  36 H     10.871297    3.719033   22.311178    ( 0.0000,  0.0000,  0.0000)
  37 O     10.860487    3.259149   21.571031    ( 0.0000,  0.0000,  0.0000)
  38 C     10.841110    4.053668   20.534259    ( 0.0000,  0.0000,  0.0000)
  39 C     10.763305    5.490409   20.962771    ( 0.0000,  0.0000,  0.0000)
  40 O     10.846987    6.364118   22.091721    ( 0.0000,  0.0000,  0.0000)

Unit cell:
           periodic     x           y           z      points  spacing
  1. axis:    yes   10.809877    0.000000    0.000000    52     0.1800
  2. axis:    yes    5.404939    9.361628    0.000000    52     0.1800
  3. axis:    no     0.000000    0.000000   28.826228   160     0.1802

  Lengths:  10.809877  10.809877  28.826228
  Angles:   90.000000  90.000000  60.000000

Effective grid spacing dv^(1/3) = 0.1889

     iter     time        total  log10-change:
                         energy  eigst   dens
iter:   1 01:44:58 -12291.233746  -1.93
iter:   2 01:45:51 -12291.197373  -2.87  -2.83
iter:   3 01:46:44 -12291.188299c -3.45  -3.13
iter:   4 01:47:38 -12291.183143c -3.63  -3.39
iter:   5 01:48:31 -12291.182052c -4.19  -3.42
iter:   6 01:49:25 -12291.182564c -4.24  -3.56
iter:   7 01:50:18 -12291.182418c -4.79  -3.71
iter:   8 01:51:11 -12291.181295c -5.11  -3.92
iter:   9 01:52:05 -12291.181226c -5.65  -4.04c
iter:  10 01:52:58 -12291.181490c -5.57  -4.09c
iter:  11 01:53:52 -12291.181369c -5.82  -4.36c
iter:  12 01:54:45 -12291.181391c -6.60  -4.41c
iter:  13 01:55:39 -12291.181441c -6.59  -4.64c
iter:  14 01:56:32 -12291.181417c -7.29  -4.75c
iter:  15 01:57:26 -12291.181401c -7.28  -4.92c
iter:  16 01:58:19 -12291.181403c -7.63c -5.02c

Converged after 16 iterations.

Dipole moment: (-20.150692, -11.901868, -0.484084) |e|*Ang

Energy contributions relative to reference atoms: (reference = -19199757.485185)

Kinetic:       +2066.472146
Potential:     -1850.086429
External:        +0.000000
XC:            -12421.543004
Entropy (-ST):   -0.212382
Local:          -85.917926
--------------------------
Free energy:   -12291.287594
Extrapolated:  -12291.181403

Showing only first 2 kpts
 Kpt  Band  Eigenvalues  Occupancy
  0   332     -5.46836    1.99586
  0   333     -5.12437    1.87842
  0   334     -4.89464    1.21666
  0   335     -4.45725    0.03839

  1   332     -5.46533    1.99573
  1   333     -5.06401    1.78832
  1   334     -4.87627    1.12761
  1   335     -4.44197    0.03304


Fermi level: -4.85061

No gap

Forces in eV/Ang:
  0 Hg    0.00096    0.00419   -0.08454
  1 Hg   -0.02378   -0.01048   -0.00090
  2 Hg   -0.01307    0.02663    0.07450
  3 Hg    0.00235    0.00932    0.07788
  4 Hg   -0.01390   -0.02360   -0.08838
  5 Hg    0.00066    0.01638    0.00831
  6 Hg   -0.02151   -0.00631    0.04283
  7 Hg   -0.01291   -0.02227    0.00048
  8 Hg    0.01299    0.01896   -0.08296
  9 Hg    0.00041    0.00132    0.01307
 10 Hg    0.00126   -0.00320    0.04798
 11 Hg    0.01118    0.00393    0.01754
 12 Hg   -0.02768    0.00350   -0.08185
 13 Hg    0.02539   -0.01196   -0.00018
 14 Hg    0.00027    0.01403    0.03677
 15 Hg   -0.24721   -0.03996   -0.24620
 16 Hg   -0.00105   -0.00006   -0.08230
 17 Hg    0.01490   -0.00516    0.03211
 18 Hg    0.02432   -0.00716    0.04202
 19 Hg   -0.01755    0.99610   -0.97459
 20 Hg   -0.01328    0.02019   -0.08233
 21 Hg    0.00122   -0.00920    0.03864
 22 Hg    0.04493   -0.02870    0.09961
 23 Hg   -0.01359    0.00136    0.01969
 24 Hg    0.02729    0.00210   -0.08207
 25 Hg   -0.00069    0.01412   -0.00169
 26 Hg    0.01528    0.02997    0.07303
 27 Hg    0.35862   -0.10784   -0.36534
 28 Hg    0.01538   -0.02339   -0.08743
 29 Hg   -0.01536   -0.00470    0.03372
 30 Hg    0.00125    0.01697    0.08336
 31 Hg    0.00786   -0.02291    0.00215
 32 Hg    0.00058   -0.00469   -0.07363
 33 Hg   -0.00087    0.00218    0.01355
 34 Hg   -0.04730   -0.02678    0.10086
 35 Hg    0.00383    0.04923   -0.00016
 36 H     0.08712    3.28448    6.05569
 37 O    -0.06534   -5.31621   -3.55176
 38 C    -0.22981    3.66349    0.06904
 39 C     0.43100    2.31014    4.50922
 40 O    -0.33939   -4.78837   -5.87753

BFGS:    4 01:58:35   -12291.181403        3.3383
System changes: positions 

Initializing position-dependent things.

Density initialized from wave functions
                                                              
                                                              
                                                              
                                                              
                                                              
                                                              
                                      O                       
                                    H                         
                                   HOC      Hg       Hg       
                                    C                         
                             Hg       Hg       Hg             
                                                              
                      Hg       Hg       Hg                    
                         Hg       Hg       Hg                 
                                                              
                   Hg      Hg       Hg                        
                              Hg       Hg       Hg            
            Hg       Hg       Hg                              
                        Hg       Hg      Hg                   
                                                              
                 Hg       Hg       Hg                         
                    Hg       Hg       Hg                      
             Hg       Hg       Hg                             
                                                              
       Hg       Hg       Hg                                   
                                                              
                                                              
                                                              
                                                              

Positions:
   0 Hg     0.000000    0.000000   10.000000    ( 0.0000,  0.0000,  0.0000)
   1 Hg     3.603292    2.080362   12.942076    ( 0.0000,  0.0000,  0.0000)
   2 Hg     1.809013    1.044434   15.886304    ( 0.0000,  0.0000,  0.0000)
   3 Hg     5.404939    3.120543   18.930235    ( 0.0000,  0.0000,  0.0000)
   4 Hg     1.801646    3.120543   10.000000    ( 0.0000,  0.0000,  0.0000)
   5 Hg     5.404939    5.200905   12.942076    ( 0.0000,  0.0000,  0.0000)
   6 Hg     3.616813    4.152917   15.866715    ( 0.0000,  0.0000,  0.0000)
   7 Hg     7.191366    6.267569   18.938926    ( 0.0000,  0.0000,  0.0000)
   8 Hg     3.603292    6.241086   10.000000    ( 0.0000,  0.0000,  0.0000)
   9 Hg     7.206585    8.321447   12.942076    ( 0.0000,  0.0000,  0.0000)
  10 Hg     5.404939    7.272760   15.886304    ( 0.0000,  0.0000,  0.0000)
  11 Hg     8.977686    9.361566   18.938926    ( 0.0000,  0.0000,  0.0000)
  12 Hg     3.603292    0.000000   10.000000    ( 0.0000,  0.0000,  0.0000)
  13 Hg     7.206585    2.080362   12.942076    ( 0.0000,  0.0000,  0.0000)
  14 Hg     5.404939    1.055793   15.866715    ( 0.0000,  0.0000,  0.0000)
  15 Hg     9.023557    3.094121   18.938926    ( 0.0000,  0.0000,  0.0000)
  16 Hg     5.404939    3.120543   10.000000    ( 0.0000,  0.0000,  0.0000)
  17 Hg     9.008231    5.200905   12.942076    ( 0.0000,  0.0000,  0.0000)
  18 Hg     7.193064    4.152917   15.866715    ( 0.0000,  0.0000,  0.0000)
  19 Hg    10.809877    6.241086   18.929682    ( 0.0000,  0.0000,  0.0000)
  20 Hg     7.206585    6.241086   10.000000    ( 0.0000,  0.0000,  0.0000)
  21 Hg    10.809877    8.321447   12.942076    ( 0.0000,  0.0000,  0.0000)
  22 Hg     8.994409    7.289247   15.879143    ( 0.0000,  0.0000,  0.0000)
  23 Hg    12.642068    9.361566   18.938926    ( 0.0000,  0.0000,  0.0000)
  24 Hg     7.206585    0.000000   10.000000    ( 0.0000,  0.0000,  0.0000)
  25 Hg    10.809877    2.080362   12.942076    ( 0.0000,  0.0000,  0.0000)
  26 Hg     9.000864    1.044434   15.886304    ( 0.0000,  0.0000,  0.0000)
  27 Hg    12.596197    3.094121   18.938926    ( 0.0000,  0.0000,  0.0000)
  28 Hg     9.008231    3.120543   10.000000    ( 0.0000,  0.0000,  0.0000)
  29 Hg    12.611524    5.200905   12.942076    ( 0.0000,  0.0000,  0.0000)
  30 Hg    10.809877    4.144763   15.879143    ( 0.0000,  0.0000,  0.0000)
  31 Hg    14.428388    6.267569   18.938926    ( 0.0000,  0.0000,  0.0000)
  32 Hg    10.809877    6.241086   10.000000    ( 0.0000,  0.0000,  0.0000)
  33 Hg    14.413170    8.321447   12.942076    ( 0.0000,  0.0000,  0.0000)
  34 Hg    12.625346    7.289247   15.879143    ( 0.0000,  0.0000,  0.0000)
  35 Hg    16.214816    9.361628   18.940525    ( 0.0000,  0.0000,  0.0000)
  36 H     10.870657    3.720078   22.328482    ( 0.0000,  0.0000,  0.0000)
  37 O     10.862439    3.225810   21.611838    ( 0.0000,  0.0000,  0.0000)
  38 C     10.835521    4.024231   20.578219    ( 0.0000,  0.0000,  0.0000)
  39 C     10.754794    5.463505   20.993362    ( 0.0000,  0.0000,  0.0000)
  40 O     10.851855    6.361043   22.102372    ( 0.0000,  0.0000,  0.0000)

Unit cell:
           periodic     x           y           z      points  spacing
  1. axis:    yes   10.809877    0.000000    0.000000    52     0.1800
  2. axis:    yes    5.404939    9.361628    0.000000    52     0.1800
  3. axis:    no     0.000000    0.000000   28.826228   160     0.1802

  Lengths:  10.809877  10.809877  28.826228
  Angles:   90.000000  90.000000  60.000000

Effective grid spacing dv^(1/3) = 0.1889

     iter     time        total  log10-change:
                         energy  eigst   dens
iter:   1 02:00:14 -12291.235260  -2.03
iter:   2 02:01:08 -12291.231225  -3.01  -3.10
iter:   3 02:02:01 -12291.228364c -3.65  -3.29
iter:   4 02:02:55 -12291.225967c -3.86  -3.50
iter:   5 02:03:48 -12291.226105c -4.27  -3.59
iter:   6 02:04:42 -12291.226259c -4.56  -3.65
iter:   7 02:05:35 -12291.226015c -4.95  -3.86
iter:   8 02:06:28 -12291.225450c -5.38  -4.06c
iter:   9 02:07:22 -12291.225372c -5.60  -4.12c
iter:  10 02:08:15 -12291.225563c -5.94  -4.26c
iter:  11 02:09:08 -12291.225588c -6.15  -4.42c
iter:  12 02:10:02 -12291.225588c -7.00  -4.54c
iter:  13 02:10:55 -12291.225638c -6.67  -4.66c
iter:  14 02:11:48 -12291.225621c -7.44c -4.86c

Converged after 14 iterations.

Dipole moment: (-20.158544, -11.892574, -0.488176) |e|*Ang

Energy contributions relative to reference atoms: (reference = -19199757.485185)

Kinetic:       +2065.339300
Potential:     -1849.208614
External:        +0.000000
XC:            -12421.328098
Entropy (-ST):   -0.212326
Local:          -85.922047
--------------------------
Free energy:   -12291.331784
Extrapolated:  -12291.225621

Showing only first 2 kpts
 Kpt  Band  Eigenvalues  Occupancy
  0   332     -5.47201    1.99569
  0   333     -5.12934    1.87523
  0   334     -4.90086    1.20948
  0   335     -4.46418    0.03809

  1   332     -5.46852    1.99553
  1   333     -5.07390    1.79239
  1   334     -4.88473    1.13121
  1   335     -4.44433    0.03134


Fermi level: -4.85834

No gap

Forces in eV/Ang:
  0 Hg    0.00098    0.00444   -0.08429
  1 Hg   -0.02425   -0.01028   -0.00280
  2 Hg   -0.01497    0.02960    0.07254
  3 Hg    0.00101    0.01021    0.07767
  4 Hg   -0.01433   -0.02364   -0.08880
  5 Hg    0.00112    0.01614    0.00623
  6 Hg   -0.02586   -0.00640    0.04449
  7 Hg   -0.00333   -0.02286    0.00136
  8 Hg    0.01300    0.01885   -0.08324
  9 Hg   -0.00024    0.00162    0.01084
 10 Hg    0.00119   -0.00241    0.04536
 11 Hg    0.01626   -0.00482    0.01870
 12 Hg   -0.02793    0.00354   -0.08190
 13 Hg    0.02619   -0.01163   -0.00169
 14 Hg    0.00063    0.01338    0.03487
 15 Hg   -0.20511   -0.01802   -0.20779
 16 Hg   -0.00096   -0.00007   -0.08220
 17 Hg    0.01510   -0.00620    0.03015
 18 Hg    0.02871   -0.00727    0.04223
 19 Hg   -0.02081    0.80762   -0.70544
 20 Hg   -0.01316    0.02004   -0.08251
 21 Hg    0.00125   -0.00909    0.03653
 22 Hg    0.04808   -0.03327    0.10289
 23 Hg   -0.01921   -0.00903    0.02060
 24 Hg    0.02754    0.00226   -0.08207
 25 Hg   -0.00103    0.01411   -0.00333
 26 Hg    0.01696    0.03302    0.07049
 27 Hg    0.32244   -0.08798   -0.33446
 28 Hg    0.01572   -0.02336   -0.08753
 29 Hg   -0.01600   -0.00560    0.03169
 30 Hg    0.00178    0.01723    0.08531
 31 Hg   -0.00389   -0.02564    0.00353
 32 Hg    0.00050   -0.00518   -0.07465
 33 Hg   -0.00018    0.00304    0.01142
 34 Hg   -0.05069   -0.03128    0.10504
 35 Hg    0.00463    0.04921    0.00051
 36 H     0.07795    3.37853    6.17544
 37 O    -0.04381   -5.26289   -3.44634
 38 C    -0.21443    3.73944   -0.36878
 39 C     0.47620    2.41348    4.28638
 40 O    -0.38065   -4.93365   -5.76731

BFGS:    5 02:12:04   -12291.225621        3.1767
System changes: positions 

Initializing position-dependent things.

Density initialized from wave functions
                                                              
                                                              
                                                              
                                                              
                                                              
                                                              
                                      O                       
                                    H                         
                                   HOC      Hg       Hg       
                                    C                         
                             Hg       Hg       Hg             
                                                              
                      Hg       Hg       Hg                    
                         Hg       Hg       Hg                 
                                                              
                   Hg      Hg       Hg                        
                              Hg       Hg       Hg            
            Hg       Hg       Hg                              
                        Hg       Hg      Hg                   
                                                              
                 Hg       Hg       Hg                         
                    Hg       Hg       Hg                      
             Hg       Hg       Hg                             
                                                              
       Hg       Hg       Hg                                   
                                                              
                                                              
                                                              
                                                              

Positions:
   0 Hg     0.000000    0.000000   10.000000    ( 0.0000,  0.0000,  0.0000)
   1 Hg     3.603292    2.080362   12.942076    ( 0.0000,  0.0000,  0.0000)
   2 Hg     1.809013    1.044434   15.886304    ( 0.0000,  0.0000,  0.0000)
   3 Hg     5.404939    3.120543   18.930235    ( 0.0000,  0.0000,  0.0000)
   4 Hg     1.801646    3.120543   10.000000    ( 0.0000,  0.0000,  0.0000)
   5 Hg     5.404939    5.200905   12.942076    ( 0.0000,  0.0000,  0.0000)
   6 Hg     3.616813    4.152917   15.866715    ( 0.0000,  0.0000,  0.0000)
   7 Hg     7.191366    6.267569   18.938926    ( 0.0000,  0.0000,  0.0000)
   8 Hg     3.603292    6.241086   10.000000    ( 0.0000,  0.0000,  0.0000)
   9 Hg     7.206585    8.321447   12.942076    ( 0.0000,  0.0000,  0.0000)
  10 Hg     5.404939    7.272760   15.886304    ( 0.0000,  0.0000,  0.0000)
  11 Hg     8.977686    9.361566   18.938926    ( 0.0000,  0.0000,  0.0000)
  12 Hg     3.603292    0.000000   10.000000    ( 0.0000,  0.0000,  0.0000)
  13 Hg     7.206585    2.080362   12.942076    ( 0.0000,  0.0000,  0.0000)
  14 Hg     5.404939    1.055793   15.866715    ( 0.0000,  0.0000,  0.0000)
  15 Hg     9.023557    3.094121   18.938926    ( 0.0000,  0.0000,  0.0000)
  16 Hg     5.404939    3.120543   10.000000    ( 0.0000,  0.0000,  0.0000)
  17 Hg     9.008231    5.200905   12.942076    ( 0.0000,  0.0000,  0.0000)
  18 Hg     7.193064    4.152917   15.866715    ( 0.0000,  0.0000,  0.0000)
  19 Hg    10.809877    6.241086   18.929682    ( 0.0000,  0.0000,  0.0000)
  20 Hg     7.206585    6.241086   10.000000    ( 0.0000,  0.0000,  0.0000)
  21 Hg    10.809877    8.321447   12.942076    ( 0.0000,  0.0000,  0.0000)
  22 Hg     8.994409    7.289247   15.879143    ( 0.0000,  0.0000,  0.0000)
  23 Hg    12.642068    9.361566   18.938926    ( 0.0000,  0.0000,  0.0000)
  24 Hg     7.206585    0.000000   10.000000    ( 0.0000,  0.0000,  0.0000)
  25 Hg    10.809877    2.080362   12.942076    ( 0.0000,  0.0000,  0.0000)
  26 Hg     9.000864    1.044434   15.886304    ( 0.0000,  0.0000,  0.0000)
  27 Hg    12.596197    3.094121   18.938926    ( 0.0000,  0.0000,  0.0000)
  28 Hg     9.008231    3.120543   10.000000    ( 0.0000,  0.0000,  0.0000)
  29 Hg    12.611524    5.200905   12.942076    ( 0.0000,  0.0000,  0.0000)
  30 Hg    10.809877    4.144763   15.879143    ( 0.0000,  0.0000,  0.0000)
  31 Hg    14.428388    6.267569   18.938926    ( 0.0000,  0.0000,  0.0000)
  32 Hg    10.809877    6.241086   10.000000    ( 0.0000,  0.0000,  0.0000)
  33 Hg    14.413170    8.321447   12.942076    ( 0.0000,  0.0000,  0.0000)
  34 Hg    12.625346    7.289247   15.879143    ( 0.0000,  0.0000,  0.0000)
  35 Hg    16.214816    9.361628   18.940525    ( 0.0000,  0.0000,  0.0000)
  36 H     10.870257    3.713061   22.365659    ( 0.0000,  0.0000,  0.0000)
  37 O     10.864319    3.189682   21.669852    ( 0.0000,  0.0000,  0.0000)
  38 C     10.828307    3.987100   20.636684    ( 0.0000,  0.0000,  0.0000)
  39 C     10.741235    5.434767   21.016702    ( 0.0000,  0.0000,  0.0000)
  40 O     10.859657    6.348105   22.110636    ( 0.0000,  0.0000,  0.0000)

Unit cell:
           periodic     x           y           z      points  spacing
  1. axis:    yes   10.809877    0.000000    0.000000    52     0.1800
  2. axis:    yes    5.404939    9.361628    0.000000    52     0.1800
  3. axis:    no     0.000000    0.000000   28.826228   160     0.1802

  Lengths:  10.809877  10.809877  28.826228
  Angles:   90.000000  90.000000  60.000000

Effective grid spacing dv^(1/3) = 0.1889

     iter     time        total  log10-change:
                         energy  eigst   dens
iter:   1 02:13:43 -12291.282712  -1.84
iter:   2 02:14:37 -12291.286634  -2.84  -3.23
iter:   3 02:15:30 -12291.282904c -3.48  -3.30
iter:   4 02:16:24 -12291.281688c -3.79  -3.48
iter:   5 02:17:17 -12291.282334c -4.10  -3.56
iter:   6 02:18:11 -12291.281421c -4.53  -3.70
iter:   7 02:19:04 -12291.280996c -5.10  -3.91
iter:   8 02:19:58 -12291.280969c -5.45  -4.07c
iter:   9 02:20:51 -12291.281097c -5.72  -4.14c
iter:  10 02:21:45 -12291.281126c -6.02  -4.27c
iter:  11 02:22:38 -12291.281128c -6.22  -4.45c
iter:  12 02:23:32 -12291.281132c -6.68  -4.57c
iter:  13 02:24:25 -12291.281143c -7.28  -4.80c
iter:  14 02:25:19 -12291.281163c -6.96  -4.84c
iter:  15 02:26:12 -12291.281136c -7.23  -4.97c
iter:  16 02:27:06 -12291.281128c -7.98c -5.03c

Converged after 16 iterations.

Dipole moment: (-20.166662, -11.884101, -0.492974) |e|*Ang

Energy contributions relative to reference atoms: (reference = -19199757.485185)

Kinetic:       +2064.092085
Potential:     -1848.258699
External:        +0.000000
XC:            -12421.085392
Entropy (-ST):   -0.214694
Local:          -85.921775
--------------------------
Free energy:   -12291.388475
Extrapolated:  -12291.281128

Showing only first 2 kpts
 Kpt  Band  Eigenvalues  Occupancy
  0   332     -5.47569    1.99578
  0   333     -5.12647    1.87013
  0   334     -4.89944    1.19594
  0   335     -4.47626    0.04230

  1   332     -5.47196    1.99562
  1   333     -5.07726    1.79600
  1   334     -4.88488    1.12501
  1   335     -4.45681    0.03495


Fermi level: -4.85974

No gap

Forces in eV/Ang:
  0 Hg    0.00103    0.00458   -0.08256
  1 Hg   -0.02350   -0.01044    0.00107
  2 Hg   -0.01645    0.02710    0.07542
  3 Hg    0.00598    0.00929    0.07635
  4 Hg   -0.01478   -0.02297   -0.08792
  5 Hg    0.00130    0.01598    0.01085
  6 Hg   -0.02051   -0.00893    0.04787
  7 Hg   -0.00070   -0.02609    0.00389
  8 Hg    0.01241    0.01841   -0.08147
  9 Hg    0.00001    0.00113    0.01571
 10 Hg    0.00197   -0.00085    0.05004
 11 Hg    0.01981   -0.00877    0.02167
 12 Hg   -0.02774    0.00323   -0.08023
 13 Hg    0.02567   -0.01180    0.00330
 14 Hg    0.00286    0.01771    0.03764
 15 Hg   -0.14187    0.00552   -0.15834
 16 Hg   -0.00107    0.00010   -0.08060
 17 Hg    0.01528   -0.00638    0.03100
 18 Hg    0.02704   -0.01102    0.04946
 19 Hg   -0.02543    0.60509   -0.45285
 20 Hg   -0.01260    0.01970   -0.08082
 21 Hg    0.00124   -0.00844    0.03870
 22 Hg    0.04163   -0.03107    0.10109
 23 Hg   -0.02078   -0.00832    0.02335
 24 Hg    0.02738    0.00181   -0.08048
 25 Hg   -0.00112    0.01460   -0.00105
 26 Hg    0.01673    0.03395    0.07691
 27 Hg    0.26122   -0.06285   -0.28680
 28 Hg    0.01633   -0.02271   -0.08661
 29 Hg   -0.01627   -0.00575    0.03144
 30 Hg   -0.00058    0.00901    0.09140
 31 Hg   -0.00876   -0.02864    0.00975
 32 Hg    0.00063   -0.00576   -0.07356
 33 Hg   -0.00036    0.00268    0.01604
 34 Hg   -0.04560   -0.02668    0.10300
 35 Hg    0.00316    0.04804   -0.00230
 36 H     0.07363    3.45330    6.21886
 37 O    -0.07667   -5.11330   -3.33071
 38 C    -0.19522    3.75456   -0.96901
 39 C     0.56939    2.37288    4.21960
 40 O    -0.49133   -5.00383   -5.63262

BFGS:    6 02:27:21   -12291.281128        2.8940
System changes: positions 

Initializing position-dependent things.

Density initialized from wave functions
                                                              
                                                              
                                                              
                                                              
                                                              
                                                              
                                      O                       
                                    H                         
                                   HOC      Hg       Hg       
                                    C                         
                             Hg       Hg       Hg             
                                                              
                      Hg       Hg       Hg                    
                         Hg       Hg       Hg                 
                                                              
                   Hg      Hg       Hg                        
                              Hg       Hg       Hg            
            Hg       Hg       Hg                              
                        Hg       Hg      Hg                   
                                                              
                 Hg       Hg       Hg                         
                    Hg       Hg       Hg                      
             Hg       Hg       Hg                             
                                                              
       Hg       Hg       Hg                                   
                                                              
                                                              
                                                              
                                                              

Positions:
   0 Hg     0.000000    0.000000   10.000000    ( 0.0000,  0.0000,  0.0000)
   1 Hg     3.603292    2.080362   12.942076    ( 0.0000,  0.0000,  0.0000)
   2 Hg     1.809013    1.044434   15.886304    ( 0.0000,  0.0000,  0.0000)
   3 Hg     5.404939    3.120543   18.930235    ( 0.0000,  0.0000,  0.0000)
   4 Hg     1.801646    3.120543   10.000000    ( 0.0000,  0.0000,  0.0000)
   5 Hg     5.404939    5.200905   12.942076    ( 0.0000,  0.0000,  0.0000)
   6 Hg     3.616813    4.152917   15.866715    ( 0.0000,  0.0000,  0.0000)
   7 Hg     7.191366    6.267569   18.938926    ( 0.0000,  0.0000,  0.0000)
   8 Hg     3.603292    6.241086   10.000000    ( 0.0000,  0.0000,  0.0000)
   9 Hg     7.206585    8.321447   12.942076    ( 0.0000,  0.0000,  0.0000)
  10 Hg     5.404939    7.272760   15.886304    ( 0.0000,  0.0000,  0.0000)
  11 Hg     8.977686    9.361566   18.938926    ( 0.0000,  0.0000,  0.0000)
  12 Hg     3.603292    0.000000   10.000000    ( 0.0000,  0.0000,  0.0000)
  13 Hg     7.206585    2.080362   12.942076    ( 0.0000,  0.0000,  0.0000)
  14 Hg     5.404939    1.055793   15.866715    ( 0.0000,  0.0000,  0.0000)
  15 Hg     9.023557    3.094121   18.938926    ( 0.0000,  0.0000,  0.0000)
  16 Hg     5.404939    3.120543   10.000000    ( 0.0000,  0.0000,  0.0000)
  17 Hg     9.008231    5.200905   12.942076    ( 0.0000,  0.0000,  0.0000)
  18 Hg     7.193064    4.152917   15.866715    ( 0.0000,  0.0000,  0.0000)
  19 Hg    10.809877    6.241086   18.929682    ( 0.0000,  0.0000,  0.0000)
  20 Hg     7.206585    6.241086   10.000000    ( 0.0000,  0.0000,  0.0000)
  21 Hg    10.809877    8.321447   12.942076    ( 0.0000,  0.0000,  0.0000)
  22 Hg     8.994409    7.289247   15.879143    ( 0.0000,  0.0000,  0.0000)
  23 Hg    12.642068    9.361566   18.938926    ( 0.0000,  0.0000,  0.0000)
  24 Hg     7.206585    0.000000   10.000000    ( 0.0000,  0.0000,  0.0000)
  25 Hg    10.809877    2.080362   12.942076    ( 0.0000,  0.0000,  0.0000)
  26 Hg     9.000864    1.044434   15.886304    ( 0.0000,  0.0000,  0.0000)
  27 Hg    12.596197    3.094121   18.938926    ( 0.0000,  0.0000,  0.0000)
  28 Hg     9.008231    3.120543   10.000000    ( 0.0000,  0.0000,  0.0000)
  29 Hg    12.611524    5.200905   12.942076    ( 0.0000,  0.0000,  0.0000)
  30 Hg    10.809877    4.144763   15.879143    ( 0.0000,  0.0000,  0.0000)
  31 Hg    14.428388    6.267569   18.938926    ( 0.0000,  0.0000,  0.0000)
  32 Hg    10.809877    6.241086   10.000000    ( 0.0000,  0.0000,  0.0000)
  33 Hg    14.413170    8.321447   12.942076    ( 0.0000,  0.0000,  0.0000)
  34 Hg    12.625346    7.289247   15.879143    ( 0.0000,  0.0000,  0.0000)
  35 Hg    16.214816    9.361628   18.940525    ( 0.0000,  0.0000,  0.0000)
  36 H     10.870528    3.694863   22.428434    ( 0.0000,  0.0000,  0.0000)
  37 O     10.863913    3.160637   21.741038    ( 0.0000,  0.0000,  0.0000)
  38 C     10.820635    3.946211   20.699329    ( 0.0000,  0.0000,  0.0000)
  39 C     10.722481    5.407283   21.023746    ( 0.0000,  0.0000,  0.0000)
  40 O     10.869702    6.321946   22.113066    ( 0.0000,  0.0000,  0.0000)

Unit cell:
           periodic     x           y           z      points  spacing
  1. axis:    yes   10.809877    0.000000    0.000000    52     0.1800
  2. axis:    yes    5.404939    9.361628    0.000000    52     0.1800
  3. axis:    no     0.000000    0.000000   28.826228   160     0.1802

  Lengths:  10.809877  10.809877  28.826228
  Angles:   90.000000  90.000000  60.000000

Effective grid spacing dv^(1/3) = 0.1889

     iter     time        total  log10-change:
                         energy  eigst   dens
iter:   1 02:29:01 -12291.375887  -1.73
iter:   2 02:29:54 -12291.363614  -2.73  -2.96
iter:   3 02:30:48 -12291.357478c -3.36  -3.18
iter:   4 02:31:41 -12291.353160c -3.55  -3.36
iter:   5 02:32:34 -12291.353745c -3.91  -3.54
iter:   6 02:33:28 -12291.352076c -4.41  -3.54
iter:   7 02:34:21 -12291.352384c -4.76  -3.80
iter:   8 02:35:15 -12291.351880c -5.26  -3.92
iter:   9 02:36:08 -12291.351817c -5.41  -4.05c
iter:  10 02:37:01 -12291.352114c -5.86  -4.12c
iter:  11 02:37:55 -12291.352170c -6.07  -4.43c
iter:  12 02:38:48 -12291.352111c -6.64  -4.46c
iter:  13 02:39:42 -12291.352088c -6.83  -4.59c
iter:  14 02:40:35 -12291.352021c -7.07  -4.69c
iter:  15 02:41:28 -12291.352005c -7.26  -4.98c
iter:  16 02:42:22 -12291.352012c -7.54c -5.07c

Converged after 16 iterations.

Dipole moment: (-20.174177, -11.880015, -0.490712) |e|*Ang

Energy contributions relative to reference atoms: (reference = -19199757.485185)

Kinetic:       +2062.679394
Potential:     -1847.161822
External:        +0.000000
XC:            -12420.835022
Entropy (-ST):   -0.219801
Local:          -85.924661
--------------------------
Free energy:   -12291.461913
Extrapolated:  -12291.352012

Showing only first 2 kpts
 Kpt  Band  Eigenvalues  Occupancy
  0   332     -5.47705    1.99609
  0   333     -5.11596    1.86477
  0   334     -4.88838    1.17235
  0   335     -4.49147    0.05212

  1   332     -5.47293    1.99592
  1   333     -5.07464    1.80241
  1   334     -4.87444    1.10400
  1   335     -4.47927    0.04627


Fermi level: -4.85357

No gap

Forces in eV/Ang:
  0 Hg    0.00109    0.00480   -0.08261
  1 Hg   -0.02356   -0.01035    0.00149
  2 Hg   -0.01518    0.02518    0.07445
  3 Hg    0.00814    0.00732    0.07732
  4 Hg   -0.01510   -0.02269   -0.08808
  5 Hg    0.00128    0.01568    0.01172
  6 Hg   -0.01980   -0.00851    0.04726
  7 Hg   -0.00218   -0.02610    0.00420
  8 Hg    0.01196    0.01803   -0.08117
  9 Hg    0.00122    0.00049    0.01710
 10 Hg    0.00206   -0.00155    0.05089
 11 Hg    0.02317   -0.01154    0.02033
 12 Hg   -0.02752    0.00312   -0.08001
 13 Hg    0.02576   -0.01206    0.00401
 14 Hg    0.00337    0.01547    0.03849
 15 Hg   -0.08484    0.01797   -0.09134
 16 Hg   -0.00110    0.00005   -0.08053
 17 Hg    0.01667   -0.00582    0.03149
 18 Hg    0.02838   -0.01083    0.05070
 19 Hg   -0.03268    0.45735   -0.29896
 20 Hg   -0.01210    0.01937   -0.08074
 21 Hg    0.00132   -0.00969    0.04048
 22 Hg    0.04277   -0.03111    0.10055
 23 Hg   -0.02409   -0.00966    0.02238
 24 Hg    0.02727    0.00154   -0.08035
 25 Hg   -0.00089    0.01592   -0.00180
 26 Hg    0.01587    0.03386    0.07725
 27 Hg    0.21309   -0.05569   -0.23412
 28 Hg    0.01680   -0.02242   -0.08689
 29 Hg   -0.01755   -0.00540    0.03200
 30 Hg   -0.00093    0.00891    0.08572
 31 Hg   -0.00852   -0.02881    0.01041
 32 Hg    0.00073   -0.00623   -0.07318
 33 Hg   -0.00153    0.00191    0.01718
 34 Hg   -0.04759   -0.02561    0.10240
 35 Hg    0.00374    0.04454   -0.00037
 36 H     0.07593    3.59176    6.21761
 37 O    -0.10376   -4.87706   -3.44386
 38 C    -0.17405    3.64517   -1.39543
 39 C     0.68453    2.22665    4.39126
 40 O    -0.60609   -4.93901   -5.57314

BFGS:    7 02:42:38   -12291.352012        2.6188
System changes: positions 

[...]
iter:  10 00:07:21 -12289.974435c -7.88c -5.17c

Converged after 10 iterations.

Dipole moment: (-20.630205, -11.932130, -0.413146) |e|*Ang

Energy contributions relative to reference atoms: (reference = -19199757.485185)

Kinetic:       +2073.110613
Potential:     -1853.950783
External:        +0.000000
XC:            -12423.164918
Entropy (-ST):   -0.213425
Local:          -85.862635
--------------------------
Free energy:   -12290.081148
Extrapolated:  -12289.974435

Showing only first 2 kpts
 Kpt  Band  Eigenvalues  Occupancy
  0   332     -5.47135    1.99919
  0   333     -5.19160    1.98675
  0   334     -4.69932    1.04361
  0   335     -4.46081    0.18261

  1   332     -5.45870    1.99908
  1   333     -5.18740    1.98618
  1   334     -4.61136    0.62334
  1   335     -4.43768    0.14768


Fermi level: -4.69059

No gap

Forces in eV/Ang:
  0 Hg    0.00204    0.00201   -0.07894
  1 Hg   -0.01794   -0.01124    0.00301
  2 Hg   -0.00959    0.01051    0.05445
  3 Hg    0.05027    0.00547    0.06322
  4 Hg   -0.01330   -0.02194   -0.08308
  5 Hg    0.00407    0.01682    0.01319
  6 Hg   -0.00286   -0.00415    0.03146
  7 Hg   -0.03734   -0.00454   -0.00519
  8 Hg    0.01337    0.02100   -0.07906
  9 Hg    0.00527   -0.00395    0.01794
 10 Hg   -0.00050   -0.00203    0.04183
 11 Hg    0.03276   -0.02503    0.01348
 12 Hg   -0.02463   -0.00062   -0.07929
 13 Hg    0.02221   -0.01209    0.00782
 14 Hg    0.00974    0.01392    0.03376
 15 Hg   -0.61920   -0.12435   -1.07137
 16 Hg    0.00140    0.00034   -0.07844
 17 Hg    0.01591    0.00080    0.03711
 18 Hg    0.03130   -0.00992    0.06853
 19 Hg    0.25444    1.80401   -3.06813
 20 Hg   -0.01024    0.02114   -0.07902
 21 Hg    0.00135   -0.01345    0.03841
 22 Hg    0.05327   -0.03319    0.10689
 23 Hg   -0.01778    0.01281    0.01219
 24 Hg    0.02619   -0.00036   -0.08041
 25 Hg    0.00058    0.01418    0.00830
 26 Hg    0.01818    0.05106    0.09275
 27 Hg    0.32859   -0.18800   -0.16059
 28 Hg    0.01553   -0.02271   -0.07973
 29 Hg   -0.01759    0.00139    0.03867
 30 Hg    0.00405    0.02145    0.08930
 31 Hg   -0.02795   -0.03451    0.01682
 32 Hg    0.00131   -0.00193   -0.07336
 33 Hg   -0.00554    0.00159    0.02364
 34 Hg   -0.06264   -0.03200    0.10508
 35 Hg    0.00888    0.03398   -0.01241
 36 H    -9.41295    5.84950   12.52571
 37 O     9.29009   -6.68023  -10.15879
 38 C     1.48386    4.16616   -0.86982
 39 C     1.65623   -1.60581    7.46759
 40 O    -3.13752   -3.25722   -5.09037

BFGS:  228 00:07:36   -12289.974435        4.2922
System changes: positions 

Initializing position-dependent things.

Density initialized from wave functions
                                                              
                                                              
                                                              
                                                              
                                                              
                                                              
                                       O                      
                                 H                            
                                  OHgC      Hg       Hg       
                             Hg    C  Hg       Hg             
                                                              
                      Hg       Hg       Hg                    
                                                              
                         Hg       Hg       Hg                 
                                                              
                   Hg      Hg       Hg                        
            Hg       Hg       Hg       Hg       Hg            
                                                              
                        Hg       Hg      Hg                   
                 Hg       Hg       Hg                         
                                                              
                    Hg       Hg       Hg                      
             Hg       Hg       Hg                             
                                                              
       Hg       Hg       Hg                                   
                                                              
                                                              
                                                              
                                                              

Positions:
   0 Hg     0.000000    0.000000   10.000000    ( 0.0000,  0.0000,  0.0000)
   1 Hg     3.603292    2.080362   12.942076    ( 0.0000,  0.0000,  0.0000)
   2 Hg     1.809013    1.044434   15.886304    ( 0.0000,  0.0000,  0.0000)
   3 Hg     5.404939    3.120543   18.930235    ( 0.0000,  0.0000,  0.0000)
   4 Hg     1.801646    3.120543   10.000000    ( 0.0000,  0.0000,  0.0000)
   5 Hg     5.404939    5.200905   12.942076    ( 0.0000,  0.0000,  0.0000)
   6 Hg     3.616813    4.152917   15.866715    ( 0.0000,  0.0000,  0.0000)
   7 Hg     7.191366    6.267569   18.938926    ( 0.0000,  0.0000,  0.0000)
   8 Hg     3.603292    6.241086   10.000000    ( 0.0000,  0.0000,  0.0000)
   9 Hg     7.206585    8.321447   12.942076    ( 0.0000,  0.0000,  0.0000)
  10 Hg     5.404939    7.272760   15.886304    ( 0.0000,  0.0000,  0.0000)
  11 Hg     8.977686    9.361566   18.938926    ( 0.0000,  0.0000,  0.0000)
  12 Hg     3.603292    0.000000   10.000000    ( 0.0000,  0.0000,  0.0000)
  13 Hg     7.206585    2.080362   12.942076    ( 0.0000,  0.0000,  0.0000)
  14 Hg     5.404939    1.055793   15.866715    ( 0.0000,  0.0000,  0.0000)
  15 Hg     9.023557    3.094121   18.938926    ( 0.0000,  0.0000,  0.0000)
  16 Hg     5.404939    3.120543   10.000000    ( 0.0000,  0.0000,  0.0000)
  17 Hg     9.008231    5.200905   12.942076    ( 0.0000,  0.0000,  0.0000)
  18 Hg     7.193064    4.152917   15.866715    ( 0.0000,  0.0000,  0.0000)
  19 Hg    10.809877    6.241086   18.929682    ( 0.0000,  0.0000,  0.0000)
  20 Hg     7.206585    6.241086   10.000000    ( 0.0000,  0.0000,  0.0000)
  21 Hg    10.809877    8.321447   12.942076    ( 0.0000,  0.0000,  0.0000)
  22 Hg     8.994409    7.289247   15.879143    ( 0.0000,  0.0000,  0.0000)
  23 Hg    12.642068    9.361566   18.938926    ( 0.0000,  0.0000,  0.0000)
  24 Hg     7.206585    0.000000   10.000000    ( 0.0000,  0.0000,  0.0000)
  25 Hg    10.809877    2.080362   12.942076    ( 0.0000,  0.0000,  0.0000)
  26 Hg     9.000864    1.044434   15.886304    ( 0.0000,  0.0000,  0.0000)
  27 Hg    12.596197    3.094121   18.938926    ( 0.0000,  0.0000,  0.0000)
  28 Hg     9.008231    3.120543   10.000000    ( 0.0000,  0.0000,  0.0000)
  29 Hg    12.611524    5.200905   12.942076    ( 0.0000,  0.0000,  0.0000)
  30 Hg    10.809877    4.144763   15.879143    ( 0.0000,  0.0000,  0.0000)
  31 Hg    14.428388    6.267569   18.938926    ( 0.0000,  0.0000,  0.0000)
  32 Hg    10.809877    6.241086   10.000000    ( 0.0000,  0.0000,  0.0000)
  33 Hg    14.413170    8.321447   12.942076    ( 0.0000,  0.0000,  0.0000)
  34 Hg    12.625346    7.289247   15.879143    ( 0.0000,  0.0000,  0.0000)
  35 Hg    16.214816    9.361628   18.940525    ( 0.0000,  0.0000,  0.0000)
  36 H      9.657477    3.350551   22.096277    ( 0.0000,  0.0000,  0.0000)
  37 O     10.122346    3.073062   21.514962    ( 0.0000,  0.0000,  0.0000)
  38 C     10.318423    3.915922   20.531892    ( 0.0000,  0.0000,  0.0000)
  39 C     10.670668    5.387398   20.707528    ( 0.0000,  0.0000,  0.0000)
  40 O     11.321236    6.047483   21.796540    ( 0.0000,  0.0000,  0.0000)

Unit cell:
           periodic     x           y           z      points  spacing
  1. axis:    yes   10.809877    0.000000    0.000000    52     0.1800
  2. axis:    yes    5.404939    9.361628    0.000000    52     0.1800
  3. axis:    no     0.000000    0.000000   28.826228   160     0.1802

  Lengths:  10.809877  10.809877  28.826228
  Angles:   90.000000  90.000000  60.000000

Effective grid spacing dv^(1/3) = 0.1889

     iter     time        total  log10-change:
                         energy  eigst   dens
iter:   1 00:09:15 -12289.987478  -3.94
iter:   2 00:10:08 -12289.987391  -4.72  -4.24c
iter:   3 00:11:02 -12289.987258c -5.18  -4.34c
iter:   4 00:11:55 -12289.987241c -5.42  -4.40c
iter:   5 00:12:48 -12289.987249c -5.85  -4.56c
iter:   6 00:13:42 -12289.987224c -6.27  -4.63c
iter:   7 00:14:35 -12289.987241c -6.63  -4.77c
iter:   8 00:15:28 -12289.987236c -7.22  -4.99c
iter:   9 00:16:21 -12289.987232c -7.49c -5.08c

Converged after 9 iterations.

Dipole moment: (-20.633527, -11.930733, -0.417434) |e|*Ang

Energy contributions relative to reference atoms: (reference = -19199757.485185)

Kinetic:       +2072.949696
Potential:     -1853.821221
External:        +0.000000
XC:            -12423.145655
Entropy (-ST):   -0.214510
Local:          -85.862797
--------------------------
Free energy:   -12290.094487
Extrapolated:  -12289.987232

Showing only first 2 kpts
 Kpt  Band  Eigenvalues  Occupancy
  0   332     -5.47391    1.99919
  0   333     -5.19226    1.98656
  0   334     -4.70147    1.04389
  0   335     -4.46333    0.18332

  1   332     -5.46100    1.99908
  1   333     -5.18731    1.98588
  1   334     -4.61284    0.62071
  1   335     -4.44317    0.15240


Fermi level: -4.69268

No gap

Forces in eV/Ang:
  0 Hg    0.00203    0.00200   -0.08035
  1 Hg   -0.01799   -0.01138    0.00044
  2 Hg   -0.01042    0.01068    0.05338
  3 Hg    0.05295    0.00542    0.06302
  4 Hg   -0.01328   -0.02195   -0.08431
  5 Hg    0.00436    0.01658    0.01087
  6 Hg   -0.00254   -0.00422    0.03037
  7 Hg   -0.03826   -0.00377   -0.00627
  8 Hg    0.01333    0.02098   -0.08033
  9 Hg    0.00535   -0.00411    0.01534
 10 Hg   -0.00018   -0.00230    0.04095
 11 Hg    0.03380   -0.02603    0.01336
 12 Hg   -0.02466   -0.00063   -0.08057
 13 Hg    0.02235   -0.01181    0.00587
 14 Hg    0.01073    0.01459    0.03330
 15 Hg   -0.62681   -0.13413   -1.07380
 16 Hg    0.00134    0.00027   -0.07978
 17 Hg    0.01580    0.00065    0.03536
 18 Hg    0.03229   -0.01074    0.06937
 19 Hg    0.25362    1.80031   -3.05685
 20 Hg   -0.01029    0.02114   -0.08027
 21 Hg    0.00124   -0.01356    0.03606
 22 Hg    0.05297   -0.03386    0.10619
 23 Hg   -0.01673    0.01543    0.01248
 24 Hg    0.02618   -0.00038   -0.08178
 25 Hg    0.00034    0.01428    0.00629
 26 Hg    0.01720    0.05279    0.09393
 27 Hg    0.32545   -0.18413   -0.15809
 28 Hg    0.01554   -0.02281   -0.08087
 29 Hg   -0.01773    0.00128    0.03612
 30 Hg    0.00255    0.02076    0.08894
 31 Hg   -0.02821   -0.03454    0.01755
 32 Hg    0.00138   -0.00194   -0.07444
 33 Hg   -0.00553    0.00184    0.02126
 34 Hg   -0.06280   -0.03191    0.10410
 35 Hg    0.00737    0.03562   -0.01227
 36 H    -9.35848    5.79049   12.39643
 37 O     9.21611   -6.62521  -10.01268
 38 C     1.52292    4.19556   -0.86406
 39 C     1.64372   -1.60715    7.44914
 40 O    -3.13724   -3.26448   -5.09164

BFGS:  229 00:16:36   -12289.987232        4.2732
System changes: positions 

Initializing position-dependent things.

Density initialized from wave functions
                                                              
                                                              
                                                              
                                                              
                                                              
                                                              
                                       O                      
                                 H                            
                                  OHgC      Hg       Hg       
                             Hg    C  Hg       Hg             
                                                              
                      Hg       Hg       Hg                    
                                                              
                         Hg       Hg       Hg                 
                                                              
                   Hg      Hg       Hg                        
            Hg       Hg       Hg       Hg       Hg            
                                                              
                        Hg       Hg      Hg                   
                 Hg       Hg       Hg                         
                                                              
                    Hg       Hg       Hg                      
             Hg       Hg       Hg                             
                                                              
       Hg       Hg       Hg                                   
                                                              
                                                              
                                                              
                                                              

Positions:
   0 Hg     0.000000    0.000000   10.000000    ( 0.0000,  0.0000,  0.0000)
   1 Hg     3.603292    2.080362   12.942076    ( 0.0000,  0.0000,  0.0000)
   2 Hg     1.809013    1.044434   15.886304    ( 0.0000,  0.0000,  0.0000)
   3 Hg     5.404939    3.120543   18.930235    ( 0.0000,  0.0000,  0.0000)
   4 Hg     1.801646    3.120543   10.000000    ( 0.0000,  0.0000,  0.0000)
   5 Hg     5.404939    5.200905   12.942076    ( 0.0000,  0.0000,  0.0000)
   6 Hg     3.616813    4.152917   15.866715    ( 0.0000,  0.0000,  0.0000)
   7 Hg     7.191366    6.267569   18.938926    ( 0.0000,  0.0000,  0.0000)
   8 Hg     3.603292    6.241086   10.000000    ( 0.0000,  0.0000,  0.0000)
   9 Hg     7.206585    8.321447   12.942076    ( 0.0000,  0.0000,  0.0000)
  10 Hg     5.404939    7.272760   15.886304    ( 0.0000,  0.0000,  0.0000)
  11 Hg     8.977686    9.361566   18.938926    ( 0.0000,  0.0000,  0.0000)
  12 Hg     3.603292    0.000000   10.000000    ( 0.0000,  0.0000,  0.0000)
  13 Hg     7.206585    2.080362   12.942076    ( 0.0000,  0.0000,  0.0000)
  14 Hg     5.404939    1.055793   15.866715    ( 0.0000,  0.0000,  0.0000)
  15 Hg     9.023557    3.094121   18.938926    ( 0.0000,  0.0000,  0.0000)
  16 Hg     5.404939    3.120543   10.000000    ( 0.0000,  0.0000,  0.0000)
  17 Hg     9.008231    5.200905   12.942076    ( 0.0000,  0.0000,  0.0000)
  18 Hg     7.193064    4.152917   15.866715    ( 0.0000,  0.0000,  0.0000)
  19 Hg    10.809877    6.241086   18.929682    ( 0.0000,  0.0000,  0.0000)
  20 Hg     7.206585    6.241086   10.000000    ( 0.0000,  0.0000,  0.0000)
  21 Hg    10.809877    8.321447   12.942076    ( 0.0000,  0.0000,  0.0000)
  22 Hg     8.994409    7.289247   15.879143    ( 0.0000,  0.0000,  0.0000)
  23 Hg    12.642068    9.361566   18.938926    ( 0.0000,  0.0000,  0.0000)
  24 Hg     7.206585    0.000000   10.000000    ( 0.0000,  0.0000,  0.0000)
  25 Hg    10.809877    2.080362   12.942076    ( 0.0000,  0.0000,  0.0000)
  26 Hg     9.000864    1.044434   15.886304    ( 0.0000,  0.0000,  0.0000)
  27 Hg    12.596197    3.094121   18.938926    ( 0.0000,  0.0000,  0.0000)
  28 Hg     9.008231    3.120543   10.000000    ( 0.0000,  0.0000,  0.0000)
  29 Hg    12.611524    5.200905   12.942076    ( 0.0000,  0.0000,  0.0000)
  30 Hg    10.809877    4.144763   15.879143    ( 0.0000,  0.0000,  0.0000)
  31 Hg    14.428388    6.267569   18.938926    ( 0.0000,  0.0000,  0.0000)
  32 Hg    10.809877    6.241086   10.000000    ( 0.0000,  0.0000,  0.0000)
  33 Hg    14.413170    8.321447   12.942076    ( 0.0000,  0.0000,  0.0000)
  34 Hg    12.625346    7.289247   15.879143    ( 0.0000,  0.0000,  0.0000)
  35 Hg    16.214816    9.361628   18.940525    ( 0.0000,  0.0000,  0.0000)
  36 H      9.661118    3.351437   22.095192    ( 0.0000,  0.0000,  0.0000)
  37 O     10.129399    3.072577   21.515762    ( 0.0000,  0.0000,  0.0000)
  38 C     10.308500    3.917569   20.531071    ( 0.0000,  0.0000,  0.0000)
  39 C     10.671008    5.386510   20.707576    ( 0.0000,  0.0000,  0.0000)
  40 O     11.321148    6.047342   21.796390    ( 0.0000,  0.0000,  0.0000)

Unit cell:
           periodic     x           y           z      points  spacing
  1. axis:    yes   10.809877    0.000000    0.000000    52     0.1800
  2. axis:    yes    5.404939    9.361628    0.000000    52     0.1800
  3. axis:    no     0.000000    0.000000   28.826228   160     0.1802

  Lengths:  10.809877  10.809877  28.826228
  Angles:   90.000000  90.000000  60.000000

Effective grid spacing dv^(1/3) = 0.1889

     iter     time        total  log10-change:
                         energy  eigst   dens
iter:   1 00:18:15 -12290.000853  -3.47
iter:   2 00:19:09 -12290.000784  -4.27  -3.95
iter:   3 00:20:02 -12290.000565c -4.73  -4.06c
iter:   4 00:20:56 -12290.000525c -4.99  -4.18c
iter:   5 00:21:49 -12290.000532c -5.36  -4.30c
iter:   6 00:22:42 -12290.000415c -5.89  -4.38c
iter:   7 00:23:36 -12290.000483c -6.18  -4.52c
iter:   8 00:24:29 -12290.000481c -6.73  -4.76c
iter:   9 00:25:22 -12290.000475c -7.07  -4.86c
iter:  10 00:26:15 -12290.000467c -7.22  -4.92c
iter:  11 00:27:09 -12290.000462c -7.28  -5.18c
iter:  12 00:28:02 -12290.000463c -7.93c -5.15c

Converged after 12 iterations.

Dipole moment: (-20.637966, -11.929442, -0.425503) |e|*Ang

Energy contributions relative to reference atoms: (reference = -19199757.485185)

Kinetic:       +2072.858010
Potential:     -1853.757899
External:        +0.000000
XC:            -12423.131726
Entropy (-ST):   -0.216262
Local:          -85.860717
--------------------------
Free energy:   -12290.108594
Extrapolated:  -12290.000463

Showing only first 2 kpts
 Kpt  Band  Eigenvalues  Occupancy
  0   332     -5.47764    1.99920
  0   333     -5.19218    1.98617
  0   334     -4.70446    1.04511
  0   335     -4.46643    0.18391

  1   332     -5.46447    1.99909
  1   333     -5.18584    1.98528
  1   334     -4.61468    0.61687
  1   335     -4.45122    0.16003


Fermi level: -4.69543

No gap

Forces in eV/Ang:
  0 Hg    0.00197    0.00191   -0.07925
  1 Hg   -0.01779   -0.01150    0.00264
  2 Hg   -0.00948    0.00971    0.05352
  3 Hg    0.04664    0.00527    0.06417
  4 Hg   -0.01315   -0.02200   -0.08344
  5 Hg    0.00430    0.01649    0.01293
  6 Hg   -0.00254   -0.00428    0.03099
  7 Hg   -0.04017   -0.00089   -0.00350
  8 Hg    0.01349    0.02097   -0.07939
  9 Hg    0.00499   -0.00397    0.01761
 10 Hg   -0.00133   -0.00140    0.04103
 11 Hg    0.03227   -0.02304    0.01460
 12 Hg   -0.02465   -0.00056   -0.07967
 13 Hg    0.02197   -0.01195    0.00749
 14 Hg    0.00911    0.01394    0.03246
 15 Hg   -0.63331   -0.13556   -1.07770
 16 Hg    0.00137    0.00025   -0.07884
 17 Hg    0.01530    0.00062    0.03617
 18 Hg    0.02849   -0.00962    0.06518
 19 Hg    0.25079    1.79654   -3.04455
 20 Hg   -0.01045    0.02109   -0.07935
 21 Hg    0.00149   -0.01292    0.03818
 22 Hg    0.05217   -0.03035    0.10443
 23 Hg   -0.01787    0.01056    0.01240
 24 Hg    0.02621   -0.00022   -0.08083
 25 Hg    0.00048    0.01374    0.00808
 26 Hg    0.01739    0.04835    0.09112
 27 Hg    0.32900   -0.18612   -0.15746
 28 Hg    0.01537   -0.02297   -0.07992
 29 Hg   -0.01714    0.00125    0.03809
 30 Hg    0.00577    0.02122    0.08636
 31 Hg   -0.02865   -0.03382    0.01818
 32 Hg    0.00138   -0.00190   -0.07374
 33 Hg   -0.00546    0.00191    0.02388
 34 Hg   -0.06149   -0.03146    0.10513
 35 Hg    0.00939    0.03347   -0.01042
 36 H    -9.31354    5.70207   12.24046
 37 O     9.16802   -6.55441   -9.83250
 38 C     1.56836    4.24097   -0.88742
 39 C     1.61340   -1.60436    7.41181
 40 O    -3.13855   -3.27531   -5.09325

BFGS:  230 00:28:17   -12290.000463        4.2430
srun: Job step aborted: Waiting up to 32 seconds for job step to finish.
slurmstepd: error: *** JOB 6733453 ON a121 CANCELLED AT 2023-10-07T00:28:46 DUE TO TIME LIMIT ***
slurmstepd: error: *** STEP 6733453.0 ON a121 CANCELLED AT 2023-10-07T00:28:46 DUE TO TIME LIMIT ***
