
  ___ ___ ___ _ _ _  
 |   |   |_  | | | | 
 | | | | | . | | | | 
 |__ |  _|___|_____|  22.8.0
 |___|_|             

User:   s204775@c068.nifl.fysik.dtu.dk
Date:   Fri Sep 29 01:35:59 2023
Arch:   x86_64
Pid:    26727
CWD:    /home/cat/s204775/projects/Bachelor_project/OCCOH_missing_features
Python: 3.10.4
gpaw:   /home/modules/software/GPAW/22.8.0-intel-2022a/lib/python3.10/site-packages/gpaw
_gpaw:  /home/modules/software/GPAW/22.8.0-intel-2022a/lib/python3.10/site-packages/
        _gpaw.cpython-310-x86_64-linux-gnu.so
ase:    /home/modules/software/ASE/3.22.1-intel-2022a/lib/python3.10/site-packages/ase (version 3.22.1)
numpy:  /home/modules/software/SciPy-bundle/2022.05-intel-2022a/lib/python3.10/site-packages/numpy (version 1.22.3)
scipy:  /home/modules/software/SciPy-bundle/2022.05-intel-2022a/lib/python3.10/site-packages/scipy (version 1.8.1)
libxc:  5.2.3
units:  Angstrom and eV
cores: 40
OpenMP: False
OMP_NUM_THREADS: 1

Input parameters:
  basis: dzp
  h: 0.18
  kpts: {size: (4, 4, 1)}
  xc: BEEF-vdW

System changes: positions, numbers, cell, pbc, initial_charges, initial_magmoms 

Initialize ...

species:
  In:
    name: Indium
    id: 4115a36869ad701825fde81bee9eb9d4
    Z: 49.0
    valence: 13
    core: 36
    charge: 0.0
    file: /home/modules/software/GPAW-setups/0.9.20000/In.PBE.gz
    compensation charges: {type: gauss,
                           rc: 0.36,
                           lmax: 2}
    cutoffs: {filter: 2.09,
              core: 2.48}
    valence states:
      #              energy  rcut
      - 5s(2.00)    -8.203   1.185
      - 5p(1.00)    -2.521   1.244
      - 4d(10.00)   -18.629   1.148
      -  s          19.008   1.185
      -  p          24.691   1.244
      -  d           8.583   1.148
  
    # LCAO basis set for In:
    #   Name: dzp
    #   File: /home/modules/software/GPAW-setups/0.9.20000/In.dzp.basis.gz
    #   Number of radial functions: 7
    #   Number of spherical harmonics: 23
    #     l=0, rc=7.7188 Bohr: 5s-sz confined orbital
    #     l=1, rc=10.7500 Bohr: 5p-sz confined orbital
    #     l=2, rc=4.4219 Bohr: 4d-sz confined orbital
    #     l=0, rc=4.5312 Bohr: 5s-dz split-valence wave
    #     l=1, rc=6.4688 Bohr: 5p-dz split-valence wave
    #     l=2, rc=2.7344 Bohr: 4d-dz split-valence wave
    #     l=2, rc=10.7500 Bohr: d-type Gaussian polarization
    #   Number of RI-basis functions 0

  H:
    name: Hydrogen
    id: d65de229564ff8ea4db303e23b6d1ecf
    Z: 1.0
    valence: 1
    core: 0
    charge: 0.0
    file: /home/modules/software/GPAW-setups/0.9.20000/H.PBE.gz
    compensation charges: {type: gauss,
                           rc: 0.15,
                           lmax: 2}
    cutoffs: {filter: 0.85,
              core: 0.53}
    valence states:
      #              energy  rcut
      - 1s(1.00)    -6.494   0.476
      -  s          20.717   0.476
      -  p           0.000   0.476
  
    # LCAO basis set for H:
    #   Name: dzp
    #   File: /home/modules/software/GPAW-setups/0.9.20000/H.dzp.basis.gz
    #   Number of radial functions: 3
    #   Number of spherical harmonics: 5
    #     l=0, rc=6.4219 Bohr: 1s-sz confined orbital
    #     l=0, rc=3.6094 Bohr: 1s-dz split-valence wave
    #     l=1, rc=6.4219 Bohr: p-type Gaussian polarization
    #   Number of RI-basis functions 0

  O:
    name: Oxygen
    id: 32ecd46bf208036f09c70b0ec9a88b78
    Z: 8.0
    valence: 6
    core: 2
    charge: 0.0
    file: /home/modules/software/GPAW-setups/0.9.20000/O.PBE.gz
    compensation charges: {type: gauss,
                           rc: 0.21,
                           lmax: 2}
    cutoffs: {filter: 1.17,
              core: 0.83}
    valence states:
      #              energy  rcut
      - 2s(2.00)   -23.961   0.688
      - 2p(4.00)    -9.029   0.598
      -  s           3.251   0.688
      -  p          18.182   0.598
      -  d           0.000   0.619
  
    # LCAO basis set for O:
    #   Name: dzp
    #   File: /home/modules/software/GPAW-setups/0.9.20000/O.dzp.basis.gz
    #   Number of radial functions: 5
    #   Number of spherical harmonics: 13
    #     l=0, rc=4.3438 Bohr: 2s-sz confined orbital
    #     l=1, rc=5.3906 Bohr: 2p-sz confined orbital
    #     l=0, rc=2.2969 Bohr: 2s-dz split-valence wave
    #     l=1, rc=2.8906 Bohr: 2p-dz split-valence wave
    #     l=2, rc=5.3906 Bohr: d-type Gaussian polarization
    #   Number of RI-basis functions 0

  C:
    name: Carbon
    id: 4aa54d4b901d75f77cc0ea3eec22967b
    Z: 6.0
    valence: 4
    core: 2
    charge: 0.0
    file: /home/modules/software/GPAW-setups/0.9.20000/C.PBE.gz
    compensation charges: {type: gauss,
                           rc: 0.20,
                           lmax: 2}
    cutoffs: {filter: 1.14,
              core: 1.14}
    valence states:
      #              energy  rcut
      - 2s(2.00)   -13.751   0.635
      - 2p(2.00)    -5.284   0.635
      -  s          13.461   0.635
      -  p          21.927   0.635
      -  d           0.000   0.635
  
    # LCAO basis set for C:
    #   Name: dzp
    #   File: /home/modules/software/GPAW-setups/0.9.20000/C.dzp.basis.gz
    #   Number of radial functions: 5
    #   Number of spherical harmonics: 13
    #     l=0, rc=5.5469 Bohr: 2s-sz confined orbital
    #     l=1, rc=6.6719 Bohr: 2p-sz confined orbital
    #     l=0, rc=3.0312 Bohr: 2s-dz split-valence wave
    #     l=1, rc=3.7500 Bohr: 2p-dz split-valence wave
    #     l=2, rc=6.6719 Bohr: d-type Gaussian polarization
    #   Number of RI-basis functions 0

Reference energy: -5765264.558761  # eV

Spin-paired calculation

Convergence criteria:
 Maximum [total energy] change in last 3 cyles: 0.0005 eV / electron
 Maximum integral of absolute [dens]ity change: 0.0001 electrons / valence electron
 Maximum integral of absolute [eigenst]ate change: 4e-08 eV^2 / valence electron
 Maximum number of scf [iter]ations: 333
 (Square brackets indicate name in SCF output, whereas a 'c' in
 the SCF output indicates the quantity has converged.)

Symmetries present (total): 1

  ( 1  0  0)
  ( 0  1  0)
  ( 0  0  1)

16 k-points: 4 x 4 x 1 Monkhorst-Pack grid
8 k-points in the irreducible part of the Brillouin zone
       k-points in crystal coordinates                weights
   0:     0.12500000   -0.37500000    0.00000000          2/16
   1:     0.12500000   -0.12500000    0.00000000          2/16
   2:     0.12500000    0.12500000    0.00000000          2/16
   3:     0.12500000    0.37500000    0.00000000          2/16
   4:     0.37500000   -0.37500000    0.00000000          2/16
   5:     0.37500000   -0.12500000    0.00000000          2/16
   6:     0.37500000    0.12500000    0.00000000          2/16
   7:     0.37500000    0.37500000    0.00000000          2/16

Wave functions: Uniform real-space grid
  Kinetic energy operator: 8*3+1=25 point O(h^6) finite-difference Laplacian
  ScaLapack parameters: grid=1x1, blocksize=None
  Wavefunction extrapolation:
    Improved wavefunction reuse through dual PAW basis 

Occupation numbers: Fermi-Dirac:
  width: 0.1000  # eV
 

Eigensolver
   Davidson(niter=2) 

Densities:
  Coarse grid: 48*48*156 grid
  Fine grid: 96*96*312 grid
  Total Charge: 0.000000 

Density mixing:
  Method: separate
  Backend: pulay
  Linear mixing parameter: 0.05
  old densities: 5
  Damping of long wavelength oscillations: 50 

Hamiltonian:
  XC and Coulomb potentials evaluated on a 96*96*312 grid
  Using the BEEF-vdW Exchange-Correlation functional
  Interpolation: tri-quintic (5. degree polynomial)
  Poisson solver: FastPoissonSolver using
    Stencil: 8*3+1=25 point O(h^6) finite-difference Laplacian
    FFT axes: [0, 1]
    FST axes: [2]
 

XC parameters: BEEF-vdW with 2 nearest neighbor stencil

Memory estimate:
  Process memory now: 232.42 MiB
  Calculator: 743.15 MiB
    Density: 56.85 MiB
      Arrays: 14.17 MiB
      Localized functions: 37.23 MiB
      Mixer: 5.45 MiB
    Hamiltonian: 11.69 MiB
      Arrays: 9.26 MiB
      XC: 0.00 MiB
      Poisson: 0.00 MiB
      vbar: 2.42 MiB
    Wavefunctions: 674.62 MiB
      Arrays psit_nG: 324.77 MiB
      Eigensolver: 343.78 MiB
      Projections: 0.64 MiB
      Projectors: 5.42 MiB

Total number of cores used: 40
Parallelization over k-points: 8
Domain decomposition: 1 x 1 x 5

Number of atoms: 41
Number of atomic orbitals: 885
Number of bands in calculation: 298
Number of valence electrons: 489
Bands to converge: occupied

... initialized

Initializing position-dependent things.

Density initialized from atomic densities
Creating initial wave functions:
  298 bands from LCAO basis set

                                                  
                                                  
                                                  
                                                  
                                                  
                                                  
                                                  
                     O                            
                    H                             
           In      IOC     In                     
                    C                             
            IIn     IIn     InIn                  
               In       In      In                
              In      In       In                 
                                                  
               InIn     IIn     IIn               
                                                  
                  In      In      In              
                    In       In      In           
           In      In      In                     
                                                  
             In      In       In                  
               In       In      In                
                                                  
                                                  
                                                  
                                                  

Positions:
   0 In    -0.000000    0.000000   10.000000    ( 0.0000,  0.0000,  0.0000)
   1 In     1.696324    0.979373   12.770085    ( 0.0000,  0.0000,  0.0000)
   2 In     0.000000    1.958746   15.501326    ( 0.0000,  0.0000,  0.0000)
   3 In     0.000000    0.000000   18.272307    ( 0.0000,  0.0000,  0.0000)
   4 In    -1.696324    2.938119   10.000000    ( 0.0000,  0.0000,  0.0000)
   5 In     0.000000    3.917492   12.770085    ( 0.0000,  0.0000,  0.0000)
   6 In    -1.696324    4.896865   15.501326    ( 0.0000,  0.0000,  0.0000)
   7 In    -1.696324    2.938119   18.272307    ( 0.0000,  0.0000,  0.0000)
   8 In    -3.392647    5.876238   10.000000    ( 0.0000,  0.0000,  0.0000)
   9 In    -1.696324    6.855611   12.770085    ( 0.0000,  0.0000,  0.0000)
  10 In    -3.392647    7.834984   15.501326    ( 0.0000,  0.0000,  0.0000)
  11 In    -3.392647    5.876238   18.272307    ( 0.0000,  0.0000,  0.0000)
  12 In     3.392647    0.000000   10.000000    ( 0.0000,  0.0000,  0.0000)
  13 In     5.088971    0.979373   12.770085    ( 0.0000,  0.0000,  0.0000)
  14 In     3.392647    1.958746   15.501326    ( 0.0000,  0.0000,  0.0000)
  15 In     3.392647   -0.000000   18.272307    ( 0.0000,  0.0000,  0.0000)
  16 In     1.696324    2.938119   10.000000    ( 0.0000,  0.0000,  0.0000)
  17 In     3.392647    3.917492   12.770085    ( 0.0000,  0.0000,  0.0000)
  18 In     1.696324    4.896865   15.501326    ( 0.0000,  0.0000,  0.0000)
  19 In     1.696324    2.938119   18.272307    ( 0.0000,  0.0000,  0.0000)
  20 In    -0.000000    5.876238   10.000000    ( 0.0000,  0.0000,  0.0000)
  21 In     1.696324    6.855611   12.770085    ( 0.0000,  0.0000,  0.0000)
  22 In     0.000000    7.834984   15.501326    ( 0.0000,  0.0000,  0.0000)
  23 In     0.000000    5.876238   18.272307    ( 0.0000,  0.0000,  0.0000)
  24 In     6.785295    0.000000   10.000000    ( 0.0000,  0.0000,  0.0000)
  25 In     8.481619    0.979373   12.770085    ( 0.0000,  0.0000,  0.0000)
  26 In     6.785295    1.958746   15.501326    ( 0.0000,  0.0000,  0.0000)
  27 In     6.785295   -0.000000   18.272307    ( 0.0000,  0.0000,  0.0000)
  28 In     5.088971    2.938119   10.000000    ( 0.0000,  0.0000,  0.0000)
  29 In     6.785295    3.917492   12.770085    ( 0.0000,  0.0000,  0.0000)
  30 In     5.088971    4.896865   15.501326    ( 0.0000,  0.0000,  0.0000)
  31 In     5.088971    2.938119   18.272307    ( 0.0000,  0.0000,  0.0000)
  32 In     3.392647    5.876238   10.000000    ( 0.0000,  0.0000,  0.0000)
  33 In     5.088971    6.855611   12.770085    ( 0.0000,  0.0000,  0.0000)
  34 In     3.392647    7.834984   15.501326    ( 0.0000,  0.0000,  0.0000)
  35 In     3.392647    5.876238   18.272307    ( 0.0000,  0.0000,  0.0000)
  36 H      1.760991    0.375538   21.609552    ( 0.0000,  0.0000,  0.0000)
  37 O      1.738474    0.009902   20.817479    ( 0.0000,  0.0000,  0.0000)
  38 C      1.742227    0.876357   19.818386    ( 0.0000,  0.0000,  0.0000)
  39 C      1.668913    2.372325   20.060493    ( 0.0000,  0.0000,  0.0000)
  40 O      1.721466    3.000873   21.343873    ( 0.0000,  0.0000,  0.0000)

Unit cell:
           periodic     x           y           z      points  spacing
  1. axis:    yes   10.177942    0.000000    0.000000    48     0.1836
  2. axis:    yes   -5.088971    8.814357    0.000000    48     0.1836
  3. axis:    no     0.000000    0.000000   28.310255   156     0.1815

  Lengths:  10.177942  10.177942  28.310255
  Angles:   90.000000  90.000000 120.000000

Effective grid spacing dv^(1/3) = 0.1919

     iter     time        total  log10-change:
                         energy  eigst   dens
iter:   1 01:37:13 -5748.249783
iter:   2 01:37:48 -5747.545703  -0.83  -1.41
iter:   3 01:38:23 -5746.938157  -1.43  -1.44
iter:   4 01:38:58 -5746.267674  -1.42  -1.47
iter:   5 01:39:33 -5746.230680  -1.87  -1.59
iter:   6 01:40:08 -5746.439413c -1.52  -1.57
iter:   7 01:40:43 -5746.351533c -1.92  -1.91
iter:   8 01:41:18 -5746.070491  -1.95  -2.09
iter:   9 01:41:54 -5746.049781  -2.29  -2.32
iter:  10 01:42:29 -5746.047603c -2.70  -2.52
iter:  11 01:43:04 -5746.034207c -3.01  -2.62
iter:  12 01:43:39 -5746.024994c -3.10  -2.74
iter:  13 01:44:14 -5746.024111c -3.53  -2.93
iter:  14 01:44:50 -5746.022232c -3.75  -3.03
iter:  15 01:45:25 -5746.021273c -4.00  -3.18
iter:  16 01:46:00 -5746.021062c -4.53  -3.35
iter:  17 01:46:35 -5746.020983c -4.69  -3.49
iter:  18 01:47:10 -5746.021166c -5.23  -3.54
iter:  19 01:47:45 -5746.021152c -5.38  -3.59
iter:  20 01:48:20 -5746.021276c -5.32  -3.72
iter:  21 01:48:56 -5746.021094c -5.60  -3.84
iter:  22 01:49:31 -5746.021072c -5.91  -3.93
iter:  23 01:50:06 -5746.021115c -6.01  -3.99
iter:  24 01:50:41 -5746.021101c -6.66  -4.25c
iter:  25 01:51:16 -5746.021136c -6.52  -4.32c
iter:  26 01:51:51 -5746.021142c -7.33  -4.55c
iter:  27 01:52:26 -5746.021124c -7.71c -4.64c

Converged after 27 iterations.

Dipole moment: (-3.116313, -20.963116, -0.774682) |e|*Ang

Energy contributions relative to reference atoms: (reference = -5765264.558761)

Kinetic:       +1259.376209
Potential:     -1175.676023
External:        +0.000000
XC:            -5834.034411
Entropy (-ST):   -0.639121
Local:           +4.632661
--------------------------
Free energy:   -5746.340685
Extrapolated:  -5746.021124

Showing only first 2 kpts
 Kpt  Band  Eigenvalues  Occupancy
  0   242     -4.66107    1.81847
  0   243     -4.53704    1.48692
  0   244     -4.43512    1.02241
  0   245     -4.33760    0.56571

  1   242     -4.67344    1.83789
  1   243     -4.63429    1.76916
  1   244     -4.48831    1.28064
  1   245     -4.43390    1.01630


Fermi level: -4.43064

No gap

Forces in eV/Ang:
  0 In    0.00399   -0.01282    0.01773
  1 In    0.00128   -0.01814    0.05800
  2 In    0.00225    0.03948    0.10659
  3 In   -0.12909   -0.00477   -0.04405
  4 In   -0.00478    0.00141    0.04350
  5 In   -0.01890    0.01996    0.05158
  6 In   -0.01709    0.01915   -0.03341
  7 In   -0.04434    0.01924   -0.01388
  8 In   -0.00746    0.02144    0.03140
  9 In    0.01588   -0.01321    0.04286
 10 In   -0.01382   -0.01660    0.05516
 11 In    0.00408    0.01091   -0.02369
 12 In    0.00096   -0.01306    0.02389
 13 In    0.02386    0.00029    0.02491
 14 In    0.00359    0.04006    0.11282
 15 In    0.18962   -0.00601   -0.13144
 16 In   -0.00144   -0.01729    0.02979
 17 In    0.00781    0.02633    0.04457
 18 In    0.01295   -0.05291    0.05172
 19 In    0.05428    2.95127   -6.51495
 20 In    0.01769    0.02053    0.03541
 21 In    0.00133    0.01934   -0.01194
 22 In    0.00795   -0.05127   -0.07874
 23 In   -0.02424   -0.00341    0.04981
 24 In   -0.00934   -0.02874    0.06299
 25 In   -0.02766    0.00821    0.01622
 26 In    0.00306    0.01918   -0.01269
 27 In    0.00144    0.01858    0.07925
 28 In    0.00179   -0.00163    0.03352
 29 In    0.00327    0.00360    0.04985
 30 In    0.00811    0.03794   -0.01935
 31 In    0.03690    0.02008   -0.01237
 32 In   -0.01297    0.01014    0.01593
 33 In   -0.01827   -0.02020    0.04641
 34 In    0.00667   -0.05623   -0.06154
 35 In    0.01728   -0.00949    0.04137
 36 H     0.12625    3.09103    6.10527
 37 O    -0.04479   -4.18368   -4.18977
 38 C    -0.34356    2.82348   -0.56388
 39 C     0.49305   -1.84031   10.58774
 40 O    -0.30977   -2.88745   -5.37169

      Step     Time          Energy         fmax
BFGS:    0 01:52:38    -5746.021124       10.7578
System changes: positions 

Initializing position-dependent things.

Density initialized from wave functions
                                                  
                                                  
                                                  
                                                  
                                                  
                                                  
                                                  
                     O                            
                    H                             
           In      IOC     In                     
                    C                             
            IIn     IIn     InIn                  
               In       In      In                
              In       In      In                 
                                                  
               InIn     IIn     IIn               
                                                  
                  In      In      In              
                    In       In      In           
           In      In      In                     
                                                  
             In      In       In                  
               In       In      In                
                                                  
                                                  
                                                  
                                                  

Positions:
   0 In    -0.000000    0.000000   10.000000    ( 0.0000,  0.0000,  0.0000)
   1 In     1.696324    0.979373   12.770085    ( 0.0000,  0.0000,  0.0000)
   2 In     0.000032    1.959310   15.502849    ( 0.0000,  0.0000,  0.0000)
   3 In    -0.001844   -0.000068   18.271678    ( 0.0000,  0.0000,  0.0000)
   4 In    -1.696324    2.938119   10.000000    ( 0.0000,  0.0000,  0.0000)
   5 In     0.000000    3.917492   12.770085    ( 0.0000,  0.0000,  0.0000)
   6 In    -1.696568    4.897138   15.500849    ( 0.0000,  0.0000,  0.0000)
   7 In    -1.696957    2.938394   18.272109    ( 0.0000,  0.0000,  0.0000)
   8 In    -3.392647    5.876238   10.000000    ( 0.0000,  0.0000,  0.0000)
   9 In    -1.696324    6.855611   12.770085    ( 0.0000,  0.0000,  0.0000)
  10 In    -3.392845    7.834746   15.502114    ( 0.0000,  0.0000,  0.0000)
  11 In    -3.392589    5.876394   18.271969    ( 0.0000,  0.0000,  0.0000)
  12 In     3.392647    0.000000   10.000000    ( 0.0000,  0.0000,  0.0000)
  13 In     5.088971    0.979373   12.770085    ( 0.0000,  0.0000,  0.0000)
  14 In     3.392699    1.959318   15.502938    ( 0.0000,  0.0000,  0.0000)
  15 In     3.395356   -0.000086   18.270429    ( 0.0000,  0.0000,  0.0000)
  16 In     1.696324    2.938119   10.000000    ( 0.0000,  0.0000,  0.0000)
  17 In     3.392647    3.917492   12.770085    ( 0.0000,  0.0000,  0.0000)
  18 In     1.696509    4.896109   15.502065    ( 0.0000,  0.0000,  0.0000)
  19 In     1.697099    2.980280   18.179236    ( 0.0000,  0.0000,  0.0000)
  20 In    -0.000000    5.876238   10.000000    ( 0.0000,  0.0000,  0.0000)
  21 In     1.696324    6.855611   12.770085    ( 0.0000,  0.0000,  0.0000)
  22 In     0.000114    7.834251   15.500201    ( 0.0000,  0.0000,  0.0000)
  23 In    -0.000346    5.876189   18.273019    ( 0.0000,  0.0000,  0.0000)
  24 In     6.785295    0.000000   10.000000    ( 0.0000,  0.0000,  0.0000)
  25 In     8.481619    0.979373   12.770085    ( 0.0000,  0.0000,  0.0000)
  26 In     6.785339    1.959020   15.501145    ( 0.0000,  0.0000,  0.0000)
  27 In     6.785315    0.000265   18.273439    ( 0.0000,  0.0000,  0.0000)
  28 In     5.088971    2.938119   10.000000    ( 0.0000,  0.0000,  0.0000)
  29 In     6.785295    3.917492   12.770085    ( 0.0000,  0.0000,  0.0000)
  30 In     5.089087    4.897407   15.501049    ( 0.0000,  0.0000,  0.0000)
  31 In     5.089498    2.938406   18.272130    ( 0.0000,  0.0000,  0.0000)
  32 In     3.392647    5.876238   10.000000    ( 0.0000,  0.0000,  0.0000)
  33 In     5.088971    6.855611   12.770085    ( 0.0000,  0.0000,  0.0000)
  34 In     3.392743    7.834180   15.500447    ( 0.0000,  0.0000,  0.0000)
  35 In     3.392894    5.876102   18.272898    ( 0.0000,  0.0000,  0.0000)
  36 H      1.762795    0.419696   21.696771    ( 0.0000,  0.0000,  0.0000)
  37 O      1.737834   -0.049864   20.757625    ( 0.0000,  0.0000,  0.0000)
  38 C      1.737319    0.916693   19.810331    ( 0.0000,  0.0000,  0.0000)
  39 C      1.675957    2.346035   20.211747    ( 0.0000,  0.0000,  0.0000)
  40 O      1.717041    2.959624   21.267135    ( 0.0000,  0.0000,  0.0000)

Unit cell:
           periodic     x           y           z      points  spacing
  1. axis:    yes   10.177942    0.000000    0.000000    48     0.1836
  2. axis:    yes   -5.088971    8.814357    0.000000    48     0.1836
  3. axis:    no     0.000000    0.000000   28.310255   156     0.1815

  Lengths:  10.177942  10.177942  28.310255
  Angles:   90.000000  90.000000 120.000000

Effective grid spacing dv^(1/3) = 0.1919

     iter     time        total  log10-change:
                         energy  eigst   dens
iter:   1 01:53:43 -5750.993518  -0.67
iter:   2 01:54:19 -5749.617363  -1.53  -1.94
iter:   3 01:54:54 -5749.059558  -1.60  -2.11
iter:   4 01:55:29 -5748.269510  -1.87  -1.96
iter:   5 01:56:05 -5748.046462  -2.03  -2.39
iter:   6 01:56:40 -5747.925077  -2.00  -2.58
iter:   7 01:57:15 -5747.886907c -2.53  -2.59
iter:   8 01:57:51 -5747.878442c -2.95  -2.81
iter:   9 01:58:26 -5747.872983c -3.37  -3.02
iter:  10 01:59:02 -5747.870985c -3.61  -3.06
iter:  11 01:59:37 -5747.870669c -4.15  -3.24
iter:  12 02:00:12 -5747.870342c -4.71  -3.36
iter:  13 02:00:47 -5747.870065c -4.72  -3.40
iter:  14 02:01:23 -5747.870389c -4.76  -3.59
iter:  15 02:01:58 -5747.870551c -5.03  -3.69
iter:  16 02:02:33 -5747.870389c -4.81  -3.70
iter:  17 02:03:09 -5747.870445c -5.56  -3.88
iter:  18 02:03:44 -5747.870442c -6.03  -4.04c
iter:  19 02:04:19 -5747.870512c -6.10  -4.10c
iter:  20 02:04:55 -5747.870451c -5.93  -4.15c
iter:  21 02:05:30 -5747.870451c -6.56  -4.37c
iter:  22 02:06:05 -5747.870437c -6.36  -4.42c
iter:  23 02:06:40 -5747.870435c -6.94  -4.63c
iter:  24 02:07:16 -5747.870431c -7.40c -4.70c

Converged after 24 iterations.

Dipole moment: (-5.906306, -16.049482, -0.425678) |e|*Ang

Energy contributions relative to reference atoms: (reference = -5765264.558761)

Kinetic:       +1252.178846
Potential:     -1170.991052
External:        +0.000000
XC:            -5833.381632
Entropy (-ST):   -0.641060
Local:           +4.643937
--------------------------
Free energy:   -5748.190961
Extrapolated:  -5747.870431

Showing only first 2 kpts
 Kpt  Band  Eigenvalues  Occupancy
  0   242     -4.44285    1.80263
  0   243     -4.33534    1.51420
  0   244     -4.21535    0.96846
  0   245     -4.12783    0.56252

  1   242     -4.47176    1.84843
  1   243     -4.43143    1.78137
  1   244     -4.27427    1.25717
  1   245     -4.21262    0.95486


Fermi level: -4.22165

No gap

Forces in eV/Ang:
  0 In    0.00448   -0.01710    0.02254
  1 In    0.00071   -0.02085    0.06050
  2 In   -0.03699    0.00704    0.04589
  3 In   -0.08349    0.10721    0.01313
  4 In   -0.00785    0.00255    0.04885
  5 In   -0.02110    0.01550    0.06466
  6 In   -0.01902    0.02449   -0.02569
  7 In   -0.03554    0.00651   -0.01067
  8 In   -0.00611    0.02745    0.03071
  9 In    0.01542   -0.00481    0.03302
 10 In   -0.01449   -0.00706    0.04672
 11 In    0.00252    0.02665   -0.01982
 12 In   -0.00057   -0.01898    0.02657
 13 In    0.01942   -0.00132    0.03057
 14 In    0.04365    0.01133    0.04719
 15 In    0.14028    0.11378   -0.06464
 16 In   -0.00344   -0.03223    0.03397
 17 In    0.01035    0.02181    0.06047
 18 In    0.01330    0.01319   -0.03029
 19 In   -0.02965    1.18203   -1.79386
 20 In    0.00823    0.02928    0.04270
 21 In    0.00097    0.02289   -0.00914
 22 In    0.01106   -0.05069   -0.07380
 23 In   -0.04583    0.03818    0.04050
 24 In   -0.01062   -0.03058    0.05900
 25 In   -0.02196    0.00887    0.02127
 26 In    0.00133    0.02074   -0.00031
 27 In    0.00349    0.01967    0.06157
 28 In    0.00784   -0.00213    0.03980
 29 In    0.00323    0.00241    0.04571
 30 In    0.00927    0.04045   -0.01264
 31 In    0.03497    0.01065   -0.01235
 32 In   -0.00547    0.01875    0.02321
 33 In   -0.01735   -0.01248    0.03601
 34 In    0.00495   -0.05344   -0.05188
 35 In    0.04670    0.04037    0.03039
 36 H    -0.07872   -1.35664   -2.23609
 37 O     0.10430    0.40520    4.05338
 38 C    -0.22102    1.41114   -0.23724
 39 C     0.26057   -1.63015   -0.16389
 40 O    -0.11805   -0.38157    0.45177

BFGS:    1 02:07:28    -5747.870431        4.0749
System changes: positions 

Initializing position-dependent things.

Density initialized from wave functions
                                                  
                                                  
                                                  
                                                  
                                                  
                                                  
                                                  
                     O                            
                    H                             
           In      IOC     In                     
                    C                             
            IIn     IIn     InIn                  
               In       In      In                
              In       In      In                 
                                                  
               InIn     IIn     IIn               
                                                  
                  In      In      In              
                    In       In      In           
           In      In      In                     
                                                  
             In      In       In                  
               In       In      In                
                                                  
                                                  
                                                  
                                                  

Positions:
   0 In    -0.000000    0.000000   10.000000    ( 0.0000,  0.0000,  0.0000)
   1 In     1.696324    0.979373   12.770085    ( 0.0000,  0.0000,  0.0000)
   2 In    -0.000464    1.959460   15.503618    ( 0.0000,  0.0000,  0.0000)
   3 In    -0.003153    0.001373   18.271793    ( 0.0000,  0.0000,  0.0000)
   4 In    -1.696324    2.938119   10.000000    ( 0.0000,  0.0000,  0.0000)
   5 In     0.000000    3.917492   12.770085    ( 0.0000,  0.0000,  0.0000)
   6 In    -1.696849    4.897496   15.500455    ( 0.0000,  0.0000,  0.0000)
   7 In    -1.697499    2.938509   18.271945    ( 0.0000,  0.0000,  0.0000)
   8 In    -3.392647    5.876238   10.000000    ( 0.0000,  0.0000,  0.0000)
   9 In    -1.696324    6.855611   12.770085    ( 0.0000,  0.0000,  0.0000)
  10 In    -3.393060    7.834628   15.502822    ( 0.0000,  0.0000,  0.0000)
  11 In    -3.392549    5.876769   18.271668    ( 0.0000,  0.0000,  0.0000)
  12 In     3.392647    0.000000   10.000000    ( 0.0000,  0.0000,  0.0000)
  13 In     5.088971    0.979373   12.770085    ( 0.0000,  0.0000,  0.0000)
  14 In     3.393293    1.959528   15.503734    ( 0.0000,  0.0000,  0.0000)
  15 In     3.397517    0.001443   18.269372    ( 0.0000,  0.0000,  0.0000)
  16 In     1.696324    2.938119   10.000000    ( 0.0000,  0.0000,  0.0000)
  17 In     3.392647    3.917492   12.770085    ( 0.0000,  0.0000,  0.0000)
  18 In     1.696707    4.896213   15.501728    ( 0.0000,  0.0000,  0.0000)
  19 In     1.696775    3.000392   18.145855    ( 0.0000,  0.0000,  0.0000)
  20 In    -0.000000    5.876238   10.000000    ( 0.0000,  0.0000,  0.0000)
  21 In     1.696324    6.855611   12.770085    ( 0.0000,  0.0000,  0.0000)
  22 In     0.000274    7.833495   15.499094    ( 0.0000,  0.0000,  0.0000)
  23 In    -0.000999    5.876700   18.273636    ( 0.0000,  0.0000,  0.0000)
  24 In     6.785295    0.000000   10.000000    ( 0.0000,  0.0000,  0.0000)
  25 In     8.481619    0.979373   12.770085    ( 0.0000,  0.0000,  0.0000)
  26 In     6.785361    1.959327   15.501123    ( 0.0000,  0.0000,  0.0000)
  27 In     6.785365    0.000557   18.274382    ( 0.0000,  0.0000,  0.0000)
  28 In     5.088971    2.938119   10.000000    ( 0.0000,  0.0000,  0.0000)
  29 In     6.785295    3.917492   12.770085    ( 0.0000,  0.0000,  0.0000)
  30 In     5.089224    4.898006   15.500851    ( 0.0000,  0.0000,  0.0000)
  31 In     5.090023    2.938578   18.271946    ( 0.0000,  0.0000,  0.0000)
  32 In     3.392647    5.876238   10.000000    ( 0.0000,  0.0000,  0.0000)
  33 In     5.088971    6.855611   12.770085    ( 0.0000,  0.0000,  0.0000)
  34 In     3.392819    7.833380   15.499659    ( 0.0000,  0.0000,  0.0000)
  35 In     3.393549    5.876634   18.273367    ( 0.0000,  0.0000,  0.0000)
  36 H      1.761909    0.405713   21.675142    ( 0.0000,  0.0000,  0.0000)
  37 O      1.739180   -0.050268   20.806491    ( 0.0000,  0.0000,  0.0000)
  38 C      1.733851    0.939720   19.806334    ( 0.0000,  0.0000,  0.0000)
  39 C      1.680169    2.321431   20.224405    ( 0.0000,  0.0000,  0.0000)
  40 O      1.715011    2.950414   21.265692    ( 0.0000,  0.0000,  0.0000)

Unit cell:
           periodic     x           y           z      points  spacing
  1. axis:    yes   10.177942    0.000000    0.000000    48     0.1836
  2. axis:    yes   -5.088971    8.814357    0.000000    48     0.1836
  3. axis:    no     0.000000    0.000000   28.310255   156     0.1815

  Lengths:  10.177942  10.177942  28.310255
  Angles:   90.000000  90.000000 120.000000

Effective grid spacing dv^(1/3) = 0.1919

     iter     time        total  log10-change:
                         energy  eigst   dens
iter:   1 02:08:33 -5748.383850  -1.72
iter:   2 02:09:08 -5748.287326  -2.51  -2.35
iter:   3 02:09:43 -5748.224607c -3.07  -2.44
iter:   4 02:10:19 -5748.199101c -3.34  -2.74
iter:   5 02:10:54 -5748.174480c -3.03  -3.00
iter:   6 02:11:29 -5748.170607c -3.07  -3.20
iter:   7 02:12:05 -5748.169103c -3.78  -3.32
iter:   8 02:12:40 -5748.168673c -4.39  -3.42
iter:   9 02:13:15 -5748.168684c -4.54  -3.55
iter:  10 02:13:50 -5748.168822c -4.82  -3.72
iter:  11 02:14:25 -5748.168653c -5.42  -3.93
iter:  12 02:15:01 -5748.168657c -5.30  -3.92
iter:  13 02:15:36 -5748.168621c -6.08  -4.09c
iter:  14 02:16:11 -5748.168662c -6.14  -4.10c
iter:  15 02:16:46 -5748.168667c -6.19  -4.21c
iter:  16 02:17:21 -5748.168688c -6.45  -4.42c
iter:  17 02:17:57 -5748.168671c -6.53  -4.47c
iter:  18 02:18:32 -5748.168663c -7.23  -4.67c
iter:  19 02:19:07 -5748.168656c -7.29  -4.77c
iter:  20 02:19:42 -5748.168659c -7.51c -4.90c

Converged after 20 iterations.

Dipole moment: (-5.723360, -16.149769, -0.489860) |e|*Ang

Energy contributions relative to reference atoms: (reference = -5765264.558761)

Kinetic:       +1252.635870
Potential:     -1171.283997
External:        +0.000000
XC:            -5833.850520
Entropy (-ST):   -0.635672
Local:           +4.647824
--------------------------
Free energy:   -5748.486495
Extrapolated:  -5748.168659

Showing only first 2 kpts
 Kpt  Band  Eigenvalues  Occupancy
  0   242     -4.47568    1.79983
  0   243     -4.37614    1.53736
  0   244     -4.24713    0.95542
  0   245     -4.15778    0.54469

  1   242     -4.50657    1.84900
  1   243     -4.47280    1.79459
  1   244     -4.29926    1.21272
  1   245     -4.23791    0.90955


Fermi level: -4.25605

No gap

Forces in eV/Ang:
  0 In    0.00650   -0.01595    0.02427
  1 In   -0.00056   -0.02269    0.06067
  2 In   -0.04569   -0.00238    0.02936
  3 In   -0.01681    0.12218    0.10034
  4 In   -0.00695    0.00310    0.05042
  5 In   -0.02271    0.01561    0.06582
  6 In   -0.01700    0.02131   -0.02695
  7 In   -0.03724    0.00468   -0.01234
  8 In   -0.00510    0.02815    0.03029
  9 In    0.01514   -0.00290    0.03209
 10 In   -0.01406   -0.00541    0.03975
 11 In    0.00250    0.03030   -0.01029
 12 In   -0.00197   -0.01917    0.02653
 13 In    0.02002   -0.00277    0.03257
 14 In    0.05026    0.00376    0.03244
 15 In    0.06087    0.13339    0.03767
 16 In   -0.00426   -0.03520    0.03389
 17 In    0.01188    0.02184    0.06302
 18 In    0.01229    0.02973   -0.05599
 19 In   -0.02847    0.95617   -1.28485
 20 In    0.00521    0.02915    0.04571
 21 In    0.00150    0.02558   -0.00847
 22 In    0.01324   -0.04935   -0.07866
 23 In   -0.04902    0.04455    0.04054
 24 In   -0.01136   -0.02881    0.05734
 25 In   -0.02052    0.00790    0.02338
 26 In    0.00117    0.01855    0.00031
 27 In    0.00428    0.01871    0.05892
 28 In    0.00773   -0.00156    0.04181
 29 In    0.00317    0.00178    0.04673
 30 In    0.00772    0.03631   -0.01422
 31 In    0.03717    0.01063   -0.01377
 32 In   -0.00355    0.01798    0.02678
 33 In   -0.01677   -0.00993    0.03442
 34 In    0.00160   -0.05091   -0.05615
 35 In    0.05070    0.04747    0.03114
 36 H    -0.02124   -0.37298   -0.31854
 37 O     0.03407    0.16159    1.08678
 38 C    -0.19959    0.08906    0.46150
 39 C     0.22786   -1.17531   -0.57693
 40 O    -0.11464   -0.12090    0.55485

BFGS:    2 02:19:54    -5748.168659        1.6018
System changes: positions 

Initializing position-dependent things.

Density initialized from wave functions
                                                  
                                                  
                                                  
                                                  
                                                  
                                                  
                                                  
                     O                            
                    H                             
           In      IOC     In                     
                    C                             
            IIn     IIn     InIn                  
               In       In      In                
              In       In      In                 
                                                  
               InIn     IIn     IIn               
                                                  
                  In      In      In              
                    In       In      In           
           In      In      In                     
                                                  
             In      In       In                  
               In       In      In                
                                                  
                                                  
                                                  
                                                  

Positions:
   0 In    -0.000000    0.000000   10.000000    ( 0.0000,  0.0000,  0.0000)
   1 In     1.696324    0.979373   12.770085    ( 0.0000,  0.0000,  0.0000)
   2 In    -0.001566    1.959466   15.504494    ( 0.0000,  0.0000,  0.0000)
   3 In    -0.003864    0.004339   18.274008    ( 0.0000,  0.0000,  0.0000)
   4 In    -1.696324    2.938119   10.000000    ( 0.0000,  0.0000,  0.0000)
   5 In     0.000000    3.917492   12.770085    ( 0.0000,  0.0000,  0.0000)
   6 In    -1.697290    4.898048   15.499759    ( 0.0000,  0.0000,  0.0000)
   7 In    -1.698459    2.938649   18.271631    ( 0.0000,  0.0000,  0.0000)
   8 In    -3.392647    5.876238   10.000000    ( 0.0000,  0.0000,  0.0000)
   9 In    -1.696324    6.855611   12.770085    ( 0.0000,  0.0000,  0.0000)
  10 In    -3.393422    7.834473   15.503876    ( 0.0000,  0.0000,  0.0000)
  11 In    -3.392484    5.877517   18.271366    ( 0.0000,  0.0000,  0.0000)
  12 In     3.392647    0.000000   10.000000    ( 0.0000,  0.0000,  0.0000)
  13 In     5.088971    0.979373   12.770085    ( 0.0000,  0.0000,  0.0000)
  14 In     3.394518    1.959681   15.504687    ( 0.0000,  0.0000,  0.0000)
  15 In     3.399407    0.004672   18.269915    ( 0.0000,  0.0000,  0.0000)
  16 In     1.696324    2.938119   10.000000    ( 0.0000,  0.0000,  0.0000)
  17 In     3.392647    3.917492   12.770085    ( 0.0000,  0.0000,  0.0000)
  18 In     1.697025    4.896849   15.500467    ( 0.0000,  0.0000,  0.0000)
  19 In     1.696129    3.027607   18.106078    ( 0.0000,  0.0000,  0.0000)
  20 In    -0.000000    5.876238   10.000000    ( 0.0000,  0.0000,  0.0000)
  21 In     1.696324    6.855611   12.770085    ( 0.0000,  0.0000,  0.0000)
  22 In     0.000603    7.832222   15.497085    ( 0.0000,  0.0000,  0.0000)
  23 In    -0.002224    5.877778   18.274686    ( 0.0000,  0.0000,  0.0000)
  24 In     6.785295    0.000000   10.000000    ( 0.0000,  0.0000,  0.0000)
  25 In     8.481619    0.979373   12.770085    ( 0.0000,  0.0000,  0.0000)
  26 In     6.785393    1.959809   15.501115    ( 0.0000,  0.0000,  0.0000)
  27 In     6.785470    0.001040   18.275923    ( 0.0000,  0.0000,  0.0000)
  28 In     5.088971    2.938119   10.000000    ( 0.0000,  0.0000,  0.0000)
  29 In     6.785295    3.917492   12.770085    ( 0.0000,  0.0000,  0.0000)
  30 In     5.089426    4.898950   15.500485    ( 0.0000,  0.0000,  0.0000)
  31 In     5.090971    2.938861   18.271598    ( 0.0000,  0.0000,  0.0000)
  32 In     3.392647    5.876238   10.000000    ( 0.0000,  0.0000,  0.0000)
  33 In     5.088971    6.855611   12.770085    ( 0.0000,  0.0000,  0.0000)
  34 In     3.392873    7.832061   15.498222    ( 0.0000,  0.0000,  0.0000)
  35 In     3.394806    5.877775   18.274175    ( 0.0000,  0.0000,  0.0000)
  36 H      1.761383    0.397479   21.669230    ( 0.0000,  0.0000,  0.0000)
  37 O      1.740138   -0.050166   20.835854    ( 0.0000,  0.0000,  0.0000)
  38 C      1.728522    0.948074   19.815425    ( 0.0000,  0.0000,  0.0000)
  39 C      1.686380    2.289459   20.222470    ( 0.0000,  0.0000,  0.0000)
  40 O      1.711852    2.943741   21.273380    ( 0.0000,  0.0000,  0.0000)

Unit cell:
           periodic     x           y           z      points  spacing
  1. axis:    yes   10.177942    0.000000    0.000000    48     0.1836
  2. axis:    yes   -5.088971    8.814357    0.000000    48     0.1836
  3. axis:    no     0.000000    0.000000   28.310255   156     0.1815

  Lengths:  10.177942  10.177942  28.310255
  Angles:   90.000000  90.000000 120.000000

Effective grid spacing dv^(1/3) = 0.1919

     iter     time        total  log10-change:
                         energy  eigst   dens
iter:   1 02:21:00 -5748.302570  -1.92
iter:   2 02:21:35 -5748.291934  -2.80  -2.68
iter:   3 02:22:11 -5748.280116c -3.39  -2.80
iter:   4 02:22:46 -5748.263592c -3.22  -3.01
iter:   5 02:23:22 -5748.263842c -3.93  -3.19
iter:   6 02:23:57 -5748.259439c -3.86  -3.27
iter:   7 02:24:32 -5748.258463c -3.68  -3.39
iter:   8 02:25:08 -5748.257981c -4.31  -3.67
iter:   9 02:25:43 -5748.257966c -4.89  -3.80
iter:  10 02:26:18 -5748.257990c -5.16  -3.85
iter:  11 02:26:54 -5748.257907c -5.44  -3.95
iter:  12 02:27:29 -5748.257929c -6.15  -4.02c
iter:  13 02:28:05 -5748.257937c -5.92  -4.16c
iter:  14 02:28:40 -5748.257936c -6.74  -4.39c
iter:  15 02:29:15 -5748.257922c -6.99  -4.46c
iter:  16 02:29:51 -5748.257920c -6.69  -4.60c
iter:  17 02:30:26 -5748.257921c -7.13  -4.76c
iter:  18 02:31:01 -5748.257922c -7.41c -4.86c

Converged after 18 iterations.

Dipole moment: (-5.482823, -16.540744, -0.573236) |e|*Ang

Energy contributions relative to reference atoms: (reference = -5765264.558761)

Kinetic:       +1252.046662
Potential:     -1170.670730
External:        +0.000000
XC:            -5833.969321
Entropy (-ST):   -0.632240
Local:           +4.651587
--------------------------
Free energy:   -5748.574042
Extrapolated:  -5748.257922

Showing only first 2 kpts
 Kpt  Band  Eigenvalues  Occupancy
  0   242     -4.52284    1.79977
  0   243     -4.42872    1.55622
  0   244     -4.29002    0.93396
  0   245     -4.20034    0.52652

  1   242     -4.55413    1.84951
  1   243     -4.52522    1.80402
  1   244     -4.34034    1.18337
  1   245     -4.27790    0.87390


Fermi level: -4.30325

No gap

Forces in eV/Ang:
  0 In    0.00939   -0.01521    0.02360
  1 In   -0.00118   -0.02433    0.05932
  2 In   -0.05937   -0.01666    0.00630
  3 In    0.02761    0.12733    0.14099
  4 In   -0.00520    0.00253    0.05006
  5 In   -0.02523    0.01497    0.06802
  6 In   -0.01592    0.01759   -0.02756
  7 In   -0.03153    0.00510   -0.00596
  8 In   -0.00440    0.03071    0.03005
  9 In    0.01355   -0.00148    0.02900
 10 In   -0.01266   -0.00582    0.03882
 11 In    0.00231    0.03008   -0.00542
 12 In   -0.00375   -0.01954    0.02433
 13 In    0.01901   -0.00260    0.03224
 14 In    0.06225   -0.00882    0.01060
 15 In   -0.00065    0.14166    0.09626
 16 In   -0.00477   -0.03901    0.03008
 17 In    0.01436    0.02124    0.06660
 18 In    0.01103    0.05991   -0.09812
 19 In   -0.02316    0.72860   -0.77212
 20 In    0.00116    0.03043    0.04718
 21 In    0.00185    0.02694   -0.00906
 22 In    0.01473   -0.04655   -0.07072
 23 In   -0.05500    0.05351    0.04403
 24 In   -0.01221   -0.02643    0.05614
 25 In   -0.01810    0.00842    0.02311
 26 In    0.00071    0.01488    0.00180
 27 In    0.00459    0.01328    0.05121
 28 In    0.00603   -0.00177    0.04146
 29 In    0.00320    0.00162    0.04744
 30 In    0.00774    0.03107   -0.01450
 31 In    0.03320    0.01181   -0.00773
 32 In   -0.00009    0.01811    0.02825
 33 In   -0.01491   -0.00810    0.03050
 34 In   -0.00201   -0.04684   -0.04930
 35 In    0.05703    0.05691    0.03591
 36 H     0.01499    0.42803    1.17629
 37 O    -0.01895   -0.45125   -0.76958
 38 C    -0.11952   -0.85228    0.37319
 39 C     0.17505    0.36285    0.51704
 40 O    -0.11612   -0.68011   -0.66225

BFGS:    3 02:31:13    -5748.257922        1.2518
System changes: positions 

Initializing position-dependent things.

Density initialized from wave functions
                                                  
                                                  
                                                  
                                                  
                                                  
                                                  
                                                  
                     O                            
                    H                             
           In      IOC     In                     
                    C                             
            IIn     IIn     InIn                  
               In       In      In                
              In       In      In                 
                                                  
               InIn     IIn     IIn               
                                                  
                  In      In      In              
                    In       In      In           
           In      In      In                     
                                                  
             In      In       In                  
               In       In      In                
                                                  
                                                  
                                                  
                                                  

Positions:
   0 In    -0.000000    0.000000   10.000000    ( 0.0000,  0.0000,  0.0000)
   1 In     1.696324    0.979373   12.770085    ( 0.0000,  0.0000,  0.0000)
   2 In    -0.002904    1.959243   15.505003    ( 0.0000,  0.0000,  0.0000)
   3 In    -0.003916    0.007483   18.276858    ( 0.0000,  0.0000,  0.0000)
   4 In    -1.696324    2.938119   10.000000    ( 0.0000,  0.0000,  0.0000)
   5 In     0.000000    3.917492   12.770085    ( 0.0000,  0.0000,  0.0000)
   6 In    -1.697722    4.898556   15.499052    ( 0.0000,  0.0000,  0.0000)
   7 In    -1.699339    2.938789   18.271410    ( 0.0000,  0.0000,  0.0000)
   8 In    -3.392647    5.876238   10.000000    ( 0.0000,  0.0000,  0.0000)
   9 In    -1.696324    6.855611   12.770085    ( 0.0000,  0.0000,  0.0000)
  10 In    -3.393767    7.834316   15.504924    ( 0.0000,  0.0000,  0.0000)
  11 In    -3.392421    5.878280   18.271134    ( 0.0000,  0.0000,  0.0000)
  12 In     3.392647    0.000000   10.000000    ( 0.0000,  0.0000,  0.0000)
  13 In     5.088971    0.979373   12.770085    ( 0.0000,  0.0000,  0.0000)
  14 In     3.395958    1.959633   15.505290    ( 0.0000,  0.0000,  0.0000)
  15 In     3.400400    0.008132   18.271342    ( 0.0000,  0.0000,  0.0000)
  16 In     1.696324    2.938119   10.000000    ( 0.0000,  0.0000,  0.0000)
  17 In     3.392647    3.917492   12.770085    ( 0.0000,  0.0000,  0.0000)
  18 In     1.697329    4.897975   15.498524    ( 0.0000,  0.0000,  0.0000)
  19 In     1.695499    3.050646   18.076428    ( 0.0000,  0.0000,  0.0000)
  20 In    -0.000000    5.876238   10.000000    ( 0.0000,  0.0000,  0.0000)
  21 In     1.696324    6.855611   12.770085    ( 0.0000,  0.0000,  0.0000)
  22 In     0.000959    7.830978   15.495178    ( 0.0000,  0.0000,  0.0000)
  23 In    -0.003563    5.879025   18.275794    ( 0.0000,  0.0000,  0.0000)
  24 In     6.785295    0.000000   10.000000    ( 0.0000,  0.0000,  0.0000)
  25 In     8.481619    0.979373   12.770085    ( 0.0000,  0.0000,  0.0000)
  26 In     6.785418    1.960244   15.501138    ( 0.0000,  0.0000,  0.0000)
  27 In     6.785581    0.001448   18.277356    ( 0.0000,  0.0000,  0.0000)
  28 In     5.088971    2.938119   10.000000    ( 0.0000,  0.0000,  0.0000)
  29 In     6.785295    3.917492   12.770085    ( 0.0000,  0.0000,  0.0000)
  30 In     5.089632    4.899830   15.500115    ( 0.0000,  0.0000,  0.0000)
  31 In     5.091870    2.939158   18.271335    ( 0.0000,  0.0000,  0.0000)
  32 In     3.392647    5.876238   10.000000    ( 0.0000,  0.0000,  0.0000)
  33 In     5.088971    6.855611   12.770085    ( 0.0000,  0.0000,  0.0000)
  34 In     3.392875    7.830789   15.496878    ( 0.0000,  0.0000,  0.0000)
  35 In     3.396188    5.879099   18.275055    ( 0.0000,  0.0000,  0.0000)
  36 H      1.761234    0.397723   21.679190    ( 0.0000,  0.0000,  0.0000)
  37 O      1.740445   -0.055973   20.844500    ( 0.0000,  0.0000,  0.0000)
  38 C      1.724391    0.942084   19.823329    ( 0.0000,  0.0000,  0.0000)
  39 C      1.691734    2.279820   20.229601    ( 0.0000,  0.0000,  0.0000)
  40 O      1.708763    2.930350   21.267059    ( 0.0000,  0.0000,  0.0000)

Unit cell:
           periodic     x           y           z      points  spacing
  1. axis:    yes   10.177942    0.000000    0.000000    48     0.1836
  2. axis:    yes   -5.088971    8.814357    0.000000    48     0.1836
  3. axis:    no     0.000000    0.000000   28.310255   156     0.1815

  Lengths:  10.177942  10.177942  28.310255
  Angles:   90.000000  90.000000 120.000000

Effective grid spacing dv^(1/3) = 0.1919

     iter     time        total  log10-change:
                         energy  eigst   dens
iter:   1 02:32:19 -5748.378827  -2.33
iter:   2 02:32:54 -5748.345936  -3.14  -2.70
iter:   3 02:33:29 -5748.333442c -3.66  -2.73
iter:   4 02:34:04 -5748.321405c -3.87  -2.89
iter:   5 02:34:40 -5748.319433c -3.95  -3.37
iter:   6 02:35:15 -5748.318476c -4.17  -3.48
iter:   7 02:35:50 -5748.318296c -4.62  -3.67
iter:   8 02:36:25 -5748.318283c -4.86  -3.68
iter:   9 02:37:00 -5748.318280c -5.44  -4.04c
iter:  10 02:37:36 -5748.318271c -5.89  -4.08c
iter:  11 02:38:11 -5748.318230c -5.87  -4.19c
iter:  12 02:38:46 -5748.318252c -6.34  -4.30c
iter:  13 02:39:21 -5748.318248c -7.06  -4.48c
iter:  14 02:39:57 -5748.318238c -6.88  -4.55c
iter:  15 02:40:32 -5748.318247c -7.13  -4.64c
iter:  16 02:41:07 -5748.318252c -7.65c -4.70c

Converged after 16 iterations.

Dipole moment: (-5.602971, -16.524268, -0.543395) |e|*Ang

Energy contributions relative to reference atoms: (reference = -5765264.558761)

Kinetic:       +1252.252720
Potential:     -1170.882704
External:        +0.000000
XC:            -5834.031995
Entropy (-ST):   -0.631813
Local:           +4.659633
--------------------------
Free energy:   -5748.634159
Extrapolated:  -5748.318252

Showing only first 2 kpts
 Kpt  Band  Eigenvalues  Occupancy
  0   242     -4.50598    1.80247
  0   243     -4.41205    1.56209
  0   244     -4.26950    0.92328
  0   245     -4.18076    0.52185

  1   242     -4.53717    1.85147
  1   243     -4.50806    1.80614
  1   244     -4.32228    1.18487
  1   245     -4.25727    0.86285


Fermi level: -4.28487

No gap

Forces in eV/Ang:
  0 In    0.00939   -0.01402    0.02529
  1 In   -0.00169   -0.02453    0.06162
  2 In   -0.05723   -0.02274   -0.00407
  3 In    0.04383    0.13997    0.15146
  4 In   -0.00382    0.00350    0.05152
  5 In   -0.02580    0.01305    0.06639
  6 In   -0.01323    0.01634   -0.02356
  7 In   -0.02814    0.00406   -0.00276
  8 In   -0.00432    0.02995    0.03019
  9 In    0.01210    0.00004    0.02719
 10 In   -0.01072    0.00010    0.03891
 11 In    0.00236    0.02876   -0.00310
 12 In   -0.00370   -0.01850    0.02493
 13 In    0.01890   -0.00287    0.03161
 14 In    0.05985   -0.01465    0.00055
 15 In   -0.02430    0.15228    0.11375
 16 In   -0.00489   -0.03869    0.02990
 17 In    0.01529    0.01952    0.06494
 18 In    0.01004    0.07048   -0.11773
 19 In   -0.01771    0.59341   -0.49426
 20 In    0.00185    0.02936    0.04935
 21 In    0.00221    0.02893   -0.01589
 22 In    0.00941   -0.04162   -0.06080
 23 In   -0.06145    0.06518    0.03953
 24 In   -0.01250   -0.02666    0.05596
 25 In   -0.01732    0.00764    0.02315
 26 In    0.00051    0.01120    0.00199
 27 In    0.00452    0.01132    0.04876
 28 In    0.00449   -0.00073    0.04306
 29 In    0.00313    0.00161    0.04472
 30 In    0.00603    0.02834   -0.01099
 31 In    0.03078    0.01166   -0.00447
 32 In   -0.00080    0.01656    0.03117
 33 In   -0.01355   -0.00642    0.02794
 34 In    0.00085   -0.04157   -0.04185
 35 In    0.06346    0.06821    0.03267
 36 H     0.01334    0.30058    1.00178
 37 O    -0.01393   -0.31068   -0.53495
 38 C    -0.07339   -0.95485    0.15609
 39 C     0.11253    0.08601   -0.18585
 40 O    -0.08371   -0.22725   -0.07660

BFGS:    4 02:41:19    -5748.318252        1.0460
System changes: positions 

Initializing position-dependent things.

Density initialized from wave functions
                                                  
                                                  
                                                  
                                                  
                                                  
                                                  
                                                  
                     O                            
                    H                             
           In      IOC     In                     
                    C                             
            IIn     IIn     InIn                  
               In       In      In                
              In       In      In                 
                                                  
               InIn     IIn     IIn               
                                                  
                  In      In      In              
                    In       In      In           
           In      In      In                     
                                                  
             In      In       In                  
               In       In      In                
                                                  
                                                  
                                                  
                                                  

Positions:
   0 In    -0.000000    0.000000   10.000000    ( 0.0000,  0.0000,  0.0000)
   1 In     1.696324    0.979373   12.770085    ( 0.0000,  0.0000,  0.0000)
   2 In    -0.007644    1.958069   15.506127    ( 0.0000,  0.0000,  0.0000)
   3 In    -0.002958    0.019126   18.287752    ( 0.0000,  0.0000,  0.0000)
   4 In    -1.696324    2.938119   10.000000    ( 0.0000,  0.0000,  0.0000)
   5 In     0.000000    3.917492   12.770085    ( 0.0000,  0.0000,  0.0000)
   6 In    -1.699115    4.900252   15.496737    ( 0.0000,  0.0000,  0.0000)
   7 In    -1.702233    2.939231   18.270817    ( 0.0000,  0.0000,  0.0000)
   8 In    -3.392647    5.876238   10.000000    ( 0.0000,  0.0000,  0.0000)
   9 In    -1.696324    6.855611   12.770085    ( 0.0000,  0.0000,  0.0000)
  10 In    -3.394887    7.834014   15.508577    ( 0.0000,  0.0000,  0.0000)
  11 In    -3.392201    5.880908   18.270468    ( 0.0000,  0.0000,  0.0000)
  12 In     3.392647    0.000000   10.000000    ( 0.0000,  0.0000,  0.0000)
  13 In     5.088971    0.979373   12.770085    ( 0.0000,  0.0000,  0.0000)
  14 In     3.401026    1.959104   15.506764    ( 0.0000,  0.0000,  0.0000)
  15 In     3.402275    0.020834   18.277711    ( 0.0000,  0.0000,  0.0000)
  16 In     1.696324    2.938119   10.000000    ( 0.0000,  0.0000,  0.0000)
  17 In     3.392647    3.917492   12.770085    ( 0.0000,  0.0000,  0.0000)
  18 In     1.698342    4.902651   15.490499    ( 0.0000,  0.0000,  0.0000)
  19 In     1.693524    3.122929   17.990759    ( 0.0000,  0.0000,  0.0000)
  20 In    -0.000000    5.876238   10.000000    ( 0.0000,  0.0000,  0.0000)
  21 In     1.696324    6.855611   12.770085    ( 0.0000,  0.0000,  0.0000)
  22 In     0.002004    7.826844   15.488960    ( 0.0000,  0.0000,  0.0000)
  23 In    -0.008582    5.883971   18.279513    ( 0.0000,  0.0000,  0.0000)
  24 In     6.785295    0.000000   10.000000    ( 0.0000,  0.0000,  0.0000)
  25 In     8.481619    0.979373   12.770085    ( 0.0000,  0.0000,  0.0000)
  26 In     6.785492    1.961585   15.501243    ( 0.0000,  0.0000,  0.0000)
  27 In     6.785974    0.002755   18.282201    ( 0.0000,  0.0000,  0.0000)
  28 In     5.088971    2.938119   10.000000    ( 0.0000,  0.0000,  0.0000)
  29 In     6.785295    3.917492   12.770085    ( 0.0000,  0.0000,  0.0000)
  30 In     5.090282    4.902752   15.498961    ( 0.0000,  0.0000,  0.0000)
  31 In     5.094889    2.940199   18.270594    ( 0.0000,  0.0000,  0.0000)
  32 In     3.392647    5.876238   10.000000    ( 0.0000,  0.0000,  0.0000)
  33 In     5.088971    6.855611   12.770085    ( 0.0000,  0.0000,  0.0000)
  34 In     3.392963    7.826587   15.492528    ( 0.0000,  0.0000,  0.0000)
  35 In     3.401362    5.884307   18.278041    ( 0.0000,  0.0000,  0.0000)
  36 H      1.760934    0.399452   21.718417    ( 0.0000,  0.0000,  0.0000)
  37 O      1.741254   -0.074007   20.868453    ( 0.0000,  0.0000,  0.0000)
  38 C      1.712542    0.906774   19.842530    ( 0.0000,  0.0000,  0.0000)
  39 C      1.707356    2.247916   20.229656    ( 0.0000,  0.0000,  0.0000)
  40 O      1.699344    2.898871   21.261585    ( 0.0000,  0.0000,  0.0000)

Unit cell:
           periodic     x           y           z      points  spacing
  1. axis:    yes   10.177942    0.000000    0.000000    48     0.1836
  2. axis:    yes   -5.088971    8.814357    0.000000    48     0.1836
  3. axis:    no     0.000000    0.000000   28.310255   156     0.1815

  Lengths:  10.177942  10.177942  28.310255
  Angles:   90.000000  90.000000 120.000000

Effective grid spacing dv^(1/3) = 0.1919

     iter     time        total  log10-change:
                         energy  eigst   dens
iter:   1 02:42:25 -5748.447596  -1.52
iter:   2 02:43:00 -5748.443972  -2.44  -2.74
iter:   3 02:43:35 -5748.429972c -2.84  -2.84
iter:   4 02:44:11 -5748.418756c -3.02  -2.78
iter:   5 02:44:46 -5748.415902c -3.89  -3.03
iter:   6 02:45:21 -5748.414119c -3.74  -3.21
iter:   7 02:45:56 -5748.414031c -4.19  -3.35
iter:   8 02:46:32 -5748.414125c -4.25  -3.50
iter:   9 02:47:07 -5748.413941c -4.72  -3.58
iter:  10 02:47:42 -5748.413870c -5.17  -3.72
iter:  11 02:48:18 -5748.413821c -5.44  -3.93
iter:  12 02:48:53 -5748.413816c -5.62  -3.90
iter:  13 02:49:29 -5748.413832c -6.12  -4.10c
iter:  14 02:50:04 -5748.413854c -6.29  -4.16c
iter:  15 02:50:39 -5748.413901c -6.05  -4.24c
iter:  16 02:51:15 -5748.413908c -6.70  -4.43c
iter:  17 02:51:50 -5748.413903c -6.56  -4.46c
iter:  18 02:52:25 -5748.413909c -6.78  -4.56c
iter:  19 02:53:01 -5748.413893c -6.85  -4.70c
iter:  20 02:53:36 -5748.413900c -7.56c -4.78c

Converged after 20 iterations.

Dipole moment: (-5.934155, -16.770091, -0.510416) |e|*Ang

Energy contributions relative to reference atoms: (reference = -5765264.558761)

Kinetic:       +1250.209844
Potential:     -1169.371742
External:        +0.000000
XC:            -5833.595989
Entropy (-ST):   -0.631634
Local:           +4.659804
--------------------------
Free energy:   -5748.729717
Extrapolated:  -5748.413900

Showing only first 2 kpts
 Kpt  Band  Eigenvalues  Occupancy
  0   242     -4.48942    1.81068
  0   243     -4.39436    1.57416
  0   244     -4.24225    0.89359
  0   245     -4.15881    0.51919

  1   242     -4.51944    1.85625
  1   243     -4.48741    1.80721
  1   244     -4.30098    1.18466
  1   245     -4.23545    0.86007


Fermi level: -4.26362

No gap

Forces in eV/Ang:
  0 In    0.00918   -0.01411    0.02791
  1 In   -0.00201   -0.02328    0.06927
  2 In   -0.07101   -0.05291   -0.04833
  3 In    0.07000    0.18180    0.13833
  4 In   -0.00450    0.00362    0.05237
  5 In   -0.02771    0.00802    0.06967
  6 In   -0.01182    0.01256   -0.02122
  7 In   -0.00312    0.00562    0.00924
  8 In   -0.00414    0.03107    0.02790
  9 In    0.00725    0.00238    0.02314
 10 In   -0.00405    0.01244    0.04298
 11 In    0.00286    0.02330   -0.00561
 12 In   -0.00298   -0.01915    0.02520
 13 In    0.01577    0.00156    0.03229
 14 In    0.07284   -0.04538   -0.04432
 15 In   -0.06620    0.18319    0.12778
 16 In   -0.00477   -0.04200    0.03026
 17 In    0.01905    0.01324    0.06764
 18 In    0.00564    0.15051   -0.23378
 19 In   -0.00931    0.13014    0.25744
 20 In   -0.00016    0.03218    0.05177
 21 In    0.00220    0.02942   -0.02872
 22 In    0.00145   -0.03000   -0.02715
 23 In   -0.09132    0.10397    0.04642
 24 In   -0.01356   -0.02620    0.05207
 25 In   -0.01313    0.00923    0.02549
 26 In    0.00023    0.00041   -0.00110
 27 In    0.00563    0.00103    0.02374
 28 In    0.00482   -0.00034    0.04437
 29 In    0.00209    0.00107    0.04418
 30 In    0.00971    0.01929   -0.01136
 31 In    0.00867    0.01289    0.00886
 32 In    0.00116    0.01760    0.03555
 33 In   -0.00827   -0.00365    0.02124
 34 In    0.00128   -0.02581   -0.01353
 35 In    0.09150    0.10706    0.04378
 36 H    -0.02740   -0.24719    0.01238
 37 O    -0.02061    0.18017    0.56570
 38 C     0.04373   -0.83459   -0.26146
 39 C    -0.03697    0.16522   -0.54390
 40 O     0.01672   -0.08735   -0.03934

BFGS:    5 02:53:48    -5748.413900        0.8757
System changes: positions 

Initializing position-dependent things.

Density initialized from wave functions
                                                  
                                                  
                                                  
                                                  
                                                  
                                                  
                                                  
                     O                            
                    H                             
           In      IOC     In                     
                    C                             
            IIn     IIn     InIn                  
               In       In      In                
              In       In      In                 
                                                  
               InIn     IIn     IIn               
                                                  
                  In      In      In              
                    In       In      In           
           In      In      In                     
                                                  
             In      In       In                  
               In       In      In                
                                                  
                                                  
                                                  
                                                  

Positions:
   0 In    -0.000000    0.000000   10.000000    ( 0.0000,  0.0000,  0.0000)
   1 In     1.696324    0.979373   12.770085    ( 0.0000,  0.0000,  0.0000)
   2 In    -0.010468    1.956791   15.505719    ( 0.0000,  0.0000,  0.0000)
   3 In    -0.001504    0.026111   18.293746    ( 0.0000,  0.0000,  0.0000)
   4 In    -1.696324    2.938119   10.000000    ( 0.0000,  0.0000,  0.0000)
   5 In     0.000000    3.917492   12.770085    ( 0.0000,  0.0000,  0.0000)
   6 In    -1.699799    4.901044   15.495574    ( 0.0000,  0.0000,  0.0000)
   7 In    -1.703273    2.939482   18.270760    ( 0.0000,  0.0000,  0.0000)
   8 In    -3.392647    5.876238   10.000000    ( 0.0000,  0.0000,  0.0000)
   9 In    -1.696324    6.855611   12.770085    ( 0.0000,  0.0000,  0.0000)
  10 In    -3.395341    7.834100   15.510541    ( 0.0000,  0.0000,  0.0000)
  11 In    -3.392078    5.882198   18.270136    ( 0.0000,  0.0000,  0.0000)
  12 In     3.392647    0.000000   10.000000    ( 0.0000,  0.0000,  0.0000)
  13 In     5.088971    0.979373   12.770085    ( 0.0000,  0.0000,  0.0000)
  14 In     3.403993    1.958170   15.506542    ( 0.0000,  0.0000,  0.0000)
  15 In     3.401875    0.028207   18.281972    ( 0.0000,  0.0000,  0.0000)
  16 In     1.696324    2.938119   10.000000    ( 0.0000,  0.0000,  0.0000)
  17 In     3.392647    3.917492   12.770085    ( 0.0000,  0.0000,  0.0000)
  18 In     1.698783    4.906769   15.483863    ( 0.0000,  0.0000,  0.0000)
  19 In     1.692675    3.150048   17.965090    ( 0.0000,  0.0000,  0.0000)
  20 In    -0.000000    5.876238   10.000000    ( 0.0000,  0.0000,  0.0000)
  21 In     1.696324    6.855611   12.770085    ( 0.0000,  0.0000,  0.0000)
  22 In     0.002405    7.824918   15.486358    ( 0.0000,  0.0000,  0.0000)
  23 In    -0.011812    5.887369   18.281583    ( 0.0000,  0.0000,  0.0000)
  24 In     6.785295    0.000000   10.000000    ( 0.0000,  0.0000,  0.0000)
  25 In     8.481619    0.979373   12.770085    ( 0.0000,  0.0000,  0.0000)
  26 In     6.785522    1.962059   15.501257    ( 0.0000,  0.0000,  0.0000)
  27 In     6.786204    0.003221   18.284245    ( 0.0000,  0.0000,  0.0000)
  28 In     5.088971    2.938119   10.000000    ( 0.0000,  0.0000,  0.0000)
  29 In     6.785295    3.917492   12.770085    ( 0.0000,  0.0000,  0.0000)
  30 In     5.090676    4.904078   15.498360    ( 0.0000,  0.0000,  0.0000)
  31 In     5.096061    2.940770   18.270481    ( 0.0000,  0.0000,  0.0000)
  32 In     3.392647    5.876238   10.000000    ( 0.0000,  0.0000,  0.0000)
  33 In     5.088971    6.855611   12.770085    ( 0.0000,  0.0000,  0.0000)
  34 In     3.393001    7.824708   15.490799    ( 0.0000,  0.0000,  0.0000)
  35 In     3.404646    5.887848   18.279814    ( 0.0000,  0.0000,  0.0000)
  36 H      1.760367    0.396323   21.732533    ( 0.0000,  0.0000,  0.0000)
  37 O      1.741140   -0.077385   20.884977    ( 0.0000,  0.0000,  0.0000)
  38 C      1.709079    0.881094   19.845799    ( 0.0000,  0.0000,  0.0000)
  39 C      1.712259    2.240857   20.223219    ( 0.0000,  0.0000,  0.0000)
  40 O      1.696331    2.884891   21.256687    ( 0.0000,  0.0000,  0.0000)

Unit cell:
           periodic     x           y           z      points  spacing
  1. axis:    yes   10.177942    0.000000    0.000000    48     0.1836
  2. axis:    yes   -5.088971    8.814357    0.000000    48     0.1836
  3. axis:    no     0.000000    0.000000   28.310255   156     0.1815

  Lengths:  10.177942  10.177942  28.310255
  Angles:   90.000000  90.000000 120.000000

Effective grid spacing dv^(1/3) = 0.1919

     iter     time        total  log10-change:
                         energy  eigst   dens
iter:   1 02:54:54 -5748.449400  -2.24
iter:   2 02:55:29 -5748.449329  -3.11  -3.15
iter:   3 02:56:05 -5748.446429c -3.44  -3.25
iter:   4 02:56:40 -5748.444603c -3.65  -3.15
iter:   5 02:57:16 -5748.444192c -4.68  -3.46
iter:   6 02:57:51 -5748.444056c -4.70  -3.57
iter:   7 02:58:26 -5748.444132c -4.91  -3.77
iter:   8 02:59:02 -5748.444165c -4.94  -3.90
iter:   9 02:59:37 -5748.444029c -5.31  -3.90
iter:  10 03:00:13 -5748.444057c -5.90  -4.14c
iter:  11 03:00:48 -5748.444030c -6.40  -4.29c
iter:  12 03:01:24 -5748.444051c -6.41  -4.33c
iter:  13 03:01:59 -5748.444041c -6.77  -4.47c
iter:  14 03:02:34 -5748.444047c -7.07  -4.60c
iter:  15 03:03:10 -5748.444051c -7.05  -4.68c
iter:  16 03:03:45 -5748.444049c -7.47c -4.92c

Converged after 16 iterations.

Dipole moment: (-5.877610, -17.515752, -0.490359) |e|*Ang

Energy contributions relative to reference atoms: (reference = -5765264.558761)

Kinetic:       +1249.574452
Potential:     -1168.893902
External:        +0.000000
XC:            -5833.469745
Entropy (-ST):   -0.632585
Local:           +4.661439
--------------------------
Free energy:   -5748.760341
Extrapolated:  -5748.444049

Showing only first 2 kpts
 Kpt  Band  Eigenvalues  Occupancy
  0   242     -4.47980    1.81446
  0   243     -4.38207    1.57269
  0   244     -4.22881    0.88572
  0   245     -4.14946    0.52885

  1   242     -4.50830    1.85719
  1   243     -4.47344    1.80348
  1   244     -4.29001    1.18889
  1   245     -4.22872    0.88525


Fermi level: -4.25177

No gap

Forces in eV/Ang:
  0 In    0.00898   -0.01310    0.02753
  1 In   -0.00193   -0.02380    0.07025
  2 In   -0.06865   -0.05397   -0.05425
  3 In    0.05730    0.18169    0.12258
  4 In   -0.00437    0.00405    0.05168
  5 In   -0.02964    0.00617    0.06597
  6 In   -0.01011    0.01040   -0.01506
  7 In   -0.00084    0.00996    0.00990
  8 In   -0.00420    0.03014    0.02556
  9 In    0.00465    0.00221    0.02286
 10 In   -0.00100    0.01438    0.04675
 11 In    0.00348    0.02083   -0.00696
 12 In   -0.00256   -0.01764    0.02447
 13 In    0.01682    0.00210    0.03042
 14 In    0.07064   -0.04751   -0.05061
 15 In   -0.05888    0.17680    0.11866
 16 In   -0.00390   -0.04183    0.02982
 17 In    0.02187    0.01083    0.06253
 18 In    0.00531    0.16769   -0.24871
 19 In   -0.00807    0.00251    0.43156
 20 In    0.00143    0.03228    0.05127
 21 In    0.00231    0.03322   -0.04101
 22 In   -0.00295   -0.02568   -0.01063
 23 In   -0.09967    0.11796    0.04572
 24 In   -0.01424   -0.02747    0.04922
 25 In   -0.01408    0.00790    0.02523
 26 In    0.00037   -0.00400    0.00151
 27 In    0.00525   -0.00051    0.01585
 28 In    0.00397   -0.00007    0.04365
 29 In    0.00167    0.00247    0.04316
 30 In    0.00980    0.01526   -0.00709
 31 In    0.00725    0.01682    0.00990
 32 In   -0.00039    0.01653    0.03590
 33 In   -0.00572   -0.00361    0.02068
 34 In    0.00221   -0.02039   -0.00116
 35 In    0.09885    0.12018    0.04488
 36 H    -0.02591   -0.14771    0.04700
 37 O    -0.02152    0.02961    0.51158
 38 C     0.07697   -0.39163   -0.13958
 39 C    -0.08344   -0.12231   -0.78278
 40 O     0.03656   -0.08495   -0.00755

BFGS:    6 03:03:57    -5748.444049        0.7967
System changes: positions 

Initializing position-dependent things.

Density initialized from wave functions
                                                  
                                                  
                                                  
                                                  
                                                  
                                                  
                                                  
                     O                            
                    H                             
           In      IOC     In                     
                    C                             
            IIn     InIn    InIn                  
                In      In      In                
              In       In      In                 
                                                  
               InIn     IIn     IIn               
                                                  
                  In      In      In              
                    In       In      In           
           In      In      In                     
                                                  
             In      In       In                  
               In       In      In                
                                                  
                                                  
                                                  
                                                  

Positions:
   0 In    -0.000000    0.000000   10.000000    ( 0.0000,  0.0000,  0.0000)
   1 In     1.696324    0.979373   12.770085    ( 0.0000,  0.0000,  0.0000)
   2 In    -0.016964    1.953355   15.503766    ( 0.0000,  0.0000,  0.0000)
   3 In     0.002158    0.042381   18.306882    ( 0.0000,  0.0000,  0.0000)
   4 In    -1.696324    2.938119   10.000000    ( 0.0000,  0.0000,  0.0000)
   5 In     0.000000    3.917492   12.770085    ( 0.0000,  0.0000,  0.0000)
   6 In    -1.701219    4.902645   15.493246    ( 0.0000,  0.0000,  0.0000)
   7 In    -1.705123    2.940202   18.270870    ( 0.0000,  0.0000,  0.0000)
   8 In    -3.392647    5.876238   10.000000    ( 0.0000,  0.0000,  0.0000)
   9 In    -1.696324    6.855611   12.770085    ( 0.0000,  0.0000,  0.0000)
  10 In    -3.396138    7.834558   15.515080    ( 0.0000,  0.0000,  0.0000)
  11 In    -3.391777    5.884915   18.269382    ( 0.0000,  0.0000,  0.0000)
  12 In     3.392647    0.000000   10.000000    ( 0.0000,  0.0000,  0.0000)
  13 In     5.088971    0.979373   12.770085    ( 0.0000,  0.0000,  0.0000)
  14 In     3.410785    1.955473   15.504990    ( 0.0000,  0.0000,  0.0000)
  15 In     3.399989    0.044995   18.292026    ( 0.0000,  0.0000,  0.0000)
  16 In     1.696324    2.938119   10.000000    ( 0.0000,  0.0000,  0.0000)
  17 In     3.392647    3.917492   12.770085    ( 0.0000,  0.0000,  0.0000)
  18 In     1.699681    4.917906   15.466570    ( 0.0000,  0.0000,  0.0000)
  19 In     1.690981    3.196788   17.930893    ( 0.0000,  0.0000,  0.0000)
  20 In    -0.000000    5.876238   10.000000    ( 0.0000,  0.0000,  0.0000)
  21 In     1.696324    6.855611   12.770085    ( 0.0000,  0.0000,  0.0000)
  22 In     0.003027    7.820977   15.481678    ( 0.0000,  0.0000,  0.0000)
  23 In    -0.019777    5.896084   18.286260    ( 0.0000,  0.0000,  0.0000)
  24 In     6.785295    0.000000   10.000000    ( 0.0000,  0.0000,  0.0000)
  25 In     8.481619    0.979373   12.770085    ( 0.0000,  0.0000,  0.0000)
  26 In     6.785586    1.962770   15.501352    ( 0.0000,  0.0000,  0.0000)
  27 In     6.786721    0.004021   18.288117    ( 0.0000,  0.0000,  0.0000)
  28 In     5.088971    2.938119   10.000000    ( 0.0000,  0.0000,  0.0000)
  29 In     6.785295    3.917492   12.770085    ( 0.0000,  0.0000,  0.0000)
  30 In     5.091596    4.906714   15.497178    ( 0.0000,  0.0000,  0.0000)
  31 In     5.098293    2.942202   18.270496    ( 0.0000,  0.0000,  0.0000)
  32 In     3.392647    5.876238   10.000000    ( 0.0000,  0.0000,  0.0000)
  33 In     5.088971    6.855611   12.770085    ( 0.0000,  0.0000,  0.0000)
  34 In     3.393107    7.820982   15.487833    ( 0.0000,  0.0000,  0.0000)
  35 In     3.412680    5.896856   18.283964    ( 0.0000,  0.0000,  0.0000)
  36 H      1.758905    0.390986   21.762679    ( 0.0000,  0.0000,  0.0000)
  37 O      1.740341   -0.086228   20.919658    ( 0.0000,  0.0000,  0.0000)
  38 C      1.704905    0.831282   19.851635    ( 0.0000,  0.0000,  0.0000)
  39 C      1.718790    2.225631   20.195805    ( 0.0000,  0.0000,  0.0000)
  40 O      1.691860    2.855542   21.244145    ( 0.0000,  0.0000,  0.0000)

Unit cell:
           periodic     x           y           z      points  spacing
  1. axis:    yes   10.177942    0.000000    0.000000    48     0.1836
  2. axis:    yes   -5.088971    8.814357    0.000000    48     0.1836
  3. axis:    no     0.000000    0.000000   28.310255   156     0.1815

  Lengths:  10.177942  10.177942  28.310255
  Angles:   90.000000  90.000000 120.000000

Effective grid spacing dv^(1/3) = 0.1919

     iter     time        total  log10-change:
                         energy  eigst   dens
iter:   1 03:05:03 -5748.505320  -1.68
iter:   2 03:05:39 -5748.504535  -2.55  -2.92
iter:   3 03:06:14 -5748.500737c -3.09  -2.93
iter:   4 03:06:49 -5748.494701c -3.18  -2.95
iter:   5 03:07:24 -5748.492294c -3.72  -3.09
iter:   6 03:08:00 -5748.492644c -3.92  -3.34
iter:   7 03:08:35 -5748.492654c -4.36  -3.50
iter:   8 03:09:11 -5748.492484c -4.63  -3.50
iter:   9 03:09:46 -5748.492345c -5.22  -3.77
iter:  10 03:10:21 -5748.492348c -5.69  -3.91
iter:  11 03:10:56 -5748.492355c -5.67  -4.00
iter:  12 03:11:32 -5748.492393c -5.99  -4.08c
iter:  13 03:12:07 -5748.492380c -6.33  -4.28c
iter:  14 03:12:42 -5748.492373c -6.84  -4.46c
iter:  15 03:13:17 -5748.492372c -7.02  -4.54c
iter:  16 03:13:53 -5748.492385c -6.81  -4.63c
iter:  17 03:14:28 -5748.492372c -6.86  -4.79c
iter:  18 03:15:03 -5748.492376c -7.90c -4.91c

Converged after 18 iterations.

Dipole moment: (-5.868017, -19.069897, -0.484758) |e|*Ang

Energy contributions relative to reference atoms: (reference = -5765264.558761)

Kinetic:       +1247.938932
Potential:     -1167.631672
External:        +0.000000
XC:            -5833.148651
Entropy (-ST):   -0.634100
Local:           +4.666065
--------------------------
Free energy:   -5748.809426
Extrapolated:  -5748.492376

Showing only first 2 kpts
 Kpt  Band  Eigenvalues  Occupancy
  0   242     -4.47883    1.81801
  0   243     -4.37813    1.56985
  0   244     -4.22397    0.87713
  0   245     -4.15081    0.54634

  1   242     -4.50522    1.85721
  1   243     -4.46568    1.79507
  1   244     -4.28835    1.19583
  1   245     -4.23736    0.94348


Fermi level: -4.24867

No gap

Forces in eV/Ang:
  0 In    0.00723   -0.01429    0.02837
  1 In   -0.00178   -0.02153    0.07556
  2 In   -0.05430   -0.04926   -0.05447
  3 In    0.01904    0.15823    0.09843
  4 In   -0.00655    0.00486    0.05172
  5 In   -0.03347    0.00236    0.06299
  6 In   -0.00573    0.00400   -0.00818
  7 In    0.00602    0.01605    0.00780
  8 In   -0.00389    0.02901    0.02345
  9 In    0.00160    0.00013    0.02000
 10 In    0.00456    0.02123    0.05477
 11 In    0.00453    0.01472   -0.00841
 12 In   -0.00093   -0.01852    0.02511
 13 In    0.01910    0.00606    0.02660
 14 In    0.05611   -0.04512   -0.05235
 15 In   -0.02746    0.14248    0.09280
 16 In   -0.00305   -0.04065    0.03061
 17 In    0.02729    0.00540    0.05742
 18 In    0.00741    0.18244   -0.27472
 19 In    0.00649   -0.17687    0.63268
 20 In    0.00288    0.03518    0.05017
 21 In    0.00236    0.03926   -0.06637
 22 In   -0.01385   -0.01537    0.02111
 23 In   -0.11528    0.14162    0.04585
 24 In   -0.01491   -0.03077    0.04771
 25 In   -0.01656    0.00844    0.02319
 26 In    0.00108   -0.00990    0.00199
 27 In    0.00540   -0.00458   -0.00104
 28 In    0.00567    0.00059    0.04366
 29 In    0.00083    0.00210    0.04179
 30 In    0.00912    0.00483   -0.00412
 31 In    0.00098    0.02079    0.00993
 32 In   -0.00201    0.01821    0.03630
 33 In   -0.00226   -0.00494    0.01697
 34 In    0.00725   -0.00666    0.02573
 35 In    0.11130    0.14203    0.04819
 36 H    -0.02011    0.02424    0.04321
 37 O    -0.02261   -0.12465    0.38083
 38 C     0.14418    0.16783    0.07521
 39 C    -0.16030   -0.27088   -0.58430
 40 O     0.05043   -0.32656   -0.37124

BFGS:    7 03:15:15    -5748.492376        0.6637
System changes: positions 

Initializing position-dependent things.

Density initialized from wave functions
                                                  
                                                  
                                                  
                                                  
                                                  
                                                  
                                                  
                     O                            
                    H                             
           In      IOC     In                     
                    C                             
            IIn     InIn    InIn                  
                In      In      In                
              In       In      In                 
                                                  
               InIn     IIn     IIn               
                                                  
                  In      In      In              
                    In       In      In           
           In      In      In                     
                                                  
             In      In       In                  
               In       In      In                
                                                  
                                                  
                                                  
                                                  

Positions:
   0 In    -0.000000    0.000000   10.000000    ( 0.0000,  0.0000,  0.0000)
   1 In     1.696324    0.979373   12.770085    ( 0.0000,  0.0000,  0.0000)
   2 In    -0.024461    1.948817   15.500454    ( 0.0000,  0.0000,  0.0000)
   3 In     0.006412    0.061622   18.321897    ( 0.0000,  0.0000,  0.0000)
   4 In    -1.696324    2.938119   10.000000    ( 0.0000,  0.0000,  0.0000)
   5 In     0.000000    3.917492   12.770085    ( 0.0000,  0.0000,  0.0000)
   6 In    -1.702690    4.904233   15.490824    ( 0.0000,  0.0000,  0.0000)
   7 In    -1.706643    2.941234   18.271203    ( 0.0000,  0.0000,  0.0000)
   8 In    -3.392647    5.876238   10.000000    ( 0.0000,  0.0000,  0.0000)
   9 In    -1.696324    6.855611   12.770085    ( 0.0000,  0.0000,  0.0000)
  10 In    -3.396772    7.835533   15.520637    ( 0.0000,  0.0000,  0.0000)
  11 In    -3.391389    5.887827   18.268501    ( 0.0000,  0.0000,  0.0000)
  12 In     3.392647    0.000000   10.000000    ( 0.0000,  0.0000,  0.0000)
  13 In     5.088971    0.979373   12.770085    ( 0.0000,  0.0000,  0.0000)
  14 In     3.418594    1.951742   15.502113    ( 0.0000,  0.0000,  0.0000)
  15 In     3.397129    0.064370   18.304096    ( 0.0000,  0.0000,  0.0000)
  16 In     1.696324    2.938119   10.000000    ( 0.0000,  0.0000,  0.0000)
  17 In     3.392647    3.917492   12.770085    ( 0.0000,  0.0000,  0.0000)
  18 In     1.700690    4.932957   15.443330    ( 0.0000,  0.0000,  0.0000)
  19 In     1.689586    3.234859   17.917599    ( 0.0000,  0.0000,  0.0000)
  20 In    -0.000000    5.876238   10.000000    ( 0.0000,  0.0000,  0.0000)
[...]
  28 In     5.088971    2.938119   10.000000    ( 0.0000,  0.0000,  0.0000)
  29 In     6.785295    3.917492   12.770085    ( 0.0000,  0.0000,  0.0000)
  30 In     5.092210    4.907341   15.500376    ( 0.0000,  0.0000,  0.0000)
  31 In     5.091718    2.986254   18.284266    ( 0.0000,  0.0000,  0.0000)
  32 In     3.392647    5.876238   10.000000    ( 0.0000,  0.0000,  0.0000)
  33 In     5.088971    6.855611   12.770085    ( 0.0000,  0.0000,  0.0000)
  34 In     3.398747    7.834520   15.518028    ( 0.0000,  0.0000,  0.0000)
  35 In     3.466662    6.002982   18.369742    ( 0.0000,  0.0000,  0.0000)
  36 H      1.703655    0.447872   21.794551    ( 0.0000,  0.0000,  0.0000)
  37 O      1.743978   -0.155713   21.033193    ( 0.0000,  0.0000,  0.0000)
  38 C      1.735141    0.627287   19.869459    ( 0.0000,  0.0000,  0.0000)
  39 C      1.710143    2.053762   20.079792    ( 0.0000,  0.0000,  0.0000)
  40 O      1.698111    2.641861   21.159583    ( 0.0000,  0.0000,  0.0000)

Unit cell:
           periodic     x           y           z      points  spacing
  1. axis:    yes   10.177942    0.000000    0.000000    48     0.1836
  2. axis:    yes   -5.088971    8.814357    0.000000    48     0.1836
  3. axis:    no     0.000000    0.000000   28.310255   156     0.1815

  Lengths:  10.177942  10.177942  28.310255
  Angles:   90.000000  90.000000 120.000000

Effective grid spacing dv^(1/3) = 0.1919

     iter     time        total  log10-change:
                         energy  eigst   dens
iter:   1 07:43:49 -5748.710443  -3.37
iter:   2 07:44:24 -5748.709444  -4.26  -3.32
iter:   3 07:44:59 -5748.708975c -4.91  -3.44
iter:   4 07:45:35 -5748.708740c -4.96  -3.84
iter:   5 07:46:10 -5748.708732c -5.62  -4.08c
iter:   6 07:46:45 -5748.708744c -5.67  -4.16c
iter:   7 07:47:20 -5748.708716c -5.97  -4.39c
iter:   8 07:47:55 -5748.708729c -6.27  -4.47c
iter:   9 07:48:30 -5748.708732c -7.15  -4.65c
iter:  10 07:49:05 -5748.708732c -7.45c -4.73c

Converged after 10 iterations.

Dipole moment: (-6.192019, -20.787354, -0.546057) |e|*Ang

Energy contributions relative to reference atoms: (reference = -5765264.558761)

Kinetic:       +1246.287530
Potential:     -1166.325230
External:        +0.000000
XC:            -5833.007639
Entropy (-ST):   -0.633958
Local:           +4.653585
--------------------------
Free energy:   -5749.025712
Extrapolated:  -5748.708732

Showing only first 2 kpts
 Kpt  Band  Eigenvalues  Occupancy
  0   242     -4.52056    1.80401
  0   243     -4.42438    1.55733
  0   244     -4.28640    0.93912
  0   245     -4.19863    0.53802

  1   242     -4.54038    1.83636
  1   243     -4.51344    1.79106
  1   244     -4.36624    1.32591
  1   245     -4.30988    1.05636


Fermi level: -4.29859

No gap

Forces in eV/Ang:
  0 In    0.00537   -0.01014    0.02320
  1 In    0.00070   -0.02013    0.10809
  2 In   -0.00358   -0.01063    0.00007
  3 In   -0.00154    0.00082    0.00999
  4 In   -0.00796    0.00893    0.04498
  5 In   -0.03955   -0.00523    0.06782
  6 In   -0.00800   -0.00230   -0.00843
  7 In   -0.01353    0.00156    0.00734
  8 In   -0.00171    0.02311    0.02167
  9 In   -0.00486    0.00196    0.06137
 10 In    0.00233   -0.00315   -0.00222
 11 In   -0.00177    0.00195   -0.00244
 12 In    0.00188   -0.01352    0.01605
 13 In    0.01296    0.00796    0.06174
 14 In    0.00251   -0.00598   -0.00335
 15 In    0.00261    0.01889   -0.00383
 16 In    0.00018   -0.02870    0.01502
 17 In    0.04026   -0.01126    0.05125
 18 In    0.00373    0.00022    0.01291
 19 In   -0.00529   -0.04247   -0.02480
 20 In    0.00369    0.03289    0.03765
 21 In    0.00254    0.06306   -0.07292
 22 In    0.00955    0.00718   -0.00165
 23 In   -0.00711    0.00769   -0.00910
 24 In   -0.01831   -0.03472    0.05040
 25 In   -0.01274    0.00942    0.05783
 26 In   -0.00074   -0.00939    0.00464
 27 In   -0.00788   -0.00488    0.02624
 28 In    0.00723    0.00522    0.03466
 29 In    0.00104   -0.00678    0.05749
 30 In    0.00115   -0.00055   -0.00405
 31 In    0.00633   -0.00520    0.00329
 32 In   -0.00524    0.01260    0.02751
 33 In    0.00349   -0.00132    0.06255
 34 In   -0.00472   -0.00150    0.00089
 35 In    0.01050    0.00674   -0.01513
 36 H    -0.00023   -0.01381    0.04252
 37 O     0.01508    0.02452   -0.03601
 38 C    -0.00338   -0.02013   -0.02509
 39 C     0.02105    0.00399    0.02377
 40 O    -0.01480   -0.05665   -0.02157

BFGS:   40 07:49:17    -5748.708732        0.0624
System changes: positions 

Initializing position-dependent things.

Density initialized from wave functions
                                                  
                                                  
                                                  
                                                  
                                                  
                                                  
                                                  
                     O                            
                    H                             
           In      IOC      In                    
                    C                             
            IIn     InIn    InIn                  
                In      In      In                
              In       In      In                 
                                                  
               InIn     IIn     IIn               
                                                  
                  In      In      In              
                    In       In      In           
           In      In      In                     
                                                  
             In      In       In                  
                In      In      In                
                                                  
                                                  
                                                  
                                                  

Positions:
   0 In    -0.000000    0.000000   10.000000    ( 0.0000,  0.0000,  0.0000)
   1 In     1.696324    0.979373   12.770085    ( 0.0000,  0.0000,  0.0000)
   2 In    -0.004276    1.967260   15.526163    ( 0.0000,  0.0000,  0.0000)
   3 In    -0.016064    0.071262   18.351762    ( 0.0000,  0.0000,  0.0000)
   4 In    -1.696324    2.938119   10.000000    ( 0.0000,  0.0000,  0.0000)
   5 In     0.000000    3.917492   12.770085    ( 0.0000,  0.0000,  0.0000)
   6 In    -1.688037    4.903547   15.493733    ( 0.0000,  0.0000,  0.0000)
   7 In    -1.695627    2.982563   18.278650    ( 0.0000,  0.0000,  0.0000)
   8 In    -3.392647    5.876238   10.000000    ( 0.0000,  0.0000,  0.0000)
   9 In    -1.696324    6.855611   12.770085    ( 0.0000,  0.0000,  0.0000)
  10 In    -3.399264    7.848960   15.561078    ( 0.0000,  0.0000,  0.0000)
  11 In    -3.388493    5.878402   18.254531    ( 0.0000,  0.0000,  0.0000)
  12 In     3.392647    0.000000   10.000000    ( 0.0000,  0.0000,  0.0000)
  13 In     5.088971    0.979373   12.770085    ( 0.0000,  0.0000,  0.0000)
  14 In     3.405348    1.965697   15.536485    ( 0.0000,  0.0000,  0.0000)
  15 In     3.433999    0.060304   18.330337    ( 0.0000,  0.0000,  0.0000)
  16 In     1.696324    2.938119   10.000000    ( 0.0000,  0.0000,  0.0000)
  17 In     3.392647    3.917492   12.770085    ( 0.0000,  0.0000,  0.0000)
  18 In     1.725101    4.959280   15.455822    ( 0.0000,  0.0000,  0.0000)
  19 In     1.683780    3.288956   18.100550    ( 0.0000,  0.0000,  0.0000)
  20 In    -0.000000    5.876238   10.000000    ( 0.0000,  0.0000,  0.0000)
  21 In     1.696324    6.855611   12.770085    ( 0.0000,  0.0000,  0.0000)
  22 In    -0.004266    7.827079   15.509156    ( 0.0000,  0.0000,  0.0000)
  23 In    -0.067795    5.999974   18.371716    ( 0.0000,  0.0000,  0.0000)
  24 In     6.785295    0.000000   10.000000    ( 0.0000,  0.0000,  0.0000)
  25 In     8.481619    0.979373   12.770085    ( 0.0000,  0.0000,  0.0000)
  26 In     6.787269    1.958434   15.508986    ( 0.0000,  0.0000,  0.0000)
  27 In     6.795460    0.059890   18.357070    ( 0.0000,  0.0000,  0.0000)
  28 In     5.088971    2.938119   10.000000    ( 0.0000,  0.0000,  0.0000)
  29 In     6.785295    3.917492   12.770085    ( 0.0000,  0.0000,  0.0000)
  30 In     5.092057    4.907329   15.500104    ( 0.0000,  0.0000,  0.0000)
  31 In     5.092255    2.985836   18.284345    ( 0.0000,  0.0000,  0.0000)
  32 In     3.392647    5.876238   10.000000    ( 0.0000,  0.0000,  0.0000)
  33 In     5.088971    6.855611   12.770085    ( 0.0000,  0.0000,  0.0000)
  34 In     3.398330    7.834278   15.518475    ( 0.0000,  0.0000,  0.0000)
  35 In     3.467801    6.003617   18.368074    ( 0.0000,  0.0000,  0.0000)
  36 H      1.704070    0.446513   21.794429    ( 0.0000,  0.0000,  0.0000)
  37 O      1.746035   -0.155885   21.032236    ( 0.0000,  0.0000,  0.0000)
  38 C      1.734271    0.626689   19.868135    ( 0.0000,  0.0000,  0.0000)
  39 C      1.711534    2.052921   20.078583    ( 0.0000,  0.0000,  0.0000)
  40 O      1.696373    2.640520   21.158174    ( 0.0000,  0.0000,  0.0000)

Unit cell:
           periodic     x           y           z      points  spacing
  1. axis:    yes   10.177942    0.000000    0.000000    48     0.1836
  2. axis:    yes   -5.088971    8.814357    0.000000    48     0.1836
  3. axis:    no     0.000000    0.000000   28.310255   156     0.1815

  Lengths:  10.177942  10.177942  28.310255
  Angles:   90.000000  90.000000 120.000000

Effective grid spacing dv^(1/3) = 0.1919

     iter     time        total  log10-change:
                         energy  eigst   dens
iter:   1 07:50:23 -5748.709467  -3.87
iter:   2 07:50:58 -5748.709395  -4.76  -3.78
iter:   3 07:51:33 -5748.709287c -5.28  -3.84
iter:   4 07:52:09 -5748.709275c -5.55  -3.96
iter:   5 07:52:44 -5748.709259c -5.84  -4.22c
iter:   6 07:53:19 -5748.709246c -5.96  -4.34c
iter:   7 07:53:54 -5748.709235c -6.71  -4.47c
iter:   8 07:54:30 -5748.709236c -7.07  -4.61c
iter:   9 07:55:05 -5748.709251c -7.13  -4.68c
iter:  10 07:55:40 -5748.709246c -7.46c -4.84c

Converged after 10 iterations.

Dipole moment: (-6.226097, -20.855973, -0.544088) |e|*Ang

Energy contributions relative to reference atoms: (reference = -5765264.558761)

Kinetic:       +1246.546295
Potential:     -1166.543760
External:        +0.000000
XC:            -5833.046496
Entropy (-ST):   -0.633935
Local:           +4.651682
--------------------------
Free energy:   -5749.026214
Extrapolated:  -5748.709246

Showing only first 2 kpts
 Kpt  Band  Eigenvalues  Occupancy
  0   242     -4.51946    1.80360
  0   243     -4.42392    1.55873
  0   244     -4.28484    0.93566
  0   245     -4.19775    0.53798

  1   242     -4.53966    1.83658
  1   243     -4.51214    1.79025
  1   244     -4.36551    1.32653
  1   245     -4.30921    1.05735


Fermi level: -4.29772

No gap

Forces in eV/Ang:
  0 In    0.00644   -0.01018    0.02112
  1 In    0.00058   -0.02007    0.10882
  2 In   -0.00973   -0.01415    0.00096
  3 In   -0.01663   -0.00610   -0.00299
  4 In   -0.00733    0.00987    0.04295
  5 In   -0.03787   -0.00504    0.06944
  6 In   -0.00560   -0.00148   -0.00616
  7 In   -0.01093   -0.00117    0.00535
  8 In   -0.00141    0.02318    0.01976
  9 In   -0.00553    0.00204    0.06151
 10 In    0.00267   -0.00191    0.00214
 11 In   -0.00063    0.00227   -0.00395
 12 In    0.00065   -0.01375    0.01436
 13 In    0.01169    0.00935    0.06095
 14 In    0.00833   -0.00857   -0.00344
 15 In    0.01443    0.01096   -0.01434
 16 In   -0.00003   -0.02871    0.01324
 17 In    0.03874   -0.01119    0.05311
 18 In    0.00289    0.00410    0.00785
 19 In   -0.00124   -0.03322   -0.01267
 20 In    0.00295    0.03195    0.03539
 21 In    0.00243    0.06017   -0.07176
 22 In    0.00262    0.00510   -0.00141
 23 In   -0.00582    0.00312   -0.00757
 24 In   -0.01807   -0.03480    0.04818
 25 In   -0.01149    0.01047    0.05733
 26 In   -0.00172   -0.00432    0.00636
 27 In   -0.00528   -0.00069    0.02279
 28 In    0.00680    0.00594    0.03284
 29 In    0.00080   -0.00688    0.05607
 30 In    0.00139   -0.00297   -0.00236
 31 In    0.00400   -0.00338    0.00148
 32 In   -0.00483    0.01200    0.02525
 33 In    0.00449   -0.00116    0.06279
 34 In    0.00099    0.00028   -0.00017
 35 In    0.00683   -0.00167   -0.01083
 36 H     0.00033   -0.00453    0.03595
 37 O     0.00372    0.00539   -0.01470
 38 C     0.01417   -0.01457   -0.01140
 39 C     0.00269    0.00452    0.00943
 40 O    -0.00155   -0.04318   -0.00598

BFGS:   41 07:55:52    -5748.709246        0.0436
Timing:                                      incl.     excl.
-------------------------------------------------------------------
Density initialized from wave functions:    37.648    37.646   0.2% |
 Symmetrize density:                         0.001     0.001   0.0% |
Forces:                                    504.966   504.966   2.2% ||
Hamiltonian:                               200.459     0.006   0.0% |
 Atomic:                                     6.182     0.032   0.0% |
  XC Correction:                             6.149     6.149   0.0% |
 Calculate atomic Hamiltonians:              1.480     1.480   0.0% |
 Communicate:                                0.220     0.220   0.0% |
 Hartree integrate/restrict:                 0.612     0.612   0.0% |
 Initialize Hamiltonian:                     0.000     0.000   0.0% |
 Poisson:                                   10.758     0.463   0.0% |
  Communicate from 1D:                       0.910     0.910   0.0% |
  Communicate from 2D:                       1.743     1.743   0.0% |
  Communicate to 1D:                         0.500     0.500   0.0% |
  Communicate to 2D:                         2.094     2.094   0.0% |
  FFT 1D:                                    2.236     2.236   0.0% |
  FFT 2D:                                    2.812     2.812   0.0% |
 XC 3D grid:                               180.919    47.072   0.2% |
  VdW-DF integral:                         133.847     1.637   0.0% |
   Convolution:                             17.511    17.511   0.1% |
   FFT:                                      9.800     9.800   0.0% |
   gather:                                  37.966    37.966   0.2% |
   hmm1:                                     2.754     2.754   0.0% |
   hmm2:                                     5.791     5.791   0.0% |
   iFFT:                                     9.749     9.749   0.0% |
   potential:                               44.333     0.932   0.0% |
    collect:                                 3.741     3.741   0.0% |
    p1:                                     26.472    26.472   0.1% |
    p2:                                      8.561     8.561   0.0% |
    sum:                                     4.628     4.628   0.0% |
   splines:                                  4.306     4.306   0.0% |
 vbar:                                       0.282     0.282   0.0% |
LCAO initialization:                        26.062     2.165   0.0% |
 LCAO eigensolver:                          10.107     0.003   0.0% |
  Calculate projections:                     0.000     0.000   0.0% |
  DenseAtomicCorrection:                     0.000     0.000   0.0% |
  Distribute overlap matrix:                 9.446     9.446   0.0% |
  Orbital Layouts:                           0.552     0.552   0.0% |
  Potential matrix:                          0.019     0.019   0.0% |
  Sum over cells:                            0.087     0.087   0.0% |
 LCAO to grid:                              12.765    12.765   0.1% |
 Set positions (LCAO WFS):                   1.025     0.819   0.0% |
  Basic WFS set positions:                   0.001     0.001   0.0% |
  Basis functions set positions:             0.000     0.000   0.0% |
  P tci:                                     0.000     0.000   0.0% |
  ST tci:                                    0.153     0.153   0.0% |
  mktci:                                     0.051     0.051   0.0% |
Redistribute:                                0.024     0.024   0.0% |
SCF-cycle:                               20925.845   372.604   1.6% ||
 Davidson:                               17783.485  4667.698  20.5% |-------|
  Apply hamiltonian:                       635.385   635.385   2.8% ||
  Subspace diag:                          2543.487     0.087   0.0% |
   calc_h_matrix:                         1319.531   652.231   2.9% ||
    Apply hamiltonian:                     667.300   667.300   2.9% ||
   diagonalize:                             29.568    29.568   0.1% |
   rotate_psi:                            1194.302  1194.302   5.2% |-|
  calc. matrices:                         7380.563  4215.021  18.5% |------|
   Apply hamiltonian:                     3165.543  3165.543  13.9% |-----|
  diagonalize:                             199.699   199.699   0.9% |
  rotate_psi:                             2356.653  2356.653  10.3% |---|
 Density:                                   51.419     0.015   0.0% |
  Atomic density matrices:                   2.922     2.922   0.0% |
  Mix:                                      13.657    13.657   0.1% |
  Multipole moments:                         0.247     0.247   0.0% |
  Pseudo density:                           34.577    34.556   0.2% |
   Symmetrize density:                       0.021     0.021   0.0% |
 Hamiltonian:                             2582.981     0.068   0.0% |
  Atomic:                                   81.529     0.422   0.0% |
   XC Correction:                           81.107    81.107   0.4% |
  Calculate atomic Hamiltonians:            18.463    18.463   0.1% |
  Communicate:                               2.749     2.749   0.0% |
  Hartree integrate/restrict:                8.186     8.186   0.0% |
  Poisson:                                 141.524     5.660   0.0% |
   Communicate from 1D:                     11.998    11.998   0.1% |
   Communicate from 2D:                     23.006    23.006   0.1% |
   Communicate to 1D:                        6.677     6.677   0.0% |
   Communicate to 2D:                       27.718    27.718   0.1% |
   FFT 1D:                                  29.462    29.462   0.1% |
   FFT 2D:                                  37.004    37.004   0.2% |
  XC 3D grid:                             2329.100   617.706   2.7% ||
   VdW-DF integral:                       1711.395    21.487   0.1% |
    Convolution:                           230.509   230.509   1.0% |
    FFT:                                   127.979   127.979   0.6% |
    gather:                                507.889   507.889   2.2% ||
    hmm1:                                   35.690    35.690   0.2% |
    hmm2:                                   75.333    75.333   0.3% |
    iFFT:                                  128.602   128.602   0.6% |
    potential:                             583.903    12.546   0.1% |
     collect:                               49.665    49.665   0.2% |
     p1:                                   348.849   348.849   1.5% ||
     p2:                                   112.777   112.777   0.5% |
     sum:                                   60.066    60.066   0.3% |
    splines:                                 0.003     0.003   0.0% |
  vbar:                                      1.362     1.362   0.0% |
 Orthonormalize:                           135.356     0.008   0.0% |
  calc_s_matrix:                            21.474    21.474   0.1% |
  inverse-cholesky:                         70.317    70.317   0.3% |
  projections:                               0.002     0.002   0.0% |
  rotate_psi_s:                             43.554    43.554   0.2% |
Set symmetry:                                0.002     0.002   0.0% |
Other:                                    1098.242  1098.242   4.8% |-|
-------------------------------------------------------------------
Total:                                             22793.247 100.0%

Memory usage: 2.16 GiB
Date: Fri Sep 29 07:55:52 2023
