
  ___ ___ ___ _ _ _  
 |   |   |_  | | | | 
 | | | | | . | | | | 
 |__ |  _|___|_____|  22.8.0
 |___|_|             

User:   s204775@a026.nifl.fysik.dtu.dk
Date:   Fri Sep 29 01:36:11 2023
Arch:   x86_64
Pid:    31233
CWD:    /home/cat/s204775/projects/Bachelor_project/OCCOH_missing_features
Python: 3.10.4
gpaw:   /home/modules/software/GPAW/22.8.0-intel-2022a/lib/python3.10/site-packages/gpaw
_gpaw:  /home/modules/software/GPAW/22.8.0-intel-2022a/lib/python3.10/site-packages/
        _gpaw.cpython-310-x86_64-linux-gnu.so
ase:    /home/modules/software/ASE/3.22.1-intel-2022a/lib/python3.10/site-packages/ase (version 3.22.1)
numpy:  /home/modules/software/SciPy-bundle/2022.05-intel-2022a/lib/python3.10/site-packages/numpy (version 1.22.3)
scipy:  /home/modules/software/SciPy-bundle/2022.05-intel-2022a/lib/python3.10/site-packages/scipy (version 1.8.1)
libxc:  5.2.3
units:  Angstrom and eV
cores: 40
OpenMP: False
OMP_NUM_THREADS: 1

Input parameters:
  basis: dzp
  h: 0.18
  kpts: {size: (4, 4, 1)}
  xc: BEEF-vdW

System changes: positions, numbers, cell, pbc, initial_charges, initial_magmoms 

Initialize ...

species:
  Ir:
    name: Iridium
    id: fcdd1dd1ce91fa61afbba7769971f98a
    Z: 77.0
    valence: 15
    core: 62
    charge: 0.0
    file: /home/modules/software/GPAW-setups/0.9.20000/Ir.PBE.gz
    compensation charges: {type: gauss,
                           rc: 0.40,
                           lmax: 2}
    cutoffs: {filter: 2.40,
              core: 2.36}
    valence states:
      #              energy  rcut
      - 6s(2.00)    -6.307   1.296
      - 5p(6.00)   -54.741   1.328
      - 6p(0.00)    -1.224   1.328
      - 5d(7.00)    -7.169   1.286
      -  s          20.905   1.296
      -  d          20.043   1.286
  
    # LCAO basis set for Ir:
    #   Name: dzp
    #   File: /home/modules/software/GPAW-setups/0.9.20000/Ir.dzp.basis.gz
    #   Number of radial functions: 9
    #   Number of spherical harmonics: 27
    #     l=0, rc=8.4062 Bohr: 6s-sz confined orbital
    #     l=1, rc=3.6406 Bohr: 5p-sz confined orbital
    #     l=1, rc=12.7031 Bohr: 6p-sz confined orbital
    #     l=2, rc=6.0469 Bohr: 5d-sz confined orbital
    #     l=0, rc=4.9844 Bohr: 6s-dz split-valence wave
    #     l=1, rc=2.4062 Bohr: 5p-dz split-valence wave
    #     l=1, rc=7.7969 Bohr: 6p-dz split-valence wave
    #     l=2, rc=3.5938 Bohr: 5d-dz split-valence wave
    #     l=1, rc=8.4062 Bohr: p-type Gaussian polarization
    #   Number of RI-basis functions 0

  H:
    name: Hydrogen
    id: d65de229564ff8ea4db303e23b6d1ecf
    Z: 1.0
    valence: 1
    core: 0
    charge: 0.0
    file: /home/modules/software/GPAW-setups/0.9.20000/H.PBE.gz
    compensation charges: {type: gauss,
                           rc: 0.15,
                           lmax: 2}
    cutoffs: {filter: 0.85,
              core: 0.53}
    valence states:
      #              energy  rcut
      - 1s(1.00)    -6.494   0.476
      -  s          20.717   0.476
      -  p           0.000   0.476
  
    # LCAO basis set for H:
    #   Name: dzp
    #   File: /home/modules/software/GPAW-setups/0.9.20000/H.dzp.basis.gz
    #   Number of radial functions: 3
    #   Number of spherical harmonics: 5
    #     l=0, rc=6.4219 Bohr: 1s-sz confined orbital
    #     l=0, rc=3.6094 Bohr: 1s-dz split-valence wave
    #     l=1, rc=6.4219 Bohr: p-type Gaussian polarization
    #   Number of RI-basis functions 0

  O:
    name: Oxygen
    id: 32ecd46bf208036f09c70b0ec9a88b78
    Z: 8.0
    valence: 6
    core: 2
    charge: 0.0
    file: /home/modules/software/GPAW-setups/0.9.20000/O.PBE.gz
    compensation charges: {type: gauss,
                           rc: 0.21,
                           lmax: 2}
    cutoffs: {filter: 1.17,
              core: 0.83}
    valence states:
      #              energy  rcut
      - 2s(2.00)   -23.961   0.688
      - 2p(4.00)    -9.029   0.598
      -  s           3.251   0.688
      -  p          18.182   0.598
      -  d           0.000   0.619
  
    # LCAO basis set for O:
    #   Name: dzp
    #   File: /home/modules/software/GPAW-setups/0.9.20000/O.dzp.basis.gz
    #   Number of radial functions: 5
    #   Number of spherical harmonics: 13
    #     l=0, rc=4.3438 Bohr: 2s-sz confined orbital
    #     l=1, rc=5.3906 Bohr: 2p-sz confined orbital
    #     l=0, rc=2.2969 Bohr: 2s-dz split-valence wave
    #     l=1, rc=2.8906 Bohr: 2p-dz split-valence wave
    #     l=2, rc=5.3906 Bohr: d-type Gaussian polarization
    #   Number of RI-basis functions 0

  C:
    name: Carbon
    id: 4aa54d4b901d75f77cc0ea3eec22967b
    Z: 6.0
    valence: 4
    core: 2
    charge: 0.0
    file: /home/modules/software/GPAW-setups/0.9.20000/C.PBE.gz
    compensation charges: {type: gauss,
                           rc: 0.20,
                           lmax: 2}
    cutoffs: {filter: 1.14,
              core: 1.14}
    valence states:
      #              energy  rcut
      - 2s(2.00)   -13.751   0.635
      - 2p(2.00)    -5.284   0.635
      -  s          13.461   0.635
      -  p          21.927   0.635
      -  d           0.000   0.635
  
    # LCAO basis set for C:
    #   Name: dzp
    #   File: /home/modules/software/GPAW-setups/0.9.20000/C.dzp.basis.gz
    #   Number of radial functions: 5
    #   Number of spherical harmonics: 13
    #     l=0, rc=5.5469 Bohr: 2s-sz confined orbital
    #     l=1, rc=6.6719 Bohr: 2p-sz confined orbital
    #     l=0, rc=3.0312 Bohr: 2s-dz split-valence wave
    #     l=1, rc=3.7500 Bohr: 2p-dz split-valence wave
    #     l=2, rc=6.6719 Bohr: d-type Gaussian polarization
    #   Number of RI-basis functions 0

Reference energy: -17447604.027077  # eV

Spin-paired calculation

Convergence criteria:
 Maximum [total energy] change in last 3 cyles: 0.0005 eV / electron
 Maximum integral of absolute [dens]ity change: 0.0001 electrons / valence electron
 Maximum integral of absolute [eigenst]ate change: 4e-08 eV^2 / valence electron
 Maximum number of scf [iter]ations: 333
 (Square brackets indicate name in SCF output, whereas a 'c' in
 the SCF output indicates the quantity has converged.)

Symmetries present (total): 1

  ( 1  0  0)
  ( 0  1  0)
  ( 0  0  1)

16 k-points: 4 x 4 x 1 Monkhorst-Pack grid
8 k-points in the irreducible part of the Brillouin zone
       k-points in crystal coordinates                weights
   0:     0.12500000   -0.37500000    0.00000000          2/16
   1:     0.12500000   -0.12500000    0.00000000          2/16
   2:     0.12500000    0.12500000    0.00000000          2/16
   3:     0.12500000    0.37500000    0.00000000          2/16
   4:     0.37500000   -0.37500000    0.00000000          2/16
   5:     0.37500000   -0.12500000    0.00000000          2/16
   6:     0.37500000    0.12500000    0.00000000          2/16
   7:     0.37500000    0.37500000    0.00000000          2/16

Wave functions: Uniform real-space grid
  Kinetic energy operator: 8*3+1=25 point O(h^6) finite-difference Laplacian
  ScaLapack parameters: grid=1x1, blocksize=None
  Wavefunction extrapolation:
    Improved wavefunction reuse through dual PAW basis 

Occupation numbers: Fermi-Dirac:
  width: 0.1000  # eV
 

Eigensolver
   Davidson(niter=2) 

Densities:
  Coarse grid: 40*40*148 grid
  Fine grid: 80*80*296 grid
  Total Charge: 0.000000 

Density mixing:
  Method: separate
  Backend: pulay
  Linear mixing parameter: 0.05
  old densities: 5
  Damping of long wavelength oscillations: 50 

Hamiltonian:
  XC and Coulomb potentials evaluated on a 80*80*296 grid
  Using the BEEF-vdW Exchange-Correlation functional
  Interpolation: tri-quintic (5. degree polynomial)
  Poisson solver: FastPoissonSolver using
    Stencil: 8*3+1=25 point O(h^6) finite-difference Laplacian
    FFT axes: [0, 1]
    FST axes: [2]
 

XC parameters: BEEF-vdW with 2 nearest neighbor stencil

Memory estimate:
  Process memory now: 199.91 MiB
  Calculator: 583.95 MiB
    Density: 60.48 MiB
      Arrays: 9.35 MiB
      Localized functions: 47.59 MiB
      Mixer: 3.54 MiB
    Hamiltonian: 9.96 MiB
      Arrays: 6.12 MiB
      XC: 0.00 MiB
      Poisson: 0.00 MiB
      vbar: 3.85 MiB
    Wavefunctions: 513.51 MiB
      Arrays psit_nG: 241.43 MiB
      Eigensolver: 262.72 MiB
      Projections: 0.73 MiB
      Projectors: 8.62 MiB

Total number of cores used: 40
Parallelization over k-points: 8
Domain decomposition: 1 x 1 x 5

Number of atoms: 41
Number of atomic orbitals: 1029
Number of bands in calculation: 341
Number of valence electrons: 561
Bands to converge: occupied

... initialized

Initializing position-dependent things.

Density initialized from atomic densities
Creating initial wave functions:
  341 bands from LCAO basis set

                                             
                                             
                                             
                                             
                                             
                                             
                                             
                    O                        
                  H                          
           Ir     OC    Ir                   
            IIr   CIr    IIr                 
                                             
              Ir    IIr    IIr               
                                             
               IIr   IIr    IIr              
                 Ir    Ir     Ir             
                                             
           Ir     Ir    IIr     Ir           
             Ir    Ir     Ir                 
                                             
              Ir     Ir     Ir               
                                             
                                             
                                             
                                             

Positions:
   0 Ir     0.000000    0.000000    9.999999    ( 0.0000,  0.0000,  0.0000)
   1 Ir     1.378048    0.795616   12.250341    ( 0.0000,  0.0000,  0.0000)
   2 Ir     0.000000    1.592386   14.460828    ( 0.0000,  0.0000,  0.0000)
   3 Ir     0.000000   -0.000000   16.669904    ( 0.0000,  0.0000,  0.0000)
   4 Ir    -1.378048    2.386848    9.999999    ( 0.0000,  0.0000,  0.0000)
   5 Ir     0.000000    3.182464   12.250341    ( 0.0000,  0.0000,  0.0000)
   6 Ir    -1.378795    3.977649   14.461289    ( 0.0000,  0.0000,  0.0000)
   7 Ir    -1.377934    2.386749   16.674368    ( 0.0000,  0.0000,  0.0000)
   8 Ir    -2.756095    4.773697    9.999999    ( 0.0000,  0.0000,  0.0000)
   9 Ir    -1.378048    5.569313   12.250341    ( 0.0000,  0.0000,  0.0000)
  10 Ir    -2.755096    6.364352   14.460828    ( 0.0000,  0.0000,  0.0000)
  11 Ir    -2.756125    4.773845   16.674368    ( 0.0000,  0.0000,  0.0000)
  12 Ir     2.756095    0.000000    9.999999    ( 0.0000,  0.0000,  0.0000)
  13 Ir     4.134143    0.795616   12.250341    ( 0.0000,  0.0000,  0.0000)
  14 Ir     2.756900    1.591697   14.460969    ( 0.0000,  0.0000,  0.0000)
  15 Ir     2.755952   -0.000048   16.674368    ( 0.0000,  0.0000,  0.0000)
  16 Ir     1.378048    2.386848    9.999999    ( 0.0000,  0.0000,  0.0000)
  17 Ir     2.756095    3.182464   12.250341    ( 0.0000,  0.0000,  0.0000)
  18 Ir     1.378795    3.977649   14.461289    ( 0.0000,  0.0000,  0.0000)
  19 Ir     1.377934    2.386749   16.674368    ( 0.0000,  0.0000,  0.0000)
  20 Ir     0.000000    4.773697    9.999999    ( 0.0000,  0.0000,  0.0000)
  21 Ir     1.378048    5.569313   12.250341    ( 0.0000,  0.0000,  0.0000)
  22 Ir     0.000000    6.365791   14.461289    ( 0.0000,  0.0000,  0.0000)
  23 Ir     0.000000    4.773697   16.672467    ( 0.0000,  0.0000,  0.0000)
  24 Ir     5.512190    0.000000    9.999999    ( 0.0000,  0.0000,  0.0000)
  25 Ir     6.890238    0.795616   12.250341    ( 0.0000,  0.0000,  0.0000)
  26 Ir     5.511385    1.591697   14.460969    ( 0.0000,  0.0000,  0.0000)
  27 Ir     5.512333   -0.000048   16.674368    ( 0.0000,  0.0000,  0.0000)
  28 Ir     4.134143    2.386848    9.999999    ( 0.0000,  0.0000,  0.0000)
  29 Ir     5.512190    3.182464   12.250341    ( 0.0000,  0.0000,  0.0000)
  30 Ir     4.134143    3.977150   14.460969    ( 0.0000,  0.0000,  0.0000)
  31 Ir     4.134143    2.386848   16.673700    ( 0.0000,  0.0000,  0.0000)
  32 Ir     2.756095    4.773697    9.999999    ( 0.0000,  0.0000,  0.0000)
  33 Ir     4.134143    5.569313   12.250341    ( 0.0000,  0.0000,  0.0000)
  34 Ir     2.755096    6.364352   14.460828    ( 0.0000,  0.0000,  0.0000)
  35 Ir     2.756125    4.773845   16.674368    ( 0.0000,  0.0000,  0.0000)
  36 H      1.442602   -0.175832   20.011613    ( 0.0000,  0.0000,  0.0000)
  37 O      1.420085   -0.541468   19.219540    ( 0.0000,  0.0000,  0.0000)
  38 C      1.423838    0.324987   18.220447    ( 0.0000,  0.0000,  0.0000)
  39 C      1.350524    1.820955   18.462554    ( 0.0000,  0.0000,  0.0000)
  40 O      1.403077    2.449503   19.745934    ( 0.0000,  0.0000,  0.0000)

Unit cell:
           periodic     x           y           z      points  spacing
  1. axis:    yes    8.268285    0.000000    0.000000    40     0.1790
  2. axis:    yes   -4.134143    7.160545    0.000000    40     0.1790
  3. axis:    no     0.000000    0.000000   26.751025   148     0.1808

  Lengths:   8.268285   8.268285  26.751025
  Angles:   90.000000  90.000000 120.000000

Effective grid spacing dv^(1/3) = 0.1884

     iter     time        total  log10-change:
                         energy  eigst   dens
iter:   1 01:37:35 -11807.157787
iter:   2 01:38:13 -11963.008024  -0.09  -1.34
iter:   3 01:38:50 -11800.037695  -0.89  -1.01
iter:   4 01:39:27 -11795.698599  -1.54  -1.42
iter:   5 01:40:04 -11794.974657  -2.12  -1.47
iter:   6 01:40:41 -11797.450510  -1.22  -1.50
iter:   7 01:41:19 -11794.915654  -2.42  -1.67
iter:   8 01:41:56 -11795.033461  -1.83  -1.71
iter:   9 01:42:33 -11795.486869  -2.50  -1.91
iter:  10 01:43:10 -11795.198430  -1.97  -1.95
iter:  11 01:43:47 -11795.129416  -2.41  -2.19
iter:  12 01:44:24 -11795.124474c -2.95  -2.28
iter:  13 01:45:01 -11795.158776c -2.97  -2.34
iter:  14 01:45:38 -11795.374023c -3.06  -2.43
iter:  15 01:46:16 -11795.101826c -3.17  -2.23
iter:  16 01:46:53 -11795.059515  -3.29  -2.55
iter:  17 01:47:30 -11795.042687c -2.95  -2.72
iter:  18 01:48:07 -11795.044863c -3.69  -3.20
iter:  19 01:48:44 -11795.043379c -4.19  -3.27
iter:  20 01:49:21 -11795.044466c -4.54  -3.32
iter:  21 01:49:58 -11795.043732c -4.84  -3.31
iter:  22 01:50:35 -11795.042375c -5.15  -3.29
iter:  23 01:51:12 -11795.042379c -5.32  -3.46
iter:  24 01:51:50 -11795.042113c -5.49  -3.52
iter:  25 01:52:27 -11795.042557c -5.73  -3.57
iter:  26 01:53:04 -11795.042476c -5.61  -3.61
iter:  27 01:53:41 -11795.043266c -5.77  -3.64
iter:  28 01:54:18 -11795.042791c -5.84  -3.55
iter:  29 01:54:55 -11795.042743c -5.92  -3.72
iter:  30 01:55:32 -11795.042910c -5.95  -3.80
iter:  31 01:56:10 -11795.042744c -6.22  -3.92
iter:  32 01:56:47 -11795.042953c -5.83  -4.03c
iter:  33 01:57:24 -11795.042862c -6.49  -4.16c
iter:  34 01:58:01 -11795.042853c -6.69  -4.01c
iter:  35 01:58:38 -11795.042864c -6.97  -4.27c
iter:  36 01:59:15 -11795.042823c -6.84  -4.35c
iter:  37 01:59:52 -11795.042938c -7.24  -4.47c
iter:  38 02:00:29 -11795.042885c -7.15  -4.56c
iter:  39 02:01:07 -11795.042872c -7.43c -4.78c

Converged after 39 iterations.

Dipole moment: (-4.796275, -8.494406, -0.240006) |e|*Ang

Energy contributions relative to reference atoms: (reference = -17447604.027077)

Kinetic:       +1149.102003
Potential:     -1101.214499
External:        +0.000000
XC:            -11837.294767
Entropy (-ST):   -1.513910
Local:           -4.878654
--------------------------
Free energy:   -11795.799827
Extrapolated:  -11795.042872

Showing only first 2 kpts
 Kpt  Band  Eigenvalues  Occupancy
  0   278     -5.97872    1.29958
  0   279     -5.96367    1.22964
  0   280     -5.89417    0.88678
  0   281     -5.85675    0.70796

  1   278     -6.02494    1.49309
  1   279     -5.97361    1.27612
  1   280     -5.93940    1.11196
  1   281     -5.89493    0.89053


Fermi level: -5.91691

No gap

Forces in eV/Ang:
  0 Ir    0.03767    0.04242    0.29199
  1 Ir    0.00834    0.00785   -0.28459
  2 Ir   -0.01522   -0.04516   -0.43512
  3 Ir    0.00778   -0.08439    0.60889
  4 Ir    0.00584   -0.00373    0.27907
  5 Ir   -0.00319    0.02613   -0.25446
  6 Ir    0.06207    0.00441    0.04587
  7 Ir   -0.46645    0.18248   -0.02955
  8 Ir    0.00567   -0.01612    0.28433
  9 Ir    0.02971    0.02125   -0.27913
 10 Ir    0.00768    0.05200   -0.37947
 11 Ir   -0.01314   -0.65041   -0.20099
 12 Ir   -0.02317    0.03992    0.31907
 13 Ir    0.04361   -0.06123   -0.33228
 14 Ir    0.02866   -0.03452   -0.43517
 15 Ir    0.14604   -0.06812    0.40653
 16 Ir    0.00418   -0.04179    0.31078
 17 Ir   -0.01409    0.02334   -0.26479
 18 Ir    0.01430    0.28545   -0.34484
 19 Ir   -0.08584    1.83848   -1.47264
 20 Ir    0.01976    0.01152    0.39955
 21 Ir    0.00917   -0.00938   -1.03664
 22 Ir    0.28088   -0.19949   -0.27367
 23 Ir   -0.01370    0.05866   -0.12243
 24 Ir   -0.00632   -0.01071    0.44180
 25 Ir   -0.07490   -0.03747   -0.32651
 26 Ir    0.01505   -0.02699    0.05065
 27 Ir   -0.00068    0.00422   -0.10632
 28 Ir   -0.00120   -0.00464    0.25936
 29 Ir    0.00157   -0.01371   -0.37968
 30 Ir   -0.03883    0.01344    0.06048
 31 Ir    0.44922    0.19826   -0.04005
 32 Ir   -0.01738    0.00259    0.42981
 33 Ir   -0.04484   -0.00221   -0.29695
 34 Ir   -0.25264   -0.19713   -0.26253
 35 Ir    0.01239    0.06212   -0.11103
 36 H     0.11155    3.12917    6.12366
 37 O    -0.08075   -3.95276   -4.70794
 38 C    -0.41279    1.50558    0.40124
 39 C     0.68165    1.27863    8.20932
 40 O    -0.42957   -3.33075   -6.43884

      Step     Time          Energy         fmax
BFGS:    0 02:01:27   -11795.042872        8.3362
System changes: positions 

Initializing position-dependent things.

Density initialized from wave functions
                                             
                                             
                                             
                                             
                                             
                                             
                                             
                    O                        
                  HC                         
           Ir     Or    Ir                   
            IIr   CIr    IIr                 
                                             
              IIr   IIr    IIr               
                                             
               IIr   IIr    IIr              
                 Ir    Ir     Ir             
                                             
           Ir     Ir    IIr     Ir           
             Ir    Ir     Ir                 
                                             
               Ir    Ir     Ir               
                                             
                                             
                                             
                                             

Positions:
   0 Ir     0.000000    0.000000    9.999999    ( 0.0000,  0.0000,  0.0000)
   1 Ir     1.378048    0.795616   12.250341    ( 0.0000,  0.0000,  0.0000)
   2 Ir    -0.000217    1.591741   14.454612    ( 0.0000,  0.0000,  0.0000)
   3 Ir     0.000111   -0.001206   16.678602    ( 0.0000,  0.0000,  0.0000)
   4 Ir    -1.378048    2.386848    9.999999    ( 0.0000,  0.0000,  0.0000)
   5 Ir     0.000000    3.182464   12.250341    ( 0.0000,  0.0000,  0.0000)
   6 Ir    -1.377908    3.977712   14.461944    ( 0.0000,  0.0000,  0.0000)
   7 Ir    -1.384598    2.389355   16.673946    ( 0.0000,  0.0000,  0.0000)
   8 Ir    -2.756095    4.773697    9.999999    ( 0.0000,  0.0000,  0.0000)
   9 Ir    -1.378048    5.569313   12.250341    ( 0.0000,  0.0000,  0.0000)
  10 Ir    -2.754986    6.365095   14.455407    ( 0.0000,  0.0000,  0.0000)
  11 Ir    -2.756312    4.764553   16.671497    ( 0.0000,  0.0000,  0.0000)
  12 Ir     2.756095    0.000000    9.999999    ( 0.0000,  0.0000,  0.0000)
  13 Ir     4.134143    0.795616   12.250341    ( 0.0000,  0.0000,  0.0000)
  14 Ir     2.757310    1.591204   14.454752    ( 0.0000,  0.0000,  0.0000)
  15 Ir     2.758038   -0.001021   16.680176    ( 0.0000,  0.0000,  0.0000)
  16 Ir     1.378048    2.386848    9.999999    ( 0.0000,  0.0000,  0.0000)
  17 Ir     2.756095    3.182464   12.250341    ( 0.0000,  0.0000,  0.0000)
  18 Ir     1.378999    3.981727   14.456363    ( 0.0000,  0.0000,  0.0000)
  19 Ir     1.376708    2.413013   16.653330    ( 0.0000,  0.0000,  0.0000)
  20 Ir     0.000000    4.773697    9.999999    ( 0.0000,  0.0000,  0.0000)
  21 Ir     1.378048    5.569313   12.250341    ( 0.0000,  0.0000,  0.0000)
  22 Ir     0.004013    6.362942   14.457380    ( 0.0000,  0.0000,  0.0000)
  23 Ir    -0.000196    4.774535   16.670718    ( 0.0000,  0.0000,  0.0000)
  24 Ir     5.512190    0.000000    9.999999    ( 0.0000,  0.0000,  0.0000)
  25 Ir     6.890238    0.795616   12.250341    ( 0.0000,  0.0000,  0.0000)
  26 Ir     5.511600    1.591312   14.461692    ( 0.0000,  0.0000,  0.0000)
  27 Ir     5.512323    0.000012   16.672849    ( 0.0000,  0.0000,  0.0000)
  28 Ir     4.134143    2.386848    9.999999    ( 0.0000,  0.0000,  0.0000)
  29 Ir     5.512190    3.182464   12.250341    ( 0.0000,  0.0000,  0.0000)
  30 Ir     4.133588    3.977342   14.461833    ( 0.0000,  0.0000,  0.0000)
  31 Ir     4.140560    2.389681   16.673128    ( 0.0000,  0.0000,  0.0000)
  32 Ir     2.756095    4.773697    9.999999    ( 0.0000,  0.0000,  0.0000)
  33 Ir     4.134143    5.569313   12.250341    ( 0.0000,  0.0000,  0.0000)
  34 Ir     2.751487    6.361536   14.457078    ( 0.0000,  0.0000,  0.0000)
  35 Ir     2.756302    4.774732   16.672782    ( 0.0000,  0.0000,  0.0000)
  36 H      1.444195   -0.131129   20.099094    ( 0.0000,  0.0000,  0.0000)
  37 O      1.418931   -0.597936   19.152284    ( 0.0000,  0.0000,  0.0000)
  38 C      1.417941    0.346496   18.226179    ( 0.0000,  0.0000,  0.0000)
  39 C      1.360261    1.839221   18.579830    ( 0.0000,  0.0000,  0.0000)
  40 O      1.396940    2.401921   19.653951    ( 0.0000,  0.0000,  0.0000)

Unit cell:
           periodic     x           y           z      points  spacing
  1. axis:    yes    8.268285    0.000000    0.000000    40     0.1790
  2. axis:    yes   -4.134143    7.160545    0.000000    40     0.1790
  3. axis:    no     0.000000    0.000000   26.751025   148     0.1808

  Lengths:   8.268285   8.268285  26.751025
  Angles:   90.000000  90.000000 120.000000

Effective grid spacing dv^(1/3) = 0.1884

     iter     time        total  log10-change:
                         energy  eigst   dens
iter:   1 02:03:02 -11800.099376  -0.85
iter:   2 02:03:40 -11804.126602  -1.50  -1.97
iter:   3 02:04:18 -11814.091960  -1.36  -1.61
iter:   4 02:04:56 -11797.637753  -1.82  -1.44
iter:   5 02:05:34 -11796.881515  -2.33  -2.06
iter:   6 02:06:12 -11796.686839  -2.28  -2.50
iter:   7 02:06:50 -11796.486430  -2.20  -2.41
iter:   8 02:07:28 -11796.432817c -2.74  -2.71
iter:   9 02:08:06 -11796.431877c -2.80  -2.91
iter:  10 02:08:44 -11796.503317c -3.29  -2.77
iter:  11 02:09:22 -11796.407401c -3.66  -2.53
iter:  12 02:10:00 -11796.408283c -3.94  -3.23
iter:  13 02:10:38 -11796.406526c -4.27  -3.26
iter:  14 02:11:16 -11796.406902c -4.46  -3.32
iter:  15 02:11:54 -11796.406507c -4.91  -3.56
iter:  16 02:12:31 -11796.409030c -4.90  -3.64
iter:  17 02:13:09 -11796.407935c -5.22  -3.27
iter:  18 02:13:47 -11796.406487c -5.30  -3.44
iter:  19 02:14:25 -11796.407012c -5.38  -3.91
iter:  20 02:15:03 -11796.406791c -5.73  -4.01c
iter:  21 02:15:41 -11796.406986c -6.27  -4.16c
iter:  22 02:16:19 -11796.407092c -6.14  -4.24c
iter:  23 02:16:57 -11796.407487c -5.88  -4.04c
iter:  24 02:17:35 -11796.407014c -6.14  -3.57
iter:  25 02:18:13 -11796.406873c -6.66  -4.48c
iter:  26 02:18:51 -11796.406917c -7.22  -4.62c
iter:  27 02:19:29 -11796.406859c -7.13  -4.64c
iter:  28 02:20:07 -11796.406893c -7.03  -4.78c
iter:  29 02:20:45 -11796.406920c -7.54c -4.95c

Converged after 29 iterations.

Dipole moment: (-3.953301, -9.399090, 0.098275) |e|*Ang

Energy contributions relative to reference atoms: (reference = -17447604.027077)

Kinetic:       +1146.762352
Potential:     -1100.391146
External:        +0.000000
XC:            -11837.175101
Entropy (-ST):   -1.504511
Local:           -4.850769
--------------------------
Free energy:   -11797.159175
Extrapolated:  -11796.406920

Showing only first 2 kpts
 Kpt  Band  Eigenvalues  Occupancy
  0   278     -5.65639    1.29509
  0   279     -5.64261    1.23096
  0   280     -5.56755    0.86081
  0   281     -5.53565    0.70907

  1   278     -5.70590    1.50176
  1   279     -5.65393    1.28379
  1   280     -5.61209    1.08246
  1   281     -5.57323    0.88878


Fermi level: -5.59557

No gap

Forces in eV/Ang:
  0 Ir    0.03852    0.04091    0.28642
  1 Ir    0.00789    0.00644   -0.32881
  2 Ir   -0.00432   -0.06906   -0.23034
  3 Ir    0.09521    0.14699    0.51651
  4 Ir    0.00692   -0.00335    0.28265
  5 Ir   -0.01601    0.02868   -0.27899
  6 Ir    0.04225   -0.00057    0.00948
  7 Ir   -0.30261    0.11249   -0.02795
  8 Ir    0.00711   -0.01494    0.28320
  9 Ir    0.02590    0.00578   -0.29956
 10 Ir    0.00270    0.05351   -0.22599
 11 Ir   -0.00781   -0.52278   -0.21372
 12 Ir   -0.02361    0.03842    0.31202
 13 Ir    0.06077   -0.06001   -0.37108
 14 Ir    0.00883   -0.05636   -0.22415
 15 Ir    0.03090    0.19525    0.36249
 16 Ir    0.00503   -0.04235    0.29716
 17 Ir   -0.00051    0.02616   -0.29115
 18 Ir    0.01255    0.24634   -0.32778
 19 Ir   -0.07539    0.80308    0.26833
 20 Ir    0.02100    0.01391    0.38874
 21 Ir    0.00643   -0.01328   -1.07602
 22 Ir    0.19778   -0.13165   -0.22502
 23 Ir   -0.02465    0.08116   -0.12528
 24 Ir   -0.00569   -0.02154    0.40970
 25 Ir   -0.09553   -0.03838   -0.36969
 26 Ir    0.01394   -0.02952    0.00578
 27 Ir    0.00311    0.02416   -0.09637
 28 Ir   -0.00277   -0.00415    0.26321
 29 Ir    0.00200   -0.01016   -0.38664
 30 Ir   -0.01968    0.00839    0.01918
 31 Ir    0.30350    0.13085   -0.03496
 32 Ir   -0.01959    0.00719    0.41702
 33 Ir   -0.04200   -0.01534   -0.31478
 34 Ir   -0.15720   -0.11914   -0.20782
 35 Ir    0.02469    0.08725   -0.11789
 36 H    -0.10084   -1.29062   -2.28161
 37 O     0.11748    0.38925    4.39211
 38 C    -0.33946    1.13427   -0.42961
 39 C     0.41317   -0.59017    0.22746
 40 O    -0.16695   -0.58367   -0.32232

BFGS:    1 02:21:06   -11796.406920        4.4109
System changes: positions 

Initializing position-dependent things.

Density initialized from wave functions
                                             
                                             
                                             
                                             
                                             
                                             
                                             
                    O                        
                  HC                         
           Ir     Or    Ir                   
            IIr   CIr    IIr                 
                                             
              IIr   IIr    IIr               
                                             
               IIr   IIr    IIr              
                 Ir    Ir     Ir             
                                             
           Ir     Ir    IIr     Ir           
             Ir    Ir     Ir                 
                                             
               Ir    Ir     Ir               
                                             
                                             
                                             
                                             

Positions:
   0 Ir     0.000000    0.000000    9.999999    ( 0.0000,  0.0000,  0.0000)
   1 Ir     1.378048    0.795616   12.250341    ( 0.0000,  0.0000,  0.0000)
   2 Ir    -0.000293    1.590812   14.451123    ( 0.0000,  0.0000,  0.0000)
   3 Ir     0.001317    0.000524   16.685923    ( 0.0000,  0.0000,  0.0000)
   4 Ir    -1.378048    2.386848    9.999999    ( 0.0000,  0.0000,  0.0000)
   5 Ir     0.000000    3.182464   12.250341    ( 0.0000,  0.0000,  0.0000)
   6 Ir    -1.377292    3.977711   14.462126    ( 0.0000,  0.0000,  0.0000)
   7 Ir    -1.389038    2.391018   16.673554    ( 0.0000,  0.0000,  0.0000)
   8 Ir    -2.756095    4.773697    9.999999    ( 0.0000,  0.0000,  0.0000)
   9 Ir    -1.378048    5.569313   12.250341    ( 0.0000,  0.0000,  0.0000)
  10 Ir    -2.754942    6.365838   14.452049    ( 0.0000,  0.0000,  0.0000)
  11 Ir    -2.756429    4.757096   16.668537    ( 0.0000,  0.0000,  0.0000)
  12 Ir     2.756095    0.000000    9.999999    ( 0.0000,  0.0000,  0.0000)
  13 Ir     4.134143    0.795616   12.250341    ( 0.0000,  0.0000,  0.0000)
  14 Ir     2.757460    1.590449   14.451340    ( 0.0000,  0.0000,  0.0000)
  15 Ir     2.758627    0.001337   16.685285    ( 0.0000,  0.0000,  0.0000)
  16 Ir     1.378048    2.386848    9.999999    ( 0.0000,  0.0000,  0.0000)
  17 Ir     2.756095    3.182464   12.250341    ( 0.0000,  0.0000,  0.0000)
  18 Ir     1.379176    3.985212   14.451774    ( 0.0000,  0.0000,  0.0000)
  19 Ir     1.375644    2.425619   16.654678    ( 0.0000,  0.0000,  0.0000)
  20 Ir     0.000000    4.773697    9.999999    ( 0.0000,  0.0000,  0.0000)
  21 Ir     1.378048    5.569313   12.250341    ( 0.0000,  0.0000,  0.0000)
  22 Ir     0.006881    6.361015   14.454179    ( 0.0000,  0.0000,  0.0000)
  23 Ir    -0.000524    4.775634   16.668977    ( 0.0000,  0.0000,  0.0000)
  24 Ir     5.512190    0.000000    9.999999    ( 0.0000,  0.0000,  0.0000)
  25 Ir     6.890238    0.795616   12.250341    ( 0.0000,  0.0000,  0.0000)
  26 Ir     5.511795    1.590904   14.461834    ( 0.0000,  0.0000,  0.0000)
  27 Ir     5.512361    0.000321   16.671493    ( 0.0000,  0.0000,  0.0000)
  28 Ir     4.134143    2.386848    9.999999    ( 0.0000,  0.0000,  0.0000)
  29 Ir     5.512190    3.182464   12.250341    ( 0.0000,  0.0000,  0.0000)
  30 Ir     4.133287    3.977466   14.462156    ( 0.0000,  0.0000,  0.0000)
  31 Ir     4.144987    2.391596   16.672634    ( 0.0000,  0.0000,  0.0000)
  32 Ir     2.756095    4.773697    9.999999    ( 0.0000,  0.0000,  0.0000)
  33 Ir     4.134143    5.569313   12.250341    ( 0.0000,  0.0000,  0.0000)
  34 Ir     2.749166    6.359769   14.454108    ( 0.0000,  0.0000,  0.0000)
  35 Ir     2.756629    4.775913   16.671149    ( 0.0000,  0.0000,  0.0000)
  36 H      1.443082   -0.143040   20.078851    ( 0.0000,  0.0000,  0.0000)
  37 O      1.420295   -0.598474   19.200970    ( 0.0000,  0.0000,  0.0000)
  38 C      1.413112    0.362804   18.221336    ( 0.0000,  0.0000,  0.0000)
  39 C      1.366385    1.833566   18.593954    ( 0.0000,  0.0000,  0.0000)
  40 O      1.394254    2.390021   19.641067    ( 0.0000,  0.0000,  0.0000)

Unit cell:
           periodic     x           y           z      points  spacing
  1. axis:    yes    8.268285    0.000000    0.000000    40     0.1790
  2. axis:    yes   -4.134143    7.160545    0.000000    40     0.1790
  3. axis:    no     0.000000    0.000000   26.751025   148     0.1808

  Lengths:   8.268285   8.268285  26.751025
  Angles:   90.000000  90.000000 120.000000

Effective grid spacing dv^(1/3) = 0.1884

     iter     time        total  log10-change:
                         energy  eigst   dens
iter:   1 02:22:39 -11797.317733  -1.75
iter:   2 02:23:17 -11803.564209  -1.86  -2.18
iter:   3 02:23:55 -11797.173408  -2.16  -1.64
iter:   4 02:24:33 -11796.689544  -3.05  -2.20
iter:   5 02:25:11 -11796.655638  -3.36  -2.76
iter:   6 02:25:49 -11796.635302c -3.08  -2.94
iter:   7 02:26:27 -11796.628103c -3.36  -3.04
iter:   8 02:27:05 -11796.623344c -3.68  -3.23
iter:   9 02:27:43 -11796.623972c -4.23  -3.40
iter:  10 02:28:21 -11796.630580c -4.36  -3.34
iter:  11 02:28:59 -11796.621881c -4.75  -3.08
iter:  12 02:29:37 -11796.622311c -5.10  -3.65
iter:  13 02:30:15 -11796.621896c -5.44  -3.87
iter:  14 02:30:53 -11796.622140c -5.70  -4.02c
iter:  15 02:31:31 -11796.621930c -5.95  -3.99
iter:  16 02:32:09 -11796.622016c -6.38  -4.22c
iter:  17 02:32:47 -11796.622338c -6.29  -4.20c
iter:  18 02:33:25 -11796.621962c -6.62  -3.93
iter:  19 02:34:03 -11796.622137c -6.46  -4.39c
iter:  20 02:34:41 -11796.622066c -6.81  -4.51c
iter:  21 02:35:19 -11796.622091c -7.14  -4.54c
iter:  22 02:35:57 -11796.622069c -7.64c -4.85c

Converged after 22 iterations.

Dipole moment: (-3.662158, -9.353913, 0.079471) |e|*Ang

Energy contributions relative to reference atoms: (reference = -17447604.027077)

Kinetic:       +1149.014929
Potential:     -1102.153350
External:        +0.000000
XC:            -11837.894222
Entropy (-ST):   -1.502061
Local:           -4.838395
--------------------------
Free energy:   -11797.373099
Extrapolated:  -11796.622069

Showing only first 2 kpts
 Kpt  Band  Eigenvalues  Occupancy
  0   278     -5.67386    1.29759
  0   279     -5.65927    1.22975
  0   280     -5.58166    0.84707
  0   281     -5.55323    0.71212

  1   278     -5.72335    1.50376
  1   279     -5.67084    1.28378
  1   280     -5.63196    1.09709
  1   281     -5.59167    0.89631


Fermi level: -5.61248

No gap

Forces in eV/Ang:
  0 Ir    0.04078    0.04014    0.28506
  1 Ir    0.00765    0.00942   -0.35062
  2 Ir    0.01820   -0.06062   -0.13074
  3 Ir    0.11998    0.13358    0.49528
  4 Ir    0.00614   -0.00107    0.28390
  5 Ir   -0.02289    0.02835   -0.29300
  6 Ir    0.03816   -0.00131   -0.00802
  7 Ir   -0.22245    0.08465   -0.03649
  8 Ir    0.00766   -0.01477    0.28231
  9 Ir    0.02376   -0.00224   -0.30630
 10 Ir    0.00232    0.05802   -0.12699
 11 Ir   -0.00172   -0.37895   -0.16258
 12 Ir   -0.02614    0.03798    0.30943
 13 Ir    0.06367   -0.05367   -0.37984
 14 Ir   -0.01460   -0.04781   -0.12448
 15 Ir   -0.00740    0.17030    0.36075
 16 Ir    0.00534   -0.04646    0.29243
 17 Ir    0.00720    0.02669   -0.30590
 18 Ir    0.01248    0.20191   -0.29734
 19 Ir   -0.04110    0.61344    0.27689
 20 Ir    0.01872    0.01316    0.38566
 21 Ir    0.00460   -0.01651   -1.12639
 22 Ir    0.13012   -0.08033   -0.15958
 23 Ir   -0.02890    0.09565   -0.12070
 24 Ir   -0.00568   -0.02408    0.40776
 25 Ir   -0.09983   -0.03330   -0.37936
 26 Ir    0.01192   -0.03049   -0.01068
 27 Ir    0.00515    0.02297   -0.09422
 28 Ir   -0.00239   -0.00231    0.26440
 29 Ir    0.00263   -0.00940   -0.39091
 30 Ir   -0.01704    0.00695   -0.00252
 31 Ir    0.23067    0.10022   -0.04014
 32 Ir   -0.01775    0.00747    0.41227
 33 Ir   -0.04026   -0.02252   -0.32147
 34 Ir   -0.08695   -0.06582   -0.13714
 35 Ir    0.02701    0.09871   -0.11726
 36 H    -0.04437   -0.40115   -0.47662
 37 O     0.04985    0.53013    1.33005
 38 C    -0.28568   -0.15017    0.62450
 39 C     0.27941   -1.21362   -1.54761
 40 O    -0.09725    0.41673    1.44172

BFGS:    2 02:36:18   -11796.622069        1.9865
System changes: positions 

Initializing position-dependent things.

Density initialized from wave functions
                                             
                                             
                                             
                                             
                                             
                                             
                                             
                    O                        
                  HC                         
           Ir     Or    Ir                   
            IIr   CIr    IIr                 
                                             
              IIr   IIr    IIr               
                                             
               IIr   IIr    IIr              
                 Ir    Ir     Ir             
                                             
           Ir     Ir    IIr     Ir           
             Ir    Ir     Ir                 
                                             
               Ir    Ir     Ir               
                                             
                                             
                                             
                                             

Positions:
   0 Ir     0.000000    0.000000    9.999999    ( 0.0000,  0.0000,  0.0000)
   1 Ir     1.378048    0.795616   12.250341    ( 0.0000,  0.0000,  0.0000)
   2 Ir    -0.000003    1.589437   14.447577    ( 0.0000,  0.0000,  0.0000)
   3 Ir     0.003810    0.003398   16.697140    ( 0.0000,  0.0000,  0.0000)
   4 Ir    -1.378048    2.386848    9.999999    ( 0.0000,  0.0000,  0.0000)
   5 Ir     0.000000    3.182464   12.250341    ( 0.0000,  0.0000,  0.0000)
   6 Ir    -1.376407    3.977689   14.462058    ( 0.0000,  0.0000,  0.0000)
   7 Ir    -1.394505    2.393092   16.672780    ( 0.0000,  0.0000,  0.0000)
   8 Ir    -2.756095    4.773697    9.999999    ( 0.0000,  0.0000,  0.0000)
   9 Ir    -1.378048    5.569313   12.250341    ( 0.0000,  0.0000,  0.0000)
  10 Ir    -2.754884    6.367109   14.448627    ( 0.0000,  0.0000,  0.0000)
  11 Ir    -2.756500    4.747858   16.664675    ( 0.0000,  0.0000,  0.0000)
  12 Ir     2.756095    0.000000    9.999999    ( 0.0000,  0.0000,  0.0000)
  13 Ir     4.134143    0.795616   12.250341    ( 0.0000,  0.0000,  0.0000)
  14 Ir     2.757262    1.589358   14.447929    ( 0.0000,  0.0000,  0.0000)
  15 Ir     2.758731    0.005061   16.693372    ( 0.0000,  0.0000,  0.0000)
  16 Ir     1.378048    2.386848    9.999999    ( 0.0000,  0.0000,  0.0000)
  17 Ir     2.756095    3.182464   12.250341    ( 0.0000,  0.0000,  0.0000)
  18 Ir     1.379456    3.989958   14.444983    ( 0.0000,  0.0000,  0.0000)
  19 Ir     1.374554    2.440977   16.659530    ( 0.0000,  0.0000,  0.0000)
  20 Ir     0.000000    4.773697    9.999999    ( 0.0000,  0.0000,  0.0000)
  21 Ir     1.378048    5.569313   12.250341    ( 0.0000,  0.0000,  0.0000)
  22 Ir     0.010170    6.358926   14.450269    ( 0.0000,  0.0000,  0.0000)
  23 Ir    -0.001140    4.777682   16.666265    ( 0.0000,  0.0000,  0.0000)
  24 Ir     5.512190    0.000000    9.999999    ( 0.0000,  0.0000,  0.0000)
  25 Ir     6.890238    0.795616   12.250341    ( 0.0000,  0.0000,  0.0000)
  26 Ir     5.512072    1.590230   14.461708    ( 0.0000,  0.0000,  0.0000)
  27 Ir     5.512464    0.000825   16.669374    ( 0.0000,  0.0000,  0.0000)
  28 Ir     4.134143    2.386848    9.999999    ( 0.0000,  0.0000,  0.0000)
  29 Ir     5.512190    3.182464   12.250341    ( 0.0000,  0.0000,  0.0000)
  30 Ir     4.132881    3.977632   14.462235    ( 0.0000,  0.0000,  0.0000)
  31 Ir     4.150590    2.394028   16.671760    ( 0.0000,  0.0000,  0.0000)
  32 Ir     2.756095    4.773697    9.999999    ( 0.0000,  0.0000,  0.0000)
  33 Ir     4.134143    5.569313   12.250341    ( 0.0000,  0.0000,  0.0000)
  34 Ir     2.746819    6.357987   14.450669    ( 0.0000,  0.0000,  0.0000)
  35 Ir     2.757211    4.778041   16.668536    ( 0.0000,  0.0000,  0.0000)
  36 H      1.441978   -0.153005   20.065740    ( 0.0000,  0.0000,  0.0000)
  37 O      1.421586   -0.590527   19.238646    ( 0.0000,  0.0000,  0.0000)
  38 C      1.406427    0.365902   18.230812    ( 0.0000,  0.0000,  0.0000)
  39 C      1.373458    1.810870   18.573849    ( 0.0000,  0.0000,  0.0000)
  40 O      1.391556    2.392483   19.660237    ( 0.0000,  0.0000,  0.0000)

Unit cell:
           periodic     x           y           z      points  spacing
  1. axis:    yes    8.268285    0.000000    0.000000    40     0.1790
  2. axis:    yes   -4.134143    7.160545    0.000000    40     0.1790
  3. axis:    no     0.000000    0.000000   26.751025   148     0.1808

  Lengths:   8.268285   8.268285  26.751025
  Angles:   90.000000  90.000000 120.000000

Effective grid spacing dv^(1/3) = 0.1884

     iter     time        total  log10-change:
                         energy  eigst   dens
iter:   1 02:37:52 -11797.071798  -1.76
iter:   2 02:38:30 -11800.261167  -2.13  -2.33
iter:   3 02:39:08 -11796.771096  -2.59  -1.77
iter:   4 02:39:46 -11796.698475  -3.13  -2.77
iter:   5 02:40:24 -11796.670372c -3.16  -2.95
iter:   6 02:41:02 -11796.669014c -3.66  -3.02
iter:   7 02:41:40 -11796.661519c -3.86  -3.08
iter:   8 02:42:18 -11796.665887c -3.69  -3.26
iter:   9 02:42:56 -11796.670192c -4.21  -3.05
iter:  10 02:43:34 -11796.657394c -4.26  -2.94
iter:  11 02:44:12 -11796.656533c -4.47  -3.51
iter:  12 02:44:50 -11796.655880c -4.89  -3.74
iter:  13 02:45:28 -11796.656550c -5.66  -3.85
iter:  14 02:46:06 -11796.656131c -5.72  -3.86
iter:  15 02:46:44 -11796.656236c -5.81  -4.05c
iter:  16 02:47:22 -11796.656692c -5.98  -3.98
iter:  17 02:48:00 -11796.656259c -6.41  -3.76
iter:  18 02:48:39 -11796.656318c -6.35  -4.39c
iter:  19 02:49:16 -11796.656246c -6.94  -4.59c
iter:  20 02:49:55 -11796.656351c -6.99  -4.68c
iter:  21 02:50:33 -11796.656239c -7.21  -4.72c
iter:  22 02:51:11 -11796.656308c -7.11  -4.81c
iter:  23 02:51:49 -11796.656283c -7.66c -4.55c

Converged after 23 iterations.

Dipole moment: (-3.237694, -9.496711, -0.030350) |e|*Ang

Energy contributions relative to reference atoms: (reference = -17447604.027077)

Kinetic:       +1146.923356
Potential:     -1100.262545
External:        +0.000000
XC:            -11837.719735
Entropy (-ST):   -1.499891
Local:           -4.847413
--------------------------
Free energy:   -11797.406229
Extrapolated:  -11796.656283

Showing only first 2 kpts
 Kpt  Band  Eigenvalues  Occupancy
  0   278     -5.77896    1.30594
  0   279     -5.76176    1.22608
  0   280     -5.68502    0.84756
  0   281     -5.65695    0.71416

  1   278     -5.82545    1.49937
  1   279     -5.78017    1.31138
  1   280     -5.74133    1.12721
  1   281     -5.69802    0.91158


Fermi level: -5.71575

No gap

Forces in eV/Ang:
  0 Ir    0.04439    0.03964    0.28113
  1 Ir    0.00765    0.01316   -0.37175
  2 Ir    0.04645   -0.03321   -0.03238
  3 Ir    0.09463    0.08506    0.38028
  4 Ir    0.00424    0.00014    0.28194
  5 Ir   -0.03159    0.02564   -0.30607
  6 Ir    0.03477   -0.00128   -0.02855
  7 Ir   -0.12851    0.04951   -0.04452
  8 Ir    0.00788   -0.01380    0.28092
  9 Ir    0.02024   -0.00923   -0.31386
 10 Ir    0.00270    0.06076   -0.00899
 11 Ir    0.00444   -0.20459   -0.11171
 12 Ir   -0.03027    0.03794    0.30454
 13 Ir    0.06429   -0.04342   -0.38036
 14 Ir   -0.04197   -0.02359   -0.02685
 15 Ir   -0.02753    0.10615    0.27599
 16 Ir    0.00569   -0.05083    0.28659
 17 Ir    0.01639    0.02539   -0.31935
 18 Ir    0.01315    0.14381   -0.24334
 19 Ir   -0.00135    0.40134    0.19081
 20 Ir    0.01759    0.01060    0.38365
 21 Ir    0.00286    0.00616   -1.19857
 22 Ir    0.04541   -0.02115   -0.08614
 23 Ir   -0.02950    0.11063   -0.11199
 24 Ir   -0.00567   -0.02170    0.40769
 25 Ir   -0.10223   -0.02492   -0.38069
 26 Ir    0.00964   -0.02460   -0.02676
 27 Ir    0.00725    0.02099   -0.08515
 28 Ir   -0.00047   -0.00222    0.26224
 29 Ir    0.00376   -0.00849   -0.39361
 30 Ir   -0.01666    0.00507   -0.02751
 31 Ir    0.14605    0.06147   -0.04463
 32 Ir   -0.01705    0.00579    0.40786
 33 Ir   -0.03668   -0.02912   -0.33007
 34 Ir   -0.00100   -0.00587   -0.05820
 35 Ir    0.02683    0.10922   -0.11403
 36 H     0.01271    0.89334    1.83727
 37 O    -0.05902   -0.49654   -1.50092
 38 C    -0.17954   -0.72935    0.90483
 39 C     0.22278    0.61029    1.45177
 40 O    -0.08014   -1.05949   -1.35619

BFGS:    3 02:52:10   -11796.656283        2.0430
System changes: positions 

Initializing position-dependent things.

Density initialized from wave functions
                                             
                                             
                                             
                                             
                                             
                                             
                                             
                   O                         
                  HC                         
           Ir     Or    Ir                   
            IIr   CIr    IIr                 
                                             
              IIr   IIr    IIr               
                                             
               IIr   IIr    IIr              
                 Ir    Ir     Ir             
                                             
           Ir     Ir    IIr     Ir           
             Ir    Ir     Ir                 
                                             
               Ir    Ir     Ir               
                                             
                                             
                                             
                                             

Positions:
   0 Ir     0.000000    0.000000    9.999999    ( 0.0000,  0.0000,  0.0000)
   1 Ir     1.378048    0.795616   12.250341    ( 0.0000,  0.0000,  0.0000)
   2 Ir     0.000430    1.589002   14.446961    ( 0.0000,  0.0000,  0.0000)
   3 Ir     0.004903    0.004465   16.701582    ( 0.0000,  0.0000,  0.0000)
   4 Ir    -1.378048    2.386848    9.999999    ( 0.0000,  0.0000,  0.0000)
   5 Ir     0.000000    3.182464   12.250341    ( 0.0000,  0.0000,  0.0000)
   6 Ir    -1.376018    3.977675   14.461800    ( 0.0000,  0.0000,  0.0000)
   7 Ir    -1.396159    2.393725   16.672316    ( 0.0000,  0.0000,  0.0000)
   8 Ir    -2.756095    4.773697    9.999999    ( 0.0000,  0.0000,  0.0000)
   9 Ir    -1.378048    5.569313   12.250341    ( 0.0000,  0.0000,  0.0000)
  10 Ir    -2.754856    6.367766   14.448217    ( 0.0000,  0.0000,  0.0000)
  11 Ir    -2.756468    4.745152   16.663309    ( 0.0000,  0.0000,  0.0000)
  12 Ir     2.756095    0.000000    9.999999    ( 0.0000,  0.0000,  0.0000)
  13 Ir     4.134143    0.795616   12.250341    ( 0.0000,  0.0000,  0.0000)
  14 Ir     2.756876    1.589037   14.447376    ( 0.0000,  0.0000,  0.0000)
  15 Ir     2.758485    0.006404   16.696596    ( 0.0000,  0.0000,  0.0000)
  16 Ir     1.378048    2.386848    9.999999    ( 0.0000,  0.0000,  0.0000)
  17 Ir     2.756095    3.182464   12.250341    ( 0.0000,  0.0000,  0.0000)
  18 Ir     1.379598    3.991687   14.442178    ( 0.0000,  0.0000,  0.0000)
  19 Ir     1.374432    2.445888   16.661933    ( 0.0000,  0.0000,  0.0000)
  20 Ir     0.000000    4.773697    9.999999    ( 0.0000,  0.0000,  0.0000)
  21 Ir     1.378048    5.569313   12.250341    ( 0.0000,  0.0000,  0.0000)
  22 Ir     0.010892    6.358537   14.449127    ( 0.0000,  0.0000,  0.0000)
  23 Ir    -0.001461    4.778853   16.665016    ( 0.0000,  0.0000,  0.0000)
  24 Ir     5.512190    0.000000    9.999999    ( 0.0000,  0.0000,  0.0000)
  25 Ir     6.890238    0.795616   12.250341    ( 0.0000,  0.0000,  0.0000)
  26 Ir     5.512183    1.589947   14.461457    ( 0.0000,  0.0000,  0.0000)
  27 Ir     5.512538    0.001061   16.668420    ( 0.0000,  0.0000,  0.0000)
  28 Ir     4.134143    2.386848    9.999999    ( 0.0000,  0.0000,  0.0000)
  29 Ir     5.512190    3.182464   12.250341    ( 0.0000,  0.0000,  0.0000)
  30 Ir     4.132697    3.977692   14.461999    ( 0.0000,  0.0000,  0.0000)
  31 Ir     4.152411    2.394802   16.671284    ( 0.0000,  0.0000,  0.0000)
  32 Ir     2.756095    4.773697    9.999999    ( 0.0000,  0.0000,  0.0000)
  33 Ir     4.134143    5.569313   12.250341    ( 0.0000,  0.0000,  0.0000)
  34 Ir     2.746580    6.357763   14.449818    ( 0.0000,  0.0000,  0.0000)
  35 Ir     2.757505    4.779209   16.667279    ( 0.0000,  0.0000,  0.0000)
  36 H      1.441944   -0.146956   20.079069    ( 0.0000,  0.0000,  0.0000)
  37 O      1.421240   -0.593276   19.230770    ( 0.0000,  0.0000,  0.0000)
  38 C      1.404190    0.359779   18.239586    ( 0.0000,  0.0000,  0.0000)
  39 C      1.376068    1.813292   18.582717    ( 0.0000,  0.0000,  0.0000)
  40 O      1.390627    2.384218   19.651818    ( 0.0000,  0.0000,  0.0000)

Unit cell:
           periodic     x           y           z      points  spacing
  1. axis:    yes    8.268285    0.000000    0.000000    40     0.1790
  2. axis:    yes   -4.134143    7.160545    0.000000    40     0.1790
  3. axis:    no     0.000000    0.000000   26.751025   148     0.1808

  Lengths:   8.268285   8.268285  26.751025
  Angles:   90.000000  90.000000 120.000000

Effective grid spacing dv^(1/3) = 0.1884

     iter     time        total  log10-change:
                         energy  eigst   dens
iter:   1 02:53:42 -11796.771928  -2.56
iter:   2 02:54:20 -11796.764027  -3.39  -2.96
iter:   3 02:54:58 -11797.025893c -3.27  -2.81
iter:   4 02:55:36 -11796.732903  -3.58  -2.30
iter:   5 02:56:14 -11796.731005  -4.05  -3.07
iter:   6 02:56:52 -11796.726256c -4.40  -3.26
iter:   7 02:57:30 -11796.724838c -4.34  -3.49
iter:   8 02:58:08 -11796.724004c -4.40  -3.66
iter:   9 02:58:47 -11796.724131c -4.76  -3.80
iter:  10 02:59:25 -11796.725104c -5.15  -3.86
iter:  11 03:00:03 -11796.723868c -5.51  -3.45
iter:  12 03:00:41 -11796.724029c -5.97  -4.10c
iter:  13 03:01:19 -11796.723822c -6.37  -4.26c
iter:  14 03:01:57 -11796.723923c -6.49  -4.34c
iter:  15 03:02:35 -11796.723879c -6.60  -4.45c
iter:  16 03:03:13 -11796.723956c -6.87  -4.57c
iter:  17 03:03:51 -11796.723919c -6.99  -4.16c
iter:  18 03:04:29 -11796.723871c -7.15  -4.27c
iter:  19 03:05:07 -11796.723953c -7.26  -4.70c
iter:  20 03:05:45 -11796.723885c -7.25  -4.80c
iter:  21 03:06:23 -11796.723903c -7.29  -4.86c
iter:  22 03:07:01 -11796.723898c -7.48c -4.93c

Converged after 22 iterations.

Dipole moment: (-3.035240, -9.791560, 0.019885) |e|*Ang

Energy contributions relative to reference atoms: (reference = -17447604.027077)

Kinetic:       +1147.578926
Potential:     -1100.877776
External:        +0.000000
XC:            -11837.831814
Entropy (-ST):   -1.499059
Local:           -4.843705
--------------------------
Free energy:   -11797.473427
Extrapolated:  -11796.723898

Showing only first 2 kpts
 Kpt  Band  Eigenvalues  Occupancy
  0   278     -5.73119    1.30894
  0   279     -5.71350    1.22690
  0   280     -5.63651    0.84716
  0   281     -5.60863    0.71472

  1   278     -5.77781    1.50236
  1   279     -5.73304    1.31728
  1   280     -5.69336    1.12948
  1   281     -5.64981    0.91268


Fermi level: -5.66732

No gap

Forces in eV/Ang:
  0 Ir    0.04479    0.03925    0.28168
  1 Ir    0.00776    0.01285   -0.37747
  2 Ir    0.05237   -0.02632    0.00106
  3 Ir    0.08699    0.09484    0.34703
  4 Ir    0.00399    0.00096    0.28321
  5 Ir   -0.03500    0.02112   -0.31167
  6 Ir    0.03228   -0.00096   -0.03439
  7 Ir   -0.09294    0.03531   -0.03306
  8 Ir    0.00813   -0.01381    0.28184
  9 Ir    0.01569   -0.00907   -0.31728
 10 Ir    0.00302    0.05785    0.01675
 11 Ir    0.00611   -0.16853   -0.10356
 12 Ir   -0.03066    0.03763    0.30453
 13 Ir    0.06226   -0.03970   -0.38367
 14 Ir   -0.04674   -0.01835    0.00472
 15 Ir   -0.03830    0.11486    0.26025
 16 Ir    0.00594   -0.05065    0.28630
 17 Ir    0.01989    0.02138   -0.32530
 18 Ir    0.01264    0.12163   -0.20745
 19 Ir    0.00789    0.31331    0.20333
 20 Ir    0.01779    0.01087    0.38422
 21 Ir    0.00297    0.01365   -1.20525
 22 Ir    0.02538   -0.00581   -0.07081
 23 Ir   -0.02650    0.11163   -0.09934
 24 Ir   -0.00556   -0.02290    0.40695
 25 Ir   -0.10072   -0.02205   -0.38466
 26 Ir    0.00860   -0.02028   -0.03261
 27 Ir    0.00775    0.02381   -0.06791
 28 Ir   -0.00011   -0.00179    0.26330
 29 Ir    0.00404   -0.00867   -0.39659
 30 Ir   -0.01474    0.00407   -0.03419
 31 Ir    0.11320    0.04601   -0.03161
 32 Ir   -0.01736    0.00644    0.40767
 33 Ir   -0.03237   -0.02856   -0.33425
 34 Ir    0.01733    0.00897   -0.04415
 35 Ir    0.02477    0.10923   -0.10198
 36 H    -0.00820    0.26264    0.74675
 37 O    -0.03444   -0.08425   -0.03664
 38 C    -0.14282   -0.43595    0.48962
 39 C     0.16182   -0.06139    0.26861
 40 O    -0.05534   -0.42663   -0.20020

BFGS:    4 03:07:22   -11796.723898        0.7916
System changes: positions 

Initializing position-dependent things.

Density initialized from wave functions
                                             
                                             
                                             
                                             
                                             
                                             
                                             
                   O                         
                  HC                         
           Ir     Or    Ir                   
             Ir   C Ir    Ir                 
            Ir     Ir    Ir                  
              IIr   IIr    IIr               
                                             
               IIr   IIr    IIr              
                 Ir    Ir     Ir             
                                             
           Ir     Ir    IIr     Ir           
             Ir    Ir     Ir                 
                                             
               Ir    Ir     Ir               
                                             
                                             
                                             
                                             

Positions:
   0 Ir     0.000000    0.000000    9.999999    ( 0.0000,  0.0000,  0.0000)
   1 Ir     1.378048    0.795616   12.250341    ( 0.0000,  0.0000,  0.0000)
   2 Ir     0.001824    1.587795   14.445455    ( 0.0000,  0.0000,  0.0000)
   3 Ir     0.008031    0.007905   16.714683    ( 0.0000,  0.0000,  0.0000)
   4 Ir    -1.378048    2.386848    9.999999    ( 0.0000,  0.0000,  0.0000)
   5 Ir     0.000000    3.182464   12.250341    ( 0.0000,  0.0000,  0.0000)
   6 Ir    -1.374857    3.977643   14.460940    ( 0.0000,  0.0000,  0.0000)
   7 Ir    -1.400749    2.395467   16.671158    ( 0.0000,  0.0000,  0.0000)
   8 Ir    -2.756095    4.773697    9.999999    ( 0.0000,  0.0000,  0.0000)
   9 Ir    -1.378048    5.569313   12.250341    ( 0.0000,  0.0000,  0.0000)
  10 Ir    -2.754759    6.369711   14.447186    ( 0.0000,  0.0000,  0.0000)
  11 Ir    -2.756351    4.737186   16.659173    ( 0.0000,  0.0000,  0.0000)
  12 Ir     2.756095    0.000000    9.999999    ( 0.0000,  0.0000,  0.0000)
  13 Ir     4.134143    0.795616   12.250341    ( 0.0000,  0.0000,  0.0000)
  14 Ir     2.755655    1.588142   14.446019    ( 0.0000,  0.0000,  0.0000)
  15 Ir     2.757630    0.010680   16.706252    ( 0.0000,  0.0000,  0.0000)
  16 Ir     1.378048    2.386848    9.999999    ( 0.0000,  0.0000,  0.0000)
  17 Ir     2.756095    3.182464   12.250341    ( 0.0000,  0.0000,  0.0000)
  18 Ir     1.380025    3.996652   14.434244    ( 0.0000,  0.0000,  0.0000)
  19 Ir     1.374164    2.460058   16.668765    ( 0.0000,  0.0000,  0.0000)
  20 Ir     0.000000    4.773697    9.999999    ( 0.0000,  0.0000,  0.0000)
  21 Ir     1.378048    5.569313   12.250341    ( 0.0000,  0.0000,  0.0000)
  22 Ir     0.012891    6.357512   14.445764    ( 0.0000,  0.0000,  0.0000)
  23 Ir    -0.002367    4.782427   16.661441    ( 0.0000,  0.0000,  0.0000)
  24 Ir     5.512190    0.000000    9.999999    ( 0.0000,  0.0000,  0.0000)
  25 Ir     6.890238    0.795616   12.250341    ( 0.0000,  0.0000,  0.0000)
  26 Ir     5.512510    1.589169   14.460621    ( 0.0000,  0.0000,  0.0000)
  27 Ir     5.512768    0.001842   16.665849    ( 0.0000,  0.0000,  0.0000)
  28 Ir     4.134143    2.386848    9.999999    ( 0.0000,  0.0000,  0.0000)
  29 Ir     5.512190    3.182464   12.250341    ( 0.0000,  0.0000,  0.0000)
  30 Ir     4.132162    3.977862   14.461206    ( 0.0000,  0.0000,  0.0000)
  31 Ir     4.157548    2.396956   16.670118    ( 0.0000,  0.0000,  0.0000)
  32 Ir     2.756095    4.773697    9.999999    ( 0.0000,  0.0000,  0.0000)
  33 Ir     4.134143    5.569313   12.250341    ( 0.0000,  0.0000,  0.0000)
  34 Ir     2.746017    6.357226   14.447306    ( 0.0000,  0.0000,  0.0000)
  35 Ir     2.758354    4.782758   16.663680    ( 0.0000,  0.0000,  0.0000)
  36 H      1.441354   -0.142448   20.095588    ( 0.0000,  0.0000,  0.0000)
  37 O      1.420814   -0.594261   19.241289    ( 0.0000,  0.0000,  0.0000)
  38 C      1.397909    0.350116   18.255956    ( 0.0000,  0.0000,  0.0000)
  39 C      1.383148    1.806429   18.588412    ( 0.0000,  0.0000,  0.0000)
  40 O      1.388058    2.370934   19.647704    ( 0.0000,  0.0000,  0.0000)

Unit cell:
           periodic     x           y           z      points  spacing
  1. axis:    yes    8.268285    0.000000    0.000000    40     0.1790
  2. axis:    yes   -4.134143    7.160545    0.000000    40     0.1790
  3. axis:    no     0.000000    0.000000   26.751025   148     0.1808

  Lengths:   8.268285   8.268285  26.751025
  Angles:   90.000000  90.000000 120.000000

Effective grid spacing dv^(1/3) = 0.1884

     iter     time        total  log10-change:
                         energy  eigst   dens
iter:   1 03:08:55 -11796.911618  -2.25
iter:   2 03:09:34 -11797.936643  -2.63  -2.53
iter:   3 03:10:12 -11796.796121  -3.07  -2.01
iter:   4 03:10:50 -11796.772201  -3.69  -2.89
iter:   5 03:11:28 -11796.772631c -3.99  -3.14
iter:   6 03:12:06 -11796.770108c -4.46  -3.23
iter:   7 03:12:44 -11796.768964c -4.70  -3.33
iter:   8 03:13:22 -11796.769426c -4.46  -3.47
iter:   9 03:14:01 -11796.768751c -4.78  -3.36
iter:  10 03:14:39 -11796.767734c -5.36  -3.44
iter:  11 03:15:17 -11796.767361c -5.93  -3.90
iter:  12 03:15:55 -11796.767659c -5.81  -3.97
iter:  13 03:16:33 -11796.767503c -5.87  -4.09c
iter:  14 03:17:11 -11796.767533c -6.35  -4.21c
iter:  15 03:17:49 -11796.767613c -6.67  -4.28c
iter:  16 03:18:28 -11796.767495c -6.84  -4.06c
iter:  17 03:19:06 -11796.767564c -6.81  -4.41c
iter:  18 03:19:44 -11796.767493c -7.16  -4.67c
iter:  19 03:20:22 -11796.767526c -7.62c -4.77c

Converged after 19 iterations.

Dipole moment: (-2.525357, -10.380804, 0.046870) |e|*Ang

Energy contributions relative to reference atoms: (reference = -17447604.027077)

Kinetic:       +1148.242076
Potential:     -1101.421454
External:        +0.000000
XC:            -11837.998814
Entropy (-ST):   -1.497068
Local:           -4.840801
--------------------------
Free energy:   -11797.516060
Extrapolated:  -11796.767526

Showing only first 2 kpts
 Kpt  Band  Eigenvalues  Occupancy
  0   278     -5.70682    1.31668
  0   279     -5.68713    1.22559
  0   280     -5.60988    0.84452
  0   281     -5.58280    0.71589

  1   278     -5.75243    1.50502
  1   279     -5.71237    1.34144
  1   280     -5.67011    1.14341
  1   281     -5.62590    0.92351


Fermi level: -5.64123

No gap

Forces in eV/Ang:
  0 Ir    0.04680    0.03834    0.27597
  1 Ir    0.00826    0.01371   -0.39201
  2 Ir    0.06472    0.00174    0.07261
  3 Ir    0.04718    0.06257    0.21446
  4 Ir    0.00323    0.00330    0.27869
  5 Ir   -0.04327    0.01027   -0.32722
  6 Ir    0.02788   -0.00028   -0.04794
  7 Ir   -0.00287    0.00632   -0.03223
  8 Ir    0.00861   -0.01354    0.27763
  9 Ir    0.00547   -0.00891   -0.32489
 10 Ir    0.00408    0.04684    0.08938
 11 Ir    0.01107   -0.03752   -0.06793
 12 Ir   -0.03284    0.03717    0.29770
 13 Ir    0.05610   -0.02885   -0.38907
 14 Ir   -0.05566    0.00480    0.07172
 15 Ir   -0.04363    0.07647    0.18904
 16 Ir    0.00655   -0.05219    0.27736
 17 Ir    0.02872    0.01190   -0.34190
 18 Ir    0.01296    0.06067   -0.11424
 19 Ir    0.02987    0.11632    0.18826
 20 Ir    0.01722    0.00979    0.38189
 21 Ir    0.00312    0.03894   -1.24455
 22 Ir   -0.03198    0.03930   -0.01822
 23 Ir   -0.02285    0.11333   -0.08294
 24 Ir   -0.00520   -0.02373    0.40274
 25 Ir   -0.09558   -0.01314   -0.39062
 26 Ir    0.00613   -0.00830   -0.04325
 27 Ir    0.00846    0.02690   -0.05143
 28 Ir    0.00089   -0.00064    0.25859
 29 Ir    0.00525   -0.00877   -0.40586
 30 Ir   -0.01245    0.00190   -0.05018
 31 Ir    0.02984    0.01240   -0.02741
 32 Ir   -0.01690    0.00649    0.40264
 33 Ir   -0.02231   -0.02757   -0.34336
 34 Ir    0.06888    0.05101    0.00390
 35 Ir    0.02415    0.10880   -0.09003
 36 H    -0.01412    0.07037    0.41229
 37 O    -0.03035   -0.05964    0.49266
 38 C    -0.06878   -0.28339    0.10203
 39 C     0.04418   -0.40978   -0.46736
 40 O    -0.02781    0.00565    0.62846

BFGS:    5 03:20:44   -11796.767526        0.6291
System changes: positions 

Initializing position-dependent things.

Density initialized from wave functions
                                             
                                             
                                             
                                             
                                             
                                             
                                             
                   O                         
                  HC                         
           Ir     Or    Ir                   
             Ir   C Ir    Ir                 
            Ir     Ir    Ir                  
              IIr    Ir    IIr               
                                             
               IIr   IIr    IIr              
                 Ir    Ir     Ir             
                                             
           Ir     Ir    IIr     Ir           
             Ir    Ir     Ir                 
                                             
               Ir    Ir     Ir               
                                             
                                             
                                             
                                             

Positions:
   0 Ir     0.000000    0.000000    9.999999    ( 0.0000,  0.0000,  0.0000)
   1 Ir     1.378048    0.795616   12.250341    ( 0.0000,  0.0000,  0.0000)
   2 Ir     0.004957    1.586270   14.444734    ( 0.0000,  0.0000,  0.0000)
   3 Ir     0.012998    0.013607   16.736320    ( 0.0000,  0.0000,  0.0000)
   4 Ir    -1.378048    2.386848    9.999999    ( 0.0000,  0.0000,  0.0000)
   5 Ir     0.000000    3.182464   12.250341    ( 0.0000,  0.0000,  0.0000)
   6 Ir    -1.372722    3.977597   14.458838    ( 0.0000,  0.0000,  0.0000)
   7 Ir    -1.407007    2.397984   16.668886    ( 0.0000,  0.0000,  0.0000)
   8 Ir    -2.756095    4.773697    9.999999    ( 0.0000,  0.0000,  0.0000)
   9 Ir    -1.378048    5.569313   12.250341    ( 0.0000,  0.0000,  0.0000)
  10 Ir    -2.754540    6.373219   14.447484    ( 0.0000,  0.0000,  0.0000)
  11 Ir    -2.755973    4.725695   16.652215    ( 0.0000,  0.0000,  0.0000)
  12 Ir     2.756095    0.000000    9.999999    ( 0.0000,  0.0000,  0.0000)
  13 Ir     4.134143    0.795616   12.250341    ( 0.0000,  0.0000,  0.0000)
  14 Ir     2.752954    1.587087   14.445466    ( 0.0000,  0.0000,  0.0000)
  15 Ir     2.755758    0.017804   16.722905    ( 0.0000,  0.0000,  0.0000)
  16 Ir     1.378048    2.386848    9.999999    ( 0.0000,  0.0000,  0.0000)
  17 Ir     2.756095    3.182464   12.250341    ( 0.0000,  0.0000,  0.0000)
  18 Ir     1.380868    4.004535   14.421409    ( 0.0000,  0.0000,  0.0000)
  19 Ir     1.374346    2.481702   16.681595    ( 0.0000,  0.0000,  0.0000)
  20 Ir     0.000000    4.773697    9.999999    ( 0.0000,  0.0000,  0.0000)
  21 Ir     1.378048    5.569313   12.250341    ( 0.0000,  0.0000,  0.0000)
  22 Ir     0.014995    6.356899   14.440839    ( 0.0000,  0.0000,  0.0000)
  23 Ir    -0.004043    4.789487   16.654927    ( 0.0000,  0.0000,  0.0000)
  24 Ir     5.512190    0.000000    9.999999    ( 0.0000,  0.0000,  0.0000)
  25 Ir     6.890238    0.795616   12.250341    ( 0.0000,  0.0000,  0.0000)
  26 Ir     5.513073    1.587988   14.458655    ( 0.0000,  0.0000,  0.0000)
  27 Ir     5.513244    0.003441   16.661291    ( 0.0000,  0.0000,  0.0000)
  28 Ir     4.134143    2.386848    9.999999    ( 0.0000,  0.0000,  0.0000)
  29 Ir     5.512190    3.182464   12.250341    ( 0.0000,  0.0000,  0.0000)
  30 Ir     4.131182    3.978129   14.459155    ( 0.0000,  0.0000,  0.0000)
  31 Ir     4.165081    2.400140   16.667928    ( 0.0000,  0.0000,  0.0000)
  32 Ir     2.756095    4.773697    9.999999    ( 0.0000,  0.0000,  0.0000)
  33 Ir     4.134143    5.569313   12.250341    ( 0.0000,  0.0000,  0.0000)
  34 Ir     2.746563    6.357486   14.443936    ( 0.0000,  0.0000,  0.0000)
  35 Ir     2.759995    4.789700   16.656981    ( 0.0000,  0.0000,  0.0000)
  36 H      1.440223   -0.134526   20.126362    ( 0.0000,  0.0000,  0.0000)
  37 O      1.419742   -0.598785   19.266522    ( 0.0000,  0.0000,  0.0000)
  38 C      1.387956    0.333224   18.278672    ( 0.0000,  0.0000,  0.0000)
  39 C      1.393662    1.790175   18.589964    ( 0.0000,  0.0000,  0.0000)
  40 O      1.383841    2.351410   19.652173    ( 0.0000,  0.0000,  0.0000)

Unit cell:
           periodic     x           y           z      points  spacing
  1. axis:    yes    8.268285    0.000000    0.000000    40     0.1790
  2. axis:    yes   -4.134143    7.160545    0.000000    40     0.1790
  3. axis:    no     0.000000    0.000000   26.751025   148     0.1808

  Lengths:   8.268285   8.268285  26.751025
  Angles:   90.000000  90.000000 120.000000

Effective grid spacing dv^(1/3) = 0.1884

     iter     time        total  log10-change:
                         energy  eigst   dens
iter:   1 03:22:17 -11797.082377  -1.90
iter:   2 03:22:55 -11800.002189  -2.20  -2.38
iter:   3 03:23:32 -11796.828456  -2.69  -1.80
iter:   4 03:24:11 -11796.817060  -3.47  -2.97
iter:   5 03:24:48 -11796.817367c -3.95  -3.07
iter:   6 03:25:26 -11796.813412c -4.14  -3.18
iter:   7 03:26:04 -11796.812606c -4.16  -3.30
iter:   8 03:26:42 -11796.811810c -4.34  -3.47
iter:   9 03:27:19 -11796.813539c -5.06  -3.57
iter:  10 03:27:57 -11796.811555c -5.42  -3.35
iter:  11 03:28:35 -11796.811137c -5.36  -3.77
iter:  12 03:29:12 -11796.811847c -5.63  -3.91
iter:  13 03:29:50 -11796.811314c -5.72  -3.98
iter:  14 03:30:28 -11796.811481c -6.31  -4.16c
iter:  15 03:31:06 -11796.811675c -6.14  -4.29c
iter:  16 03:31:44 -11796.811556c -6.41  -3.82
iter:  17 03:32:22 -11796.811512c -6.85  -4.21c
iter:  18 03:32:59 -11796.811411c -6.99  -4.56c
iter:  19 03:33:37 -11796.811506c -7.52c -4.76c

Converged after 19 iterations.

Dipole moment: (-1.707777, -11.395104, 0.046125) |e|*Ang

Energy contributions relative to reference atoms: (reference = -17447604.027077)

Kinetic:       +1147.761604
Potential:     -1101.081220
External:        +0.000000
XC:            -11837.892544
Entropy (-ST):   -1.494563
Local:           -4.852065
--------------------------
Free energy:   -11797.558788
Extrapolated:  -11796.811506

Showing only first 2 kpts
 Kpt  Band  Eigenvalues  Occupancy
  0   278     -5.70808    1.32751
  0   279     -5.68500    1.22094
  0   280     -5.60782    0.84015
  0   281     -5.58183    0.71677

  1   278     -5.75163    1.50634
  1   279     -5.72206    1.38846
  1   280     -5.67266    1.16151
  1   281     -5.62856    0.94254


Fermi level: -5.64007

No gap

Forces in eV/Ang:
  0 Ir    0.04951    0.03691    0.27498
  1 Ir    0.00960    0.01440   -0.40970
  2 Ir    0.06905    0.04606    0.15123
  3 Ir   -0.03557    0.00789   -0.00737
  4 Ir    0.00229    0.00770    0.27634
  5 Ir   -0.05454   -0.01067   -0.35167
  6 Ir    0.01837    0.00418   -0.05933
  7 Ir    0.12444   -0.03402   -0.02192
  8 Ir    0.00917   -0.01366    0.27639
  9 Ir   -0.01335   -0.00289   -0.33344
 10 Ir    0.00650    0.02439    0.16850
 11 Ir    0.01714    0.14752    0.00173
 12 Ir   -0.03596    0.03666    0.29499
 13 Ir    0.04054   -0.01030   -0.39307
 14 Ir   -0.05240    0.04065    0.14421
 15 Ir   -0.01654    0.00476    0.04812
 16 Ir    0.00736   -0.05466    0.27060
 17 Ir    0.04145   -0.00754   -0.36793
 18 Ir    0.01304   -0.03680    0.04564
 19 Ir    0.05591   -0.14954    0.14680
 20 Ir    0.01537    0.00731    0.38773
 21 Ir    0.00430    0.08879   -1.30607
 22 Ir   -0.10106    0.10082    0.05145
 23 Ir   -0.01487    0.10149   -0.04217
 24 Ir   -0.00451   -0.02331    0.40598
 25 Ir   -0.08044    0.00263   -0.39442
 26 Ir    0.00260    0.01354   -0.05250
 27 Ir    0.00891    0.03412   -0.01776
 28 Ir    0.00217    0.00180    0.25588
 29 Ir    0.00770   -0.00929   -0.42184
 30 Ir   -0.00583    0.00105   -0.06289
 31 Ir   -0.09334   -0.03712   -0.01197
 32 Ir   -0.01510    0.00602    0.40407
 33 Ir   -0.00302   -0.02016   -0.35431
 34 Ir    0.12386    0.10461    0.06159
 35 Ir    0.02419    0.09769   -0.06010
 36 H    -0.01513   -0.15590   -0.02850
 37 O    -0.04246    0.10541    0.97687
 38 C     0.04654   -0.16777   -0.17352
 39 C    -0.10923   -0.30308   -0.34899
 40 O     0.03636    0.07025    0.60884

BFGS:    6 03:33:59   -11796.811506        0.9835
System changes: positions 

Initializing position-dependent things.

Density initialized from wave functions
                                             
                                             
                                             
                                             
                                             
                                             
                                             
                   O                         
                  HC                         
           Ir     Or    Ir                   
             Ir   C Ir    Ir                 
            Ir     Ir    Ir                  
              IIr    Ir    IIr               
                                             
               IIr   IIr    IIr              
                 Ir    Ir     Ir             
                                             
           Ir     Ir    IIr     Ir           
             Ir    Ir     Ir                 
                                             
               Ir    Ir     Ir               
                                             
                                             
                                             
                                             

Positions:
   0 Ir     0.000000    0.000000    9.999999    ( 0.0000,  0.0000,  0.0000)
   1 Ir     1.378048    0.795616   12.250341    ( 0.0000,  0.0000,  0.0000)
   2 Ir     0.008318    1.585978   14.446574    ( 0.0000,  0.0000,  0.0000)
   3 Ir     0.015830    0.017747   16.751706    ( 0.0000,  0.0000,  0.0000)
   4 Ir    -1.378048    2.386848    9.999999    ( 0.0000,  0.0000,  0.0000)
   5 Ir     0.000000    3.182464   12.250341    ( 0.0000,  0.0000,  0.0000)
   6 Ir    -1.370870    3.977652   14.456359    ( 0.0000,  0.0000,  0.0000)
   7 Ir    -1.409492    2.399271   16.666871    ( 0.0000,  0.0000,  0.0000)
   8 Ir    -2.756095    4.773697    9.999999    ( 0.0000,  0.0000,  0.0000)
   9 Ir    -1.378048    5.569313   12.250341    ( 0.0000,  0.0000,  0.0000)
  10 Ir    -2.754265    6.376133   14.450375    ( 0.0000,  0.0000,  0.0000)
  11 Ir    -2.755413    4.719817   16.647283    ( 0.0000,  0.0000,  0.0000)
  12 Ir     2.756095    0.000000    9.999999    ( 0.0000,  0.0000,  0.0000)
  13 Ir     4.134143    0.795616   12.250341    ( 0.0000,  0.0000,  0.0000)
  14 Ir     2.750206    1.587035   14.447309    ( 0.0000,  0.0000,  0.0000)
  15 Ir     2.754351    0.022885   16.735613    ( 0.0000,  0.0000,  0.0000)
  16 Ir     1.378048    2.386848    9.999999    ( 0.0000,  0.0000,  0.0000)
  17 Ir     2.756095    3.182464   12.250341    ( 0.0000,  0.0000,  0.0000)
  18 Ir     1.381702    4.009595   14.413004    ( 0.0000,  0.0000,  0.0000)
  19 Ir     1.375377    2.495187   16.693108    ( 0.0000,  0.0000,  0.0000)
  20 Ir     0.000000    4.773697    9.999999    ( 0.0000,  0.0000,  0.0000)
  21 Ir     1.378048    5.569313   12.250341    ( 0.0000,  0.0000,  0.0000)
  22 Ir     0.014909    6.358129   14.438092    ( 0.0000,  0.0000,  0.0000)
  23 Ir    -0.005502    4.796253   16.649542    ( 0.0000,  0.0000,  0.0000)
  24 Ir     5.512190    0.000000    9.999999    ( 0.0000,  0.0000,  0.0000)
  25 Ir     6.890238    0.795616   12.250341    ( 0.0000,  0.0000,  0.0000)
  26 Ir     5.513527    1.587387   14.456385    ( 0.0000,  0.0000,  0.0000)
  27 Ir     5.513735    0.005191   16.657685    ( 0.0000,  0.0000,  0.0000)
  28 Ir     4.134143    2.386848    9.999999    ( 0.0000,  0.0000,  0.0000)
  29 Ir     5.512190    3.182464   12.250341    ( 0.0000,  0.0000,  0.0000)
  30 Ir     4.130382    3.978353   14.456665    ( 0.0000,  0.0000,  0.0000)
  31 Ir     4.168987    2.401846   16.666141    ( 0.0000,  0.0000,  0.0000)
  32 Ir     2.756095    4.773697    9.999999    ( 0.0000,  0.0000,  0.0000)
  33 Ir     4.134143    5.569313   12.250341    ( 0.0000,  0.0000,  0.0000)
  34 Ir     2.748924    6.359391   14.442452    ( 0.0000,  0.0000,  0.0000)
  35 Ir     2.761608    4.796337   16.651134    ( 0.0000,  0.0000,  0.0000)
  36 H      1.439224   -0.129752   20.150897    ( 0.0000,  0.0000,  0.0000)
  37 O      1.418142   -0.600819   19.296965    ( 0.0000,  0.0000,  0.0000)
  38 C      1.381476    0.317346   18.294217    ( 0.0000,  0.0000,  0.0000)
  39 C      1.399581    1.776686   18.592243    ( 0.0000,  0.0000,  0.0000)
  40 O      1.381432    2.335133   19.658863    ( 0.0000,  0.0000,  0.0000)

Unit cell:
           periodic     x           y           z      points  spacing
  1. axis:    yes    8.268285    0.000000    0.000000    40     0.1790
  2. axis:    yes   -4.134143    7.160545    0.000000    40     0.1790
  3. axis:    no     0.000000    0.000000   26.751025   148     0.1808

  Lengths:   8.268285   8.268285  26.751025
  Angles:   90.000000  90.000000 120.000000

Effective grid spacing dv^(1/3) = 0.1884

     iter     time        total  log10-change:
                         energy  eigst   dens
iter:   1 03:35:32 -11796.918716  -2.12
iter:   2 03:36:10 -11797.844085  -2.62  -2.63
iter:   3 03:36:49 -11796.844856  -3.13  -2.05
iter:   4 03:37:27 -11796.839673  -3.92  -3.17
iter:   5 03:38:05 -11796.840511c -4.36  -3.28
iter:   6 03:38:43 -11796.838962c -4.52  -3.36
iter:   7 03:39:21 -11796.838755c -4.51  -3.51
iter:   8 03:39:59 -11796.838978c -4.81  -3.68
iter:   9 03:40:37 -11796.838828c -5.50  -3.56
iter:  10 03:41:15 -11796.838464c -5.97  -3.62
iter:  11 03:41:53 -11796.838045c -5.60  -3.93
iter:  12 03:42:31 -11796.838584c -5.79  -4.04c
iter:  13 03:43:09 -11796.838382c -6.21  -4.16c
iter:  14 03:43:47 -11796.838420c -6.62  -4.34c
iter:  15 03:44:25 -11796.838530c -6.57  -4.38c
iter:  16 03:45:03 -11796.838393c -6.63  -3.97
iter:  17 03:45:41 -11796.838411c -7.07  -4.54c
iter:  18 03:46:19 -11796.838327c -7.45c -4.67c

Converged after 18 iterations.

Dipole moment: (-1.193245, -12.128453, 0.034481) |e|*Ang

Energy contributions relative to reference atoms: (reference = -17447604.027077)

Kinetic:       +1147.126052
Potential:     -1100.585943
External:        +0.000000
XC:            -11837.777007
Entropy (-ST):   -1.493808
Local:           -4.854525
--------------------------
Free energy:   -11797.585231
Extrapolated:  -11796.838327

Showing only first 2 kpts
 Kpt  Band  Eigenvalues  Occupancy
  0   278     -5.71945    1.33205
  0   279     -5.69441    1.21646
  0   280     -5.61767    0.83765
  0   281     -5.59209    0.71634

  1   278     -5.76221    1.50718
  1   279     -5.74008    1.42050
  1   280     -5.68466    1.16955
  1   281     -5.64079    0.95188


Fermi level: -5.65042

No gap

Forces in eV/Ang:
  0 Ir    0.05071    0.03579    0.27313
  1 Ir    0.01115    0.01417   -0.41361
  2 Ir    0.05544    0.07573    0.16836
  3 Ir   -0.09761   -0.04973   -0.12061
  4 Ir    0.00213    0.01170    0.27051
  5 Ir   -0.05831   -0.02926   -0.36928
  6 Ir    0.00801    0.01008   -0.04835
  7 Ir    0.18624   -0.04509   -0.00652
  8 Ir    0.00952   -0.01423    0.27228
  9 Ir   -0.02992    0.00930   -0.33664
 10 Ir    0.00847    0.00393    0.17951
 11 Ir    0.01867    0.24258    0.05619
 12 Ir   -0.03728    0.03616    0.29200
 13 Ir    0.02198    0.00448   -0.39405
 14 Ir   -0.03287    0.06520    0.15891
 15 Ir    0.00880   -0.05747   -0.03566
 16 Ir    0.00780   -0.05583    0.26411
 17 Ir    0.04737   -0.02581   -0.38730
 18 Ir    0.01023   -0.09149    0.16227
 19 Ir    0.06181   -0.29580    0.09862
 20 Ir    0.01308    0.00503    0.39269
 21 Ir    0.00649    0.12843   -1.33547
 22 Ir   -0.12059    0.12437    0.08977
 23 Ir   -0.00601    0.07001   -0.00030
 24 Ir   -0.00397   -0.02226    0.40927
 25 Ir   -0.06024    0.01613   -0.39411
 26 Ir    0.00105    0.03393   -0.04311
 27 Ir    0.00856    0.04052    0.01230
 28 Ir    0.00267    0.00440    0.24979
 29 Ir    0.01002   -0.00963   -0.43710
 30 Ir    0.00354    0.00324   -0.05029
 31 Ir   -0.15627   -0.05496    0.00270
 32 Ir   -0.01262    0.00516    0.40611
 33 Ir    0.01465   -0.00698   -0.35919
 34 Ir    0.12601    0.12073    0.08436
 35 Ir    0.02327    0.06969   -0.01967
 36 H    -0.00513   -0.07418    0.01607
 37 O    -0.01711    0.08259    0.74494
 38 C     0.14916   -0.12716   -0.06941
 39 C    -0.19189   -0.20747   -0.11785
 40 O     0.09230    0.04183    0.43550

BFGS:    7 03:46:40   -11796.838327        0.7497
System changes: positions 

Initializing position-dependent things.

Density initialized from wave functions
                                             
                                             
                                             
                                             
                                             
                                             
                                             
                   O                         
                  H                          
           Ir     OC    Ir                   
             Ir   C Ir    Ir                 
            Ir     Ir    Ir                  
              IIr    Ir    IIr               
                                             
               IIr   IIr    IIr              
                 Ir    Ir     Ir             
                                             
           Ir     Ir    IIr     Ir           
             Ir    Ir     Ir                 
                                             
               Ir    Ir     Ir               
                                             
                                             
                                             
                                             

Positions:
   0 Ir     0.000000    0.000000    9.999999    ( 0.0000,  0.0000,  0.0000)
   1 Ir     1.378048    0.795616   12.250341    ( 0.0000,  0.0000,  0.0000)
   2 Ir     0.013484    1.587316   14.452300    ( 0.0000,  0.0000,  0.0000)
   3 Ir     0.017016    0.021459   16.767812    ( 0.0000,  0.0000,  0.0000)
   4 Ir    -1.378048    2.386848    9.999999    ( 0.0000,  0.0000,  0.0000)
   5 Ir     0.000000    3.182464   12.250341    ( 0.0000,  0.0000,  0.0000)
   6 Ir    -1.368491    3.977968   14.452429    ( 0.0000,  0.0000,  0.0000)
   7 Ir    -1.408495    2.399928   16.664357    ( 0.0000,  0.0000,  0.0000)
   8 Ir    -2.756095    4.773697    9.999999    ( 0.0000,  0.0000,  0.0000)
   9 Ir    -1.378048    5.569313   12.250341    ( 0.0000,  0.0000,  0.0000)
  10 Ir    -2.753742    6.379701   14.457582    ( 0.0000,  0.0000,  0.0000)
  11 Ir    -2.754341    4.717982   16.642691    ( 0.0000,  0.0000,  0.0000)
  12 Ir     2.756095    0.000000    9.999999    ( 0.0000,  0.0000,  0.0000)
  13 Ir     4.134143    0.795616   12.250341    ( 0.0000,  0.0000,  0.0000)
  14 Ir     2.746288    1.588433   14.452845    ( 0.0000,  0.0000,  0.0000)
  15 Ir     2.752922    0.027590   16.750167    ( 0.0000,  0.0000,  0.0000)
  16 Ir     1.378048    2.386848    9.999999    ( 0.0000,  0.0000,  0.0000)
  17 Ir     2.756095    3.182464   12.250341    ( 0.0000,  0.0000,  0.0000)
  18 Ir     1.382914    4.013721   14.406551    ( 0.0000,  0.0000,  0.0000)
  19 Ir     1.377926    2.505036   16.709033    ( 0.0000,  0.0000,  0.0000)
  20 Ir     0.000000    4.773697    9.999999    ( 0.0000,  0.0000,  0.0000)
  21 Ir     1.378048    5.569313   12.250341    ( 0.0000,  0.0000,  0.0000)
  22 Ir     0.012296    6.362273   14.436740    ( 0.0000,  0.0000,  0.0000)
  23 Ir    -0.007371    4.805797   16.643161    ( 0.0000,  0.0000,  0.0000)
[...]
  28 Ir     4.134143    2.386848    9.999999    ( 0.0000,  0.0000,  0.0000)
  29 Ir     5.512190    3.182464   12.250341    ( 0.0000,  0.0000,  0.0000)
  30 Ir     4.131926    3.985966   14.463508    ( 0.0000,  0.0000,  0.0000)
  31 Ir     4.162624    2.401065   16.680382    ( 0.0000,  0.0000,  0.0000)
  32 Ir     2.756095    4.773697    9.999999    ( 0.0000,  0.0000,  0.0000)
  33 Ir     4.134143    5.569313   12.250341    ( 0.0000,  0.0000,  0.0000)
  34 Ir     2.757629    6.372315   14.464389    ( 0.0000,  0.0000,  0.0000)
  35 Ir     2.756825    4.788979   16.669324    ( 0.0000,  0.0000,  0.0000)
  36 H      1.423813   -0.075345   20.277909    ( 0.0000,  0.0000,  0.0000)
  37 O      1.402747   -0.610791   19.463366    ( 0.0000,  0.0000,  0.0000)
  38 C      1.385216    0.237219   18.392569    ( 0.0000,  0.0000,  0.0000)
  39 C      1.386738    1.700347   18.670842    ( 0.0000,  0.0000,  0.0000)
  40 O      1.389858    2.228471   19.760175    ( 0.0000,  0.0000,  0.0000)

Unit cell:
           periodic     x           y           z      points  spacing
  1. axis:    yes    8.268285    0.000000    0.000000    40     0.1790
  2. axis:    yes   -4.134143    7.160545    0.000000    40     0.1790
  3. axis:    no     0.000000    0.000000   26.751025   148     0.1808

  Lengths:   8.268285   8.268285  26.751025
  Angles:   90.000000  90.000000 120.000000

Effective grid spacing dv^(1/3) = 0.1884

     iter     time        total  log10-change:
                         energy  eigst   dens
iter:   1 06:17:24 -11796.948842  -3.03
iter:   2 06:18:02 -11796.958401  -3.72  -3.00
iter:   3 06:18:40 -11796.967292c -4.17  -3.03
iter:   4 06:19:18 -11796.943122c -4.75  -2.87
iter:   5 06:19:55 -11796.942963c -5.38  -3.75
iter:   6 06:20:33 -11796.943112c -5.21  -3.92
iter:   7 06:21:11 -11796.942875c -5.45  -4.08c
iter:   8 06:21:49 -11796.942924c -6.31  -4.29c
iter:   9 06:22:27 -11796.942827c -6.21  -4.34c
iter:  10 06:23:05 -11796.942889c -6.47  -4.51c
iter:  11 06:23:43 -11796.942973c -6.67  -4.17c
iter:  12 06:24:20 -11796.942838c -6.92  -4.20c
iter:  13 06:24:58 -11796.942878c -7.39  -4.82c
iter:  14 06:25:36 -11796.942855c -7.73c -4.95c

Converged after 14 iterations.

Dipole moment: (-1.985163, -11.497260, -0.026071) |e|*Ang

Energy contributions relative to reference atoms: (reference = -17447604.027077)

Kinetic:       +1124.550882
Potential:     -1081.458960
External:        +0.000000
XC:            -11834.451311
Entropy (-ST):   -1.509029
Local:           -4.828951
--------------------------
Free energy:   -11797.697369
Extrapolated:  -11796.942855

Showing only first 2 kpts
 Kpt  Band  Eigenvalues  Occupancy
  0   278     -5.78407    1.33500
  0   279     -5.75762    1.21292
  0   280     -5.68817    0.86972
  0   281     -5.65394    0.70667

  1   278     -5.82804    1.51411
  1   279     -5.81398    1.46056
  1   280     -5.74650    1.15927
  1   281     -5.69220    0.88956


Fermi level: -5.71438

No gap

Forces in eV/Ang:
  0 Ir    0.04994    0.03184    0.29188
  1 Ir    0.01882    0.03374   -0.22280
  2 Ir    0.00630   -0.00406   -0.01392
  3 Ir    0.00313   -0.00083   -0.00941
  4 Ir   -0.00464    0.01007    0.27570
  5 Ir    0.00466   -0.01718   -0.21773
  6 Ir   -0.00549   -0.02704   -0.00271
  7 Ir   -0.00029   -0.00768   -0.00032
  8 Ir    0.00905   -0.01856    0.27887
  9 Ir   -0.01518    0.08387   -0.18298
 10 Ir    0.00263   -0.02677   -0.01444
 11 Ir    0.00286   -0.03345    0.00540
 12 Ir   -0.03363    0.03197    0.31397
 13 Ir   -0.01537    0.01103   -0.23638
 14 Ir   -0.00333   -0.00699   -0.01688
 15 Ir   -0.00929   -0.00037   -0.00204
 16 Ir    0.00934   -0.05329    0.29354
 17 Ir   -0.00385   -0.01670   -0.23687
 18 Ir   -0.00030    0.00610    0.01935
 19 Ir   -0.00342   -0.00218    0.01299
 20 Ir   -0.00062   -0.00479    0.43883
 21 Ir    0.00753    0.10278   -1.01236
 22 Ir    0.00309   -0.00972   -0.01294
 23 Ir   -0.01974   -0.01470   -0.01335
 24 Ir   -0.00152   -0.01149    0.46267
 25 Ir   -0.00204    0.02880   -0.23716
 26 Ir    0.00076   -0.01154   -0.00216
 27 Ir   -0.00360   -0.01892   -0.00967
 28 Ir    0.01403    0.00494    0.25523
 29 Ir    0.01809    0.01727   -0.32958
 30 Ir    0.00855   -0.02572    0.00311
 31 Ir    0.00881   -0.01236   -0.00220
 32 Ir    0.00529   -0.00818    0.45495
 33 Ir    0.01426    0.06360   -0.20750
 34 Ir   -0.00637   -0.01223   -0.01966
 35 Ir    0.01817   -0.01232   -0.00930
 36 H    -0.01410   -0.00225   -0.00749
 37 O    -0.00688    0.00803   -0.06145
 38 C     0.00949   -0.03347    0.02074
 39 C    -0.01330    0.00881    0.04451
 40 O    -0.01293   -0.00354   -0.03210

BFGS:   21 06:25:57   -11796.942855        0.0624
System changes: positions 

Initializing position-dependent things.

Density initialized from wave functions
                                             
                                             
                                             
                                             
                                             
                                             
                                             
                   O                         
                  H                          
           Ir     OC    Ir                   
                  C                          
            IIr    IIr   IIr                 
               Ir    Ir     Ir               
              Ir     Ir    Ir                
               IIr   IIr    IIr              
                                             
                 Ir    Ir     Ir             
                  Ir     Ir     Ir           
           Ir     Ir    Ir                   
             Ir    Ir     Ir                 
                                             
               Ir    Ir     Ir               
                                             
                                             
                                             
                                             

Positions:
   0 Ir     0.000000    0.000000    9.999999    ( 0.0000,  0.0000,  0.0000)
   1 Ir     1.378048    0.795616   12.250341    ( 0.0000,  0.0000,  0.0000)
   2 Ir     0.015620    1.593882   14.474786    ( 0.0000,  0.0000,  0.0000)
   3 Ir     0.018760   -0.011351   16.795171    ( 0.0000,  0.0000,  0.0000)
   4 Ir    -1.378048    2.386848    9.999999    ( 0.0000,  0.0000,  0.0000)
   5 Ir     0.000000    3.182464   12.250341    ( 0.0000,  0.0000,  0.0000)
   6 Ir    -1.367387    3.985114   14.464435    ( 0.0000,  0.0000,  0.0000)
   7 Ir    -1.392764    2.397763   16.681706    ( 0.0000,  0.0000,  0.0000)
   8 Ir    -2.756095    4.773697    9.999999    ( 0.0000,  0.0000,  0.0000)
   9 Ir    -1.378048    5.569313   12.250341    ( 0.0000,  0.0000,  0.0000)
  10 Ir    -2.752113    6.384940   14.474485    ( 0.0000,  0.0000,  0.0000)
  11 Ir    -2.749437    4.734164   16.666379    ( 0.0000,  0.0000,  0.0000)
  12 Ir     2.756095    0.000000    9.999999    ( 0.0000,  0.0000,  0.0000)
  13 Ir     4.134143    0.795616   12.250341    ( 0.0000,  0.0000,  0.0000)
  14 Ir     2.749062    1.593934   14.474282    ( 0.0000,  0.0000,  0.0000)
  15 Ir     2.746114   -0.006611   16.787759    ( 0.0000,  0.0000,  0.0000)
  16 Ir     1.378048    2.386848    9.999999    ( 0.0000,  0.0000,  0.0000)
  17 Ir     2.756095    3.182464   12.250341    ( 0.0000,  0.0000,  0.0000)
  18 Ir     1.383350    3.998942   14.443801    ( 0.0000,  0.0000,  0.0000)
  19 Ir     1.385537    2.453864   16.763997    ( 0.0000,  0.0000,  0.0000)
  20 Ir     0.000000    4.773697    9.999999    ( 0.0000,  0.0000,  0.0000)
  21 Ir     1.378048    5.569313   12.250341    ( 0.0000,  0.0000,  0.0000)
  22 Ir     0.008085    6.371569   14.462096    ( 0.0000,  0.0000,  0.0000)
  23 Ir     0.008919    4.790038   16.668671    ( 0.0000,  0.0000,  0.0000)
  24 Ir     5.512190    0.000000    9.999999    ( 0.0000,  0.0000,  0.0000)
  25 Ir     6.890238    0.795616   12.250341    ( 0.0000,  0.0000,  0.0000)
  26 Ir     5.515859    1.594763   14.465490    ( 0.0000,  0.0000,  0.0000)
  27 Ir     5.517534    0.015819   16.674937    ( 0.0000,  0.0000,  0.0000)
  28 Ir     4.134143    2.386848    9.999999    ( 0.0000,  0.0000,  0.0000)
  29 Ir     5.512190    3.182464   12.250341    ( 0.0000,  0.0000,  0.0000)
  30 Ir     4.131930    3.985071   14.463678    ( 0.0000,  0.0000,  0.0000)
  31 Ir     4.162712    2.400108   16.680587    ( 0.0000,  0.0000,  0.0000)
  32 Ir     2.756095    4.773697    9.999999    ( 0.0000,  0.0000,  0.0000)
  33 Ir     4.134143    5.569313   12.250341    ( 0.0000,  0.0000,  0.0000)
  34 Ir     2.757620    6.371563   14.464281    ( 0.0000,  0.0000,  0.0000)
  35 Ir     2.756883    4.788346   16.669299    ( 0.0000,  0.0000,  0.0000)
  36 H      1.423409   -0.075965   20.275420    ( 0.0000,  0.0000,  0.0000)
  37 O      1.402770   -0.610599   19.460141    ( 0.0000,  0.0000,  0.0000)
  38 C      1.385325    0.238518   18.391098    ( 0.0000,  0.0000,  0.0000)
  39 C      1.386457    1.701263   18.670699    ( 0.0000,  0.0000,  0.0000)
  40 O      1.389648    2.229236   19.759687    ( 0.0000,  0.0000,  0.0000)

Unit cell:
           periodic     x           y           z      points  spacing
  1. axis:    yes    8.268285    0.000000    0.000000    40     0.1790
  2. axis:    yes   -4.134143    7.160545    0.000000    40     0.1790
  3. axis:    no     0.000000    0.000000   26.751025   148     0.1808

  Lengths:   8.268285   8.268285  26.751025
  Angles:   90.000000  90.000000 120.000000

Effective grid spacing dv^(1/3) = 0.1884

     iter     time        total  log10-change:
                         energy  eigst   dens
iter:   1 06:27:29 -11796.943779  -4.20
iter:   2 06:28:07 -11796.953127  -4.67  -3.67
iter:   3 06:28:45 -11796.943050c -5.17  -3.06
iter:   4 06:29:23 -11796.943298c -5.99  -4.26c
iter:   5 06:30:01 -11796.943149c -6.36  -4.38c
iter:   6 06:30:38 -11796.943235c -6.73  -4.53c
iter:   7 06:31:16 -11796.943208c -6.92  -4.59c
iter:   8 06:31:54 -11796.943222c -7.06  -4.80c
iter:   9 06:32:32 -11796.943202c -7.51c -4.48c

Converged after 9 iterations.

Dipole moment: (-1.966104, -11.459312, -0.025018) |e|*Ang

Energy contributions relative to reference atoms: (reference = -17447604.027077)

Kinetic:       +1124.782575
Potential:     -1081.667854
External:        +0.000000
XC:            -11834.487252
Entropy (-ST):   -1.508925
Local:           -4.816207
--------------------------
Free energy:   -11797.697664
Extrapolated:  -11796.943202

Showing only first 2 kpts
 Kpt  Band  Eigenvalues  Occupancy
  0   278     -5.78299    1.33502
  0   279     -5.75663    1.21334
  0   280     -5.68697    0.86910
  0   281     -5.65287    0.70671

  1   278     -5.82689    1.51386
  1   279     -5.81287    1.46042
  1   280     -5.74541    1.15918
  1   281     -5.69126    0.89023


Fermi level: -5.71330

No gap

Forces in eV/Ang:
  0 Ir    0.05018    0.03201    0.29259
  1 Ir    0.01837    0.03059   -0.22138
  2 Ir    0.00688   -0.00418   -0.01705
  3 Ir    0.00650   -0.00276   -0.00520
  4 Ir   -0.00444    0.00998    0.27613
  5 Ir    0.00379   -0.01818   -0.21738
  6 Ir   -0.00460   -0.02157   -0.00564
  7 Ir   -0.00014   -0.00422    0.00248
  8 Ir    0.00918   -0.01882    0.27962
  9 Ir   -0.01599    0.08058   -0.18153
 10 Ir    0.00221   -0.02245   -0.01824
 11 Ir    0.00307   -0.02535    0.00876
 12 Ir   -0.03385    0.03211    0.31456
 13 Ir   -0.01497    0.00899   -0.23590
 14 Ir   -0.00249   -0.00580   -0.01895
 15 Ir   -0.01230   -0.00264   -0.00099
 16 Ir    0.00934   -0.05350    0.29363
 17 Ir   -0.00314   -0.01764   -0.23655
 18 Ir    0.00016    0.00915    0.01685
 19 Ir   -0.00237   -0.00959    0.01141
 20 Ir   -0.00040   -0.00511    0.43848
 21 Ir    0.00799    0.10100   -1.01453
 22 Ir    0.00282   -0.00666   -0.01262
 23 Ir   -0.02090   -0.01252   -0.00784
 24 Ir   -0.00162   -0.01142    0.46306
 25 Ir   -0.00260    0.02628   -0.23625
 26 Ir    0.00146   -0.01106   -0.00252
 27 Ir   -0.00249   -0.01540   -0.01009
 28 Ir    0.01371    0.00477    0.25557
 29 Ir    0.01775    0.01525   -0.32836
 30 Ir    0.00790   -0.02007    0.00018
 31 Ir    0.00645   -0.00881    0.00112
 32 Ir    0.00493   -0.00849    0.45484
 33 Ir    0.01474    0.06053   -0.20570
 34 Ir   -0.00685   -0.00941   -0.02009
 35 Ir    0.02025   -0.00941   -0.00544
 36 H    -0.01445   -0.00769   -0.01663
 37 O    -0.01220    0.01310   -0.03164
 38 C     0.00474   -0.02853    0.00783
 39 C    -0.01232   -0.00943    0.02241
 40 O    -0.01481   -0.01238   -0.00142

BFGS:   22 06:32:53   -11796.943202        0.0364
Timing:                                      incl.     excl.
-------------------------------------------------------------------
Density initialized from wave functions:     8.598     8.598   0.0% |
 Symmetrize density:                         0.001     0.001   0.0% |
Forces:                                    486.006   486.006   2.7% ||
Hamiltonian:                                64.799     0.003   0.0% |
 Atomic:                                     3.059     0.013   0.0% |
  XC Correction:                             3.045     3.045   0.0% |
 Calculate atomic Hamiltonians:              1.249     1.249   0.0% |
 Communicate:                                0.256     0.256   0.0% |
 Hartree integrate/restrict:                 0.213     0.213   0.0% |
 Initialize Hamiltonian:                     0.001     0.001   0.0% |
 Poisson:                                    3.479     0.144   0.0% |
  Communicate from 1D:                       0.273     0.273   0.0% |
  Communicate from 2D:                       0.574     0.574   0.0% |
  Communicate to 1D:                         0.157     0.157   0.0% |
  Communicate to 2D:                         0.619     0.619   0.0% |
  FFT 1D:                                    0.872     0.872   0.0% |
  FFT 2D:                                    0.839     0.839   0.0% |
 XC 3D grid:                                56.334    14.252   0.1% |
  VdW-DF integral:                          42.082     2.756   0.0% |
   Convolution:                              4.502     4.502   0.0% |
   FFT:                                      2.988     2.988   0.0% |
   gather:                                   9.967     9.967   0.1% |
   hmm1:                                     0.857     0.857   0.0% |
   hmm2:                                     1.811     1.811   0.0% |
   iFFT:                                     2.911     2.911   0.0% |
   potential:                               12.782     0.332   0.0% |
    collect:                                 1.028     1.028   0.0% |
    p1:                                      7.720     7.720   0.0% |
    p2:                                      2.783     2.783   0.0% |
    sum:                                     0.919     0.919   0.0% |
   splines:                                  3.510     3.510   0.0% |
 vbar:                                       0.205     0.205   0.0% |
LCAO initialization:                        33.966     1.837   0.0% |
 LCAO eigensolver:                          20.978     0.003   0.0% |
  Calculate projections:                     0.000     0.000   0.0% |
  DenseAtomicCorrection:                     0.000     0.000   0.0% |
  Distribute overlap matrix:                20.146    20.146   0.1% |
  Orbital Layouts:                           0.677     0.677   0.0% |
  Potential matrix:                          0.020     0.020   0.0% |
  Sum over cells:                            0.132     0.132   0.0% |
 LCAO to grid:                               9.611     9.611   0.1% |
 Set positions (LCAO WFS):                   1.540     1.096   0.0% |
  Basic WFS set positions:                   0.001     0.001   0.0% |
  Basis functions set positions:             0.000     0.000   0.0% |
  P tci:                                     0.000     0.000   0.0% |
  ST tci:                                    0.360     0.360   0.0% |
  mktci:                                     0.082     0.082   0.0% |
Redistribute:                                0.011     0.011   0.0% |
SCF-cycle:                               16133.817   172.624   1.0% |
 Davidson:                               14737.074  5139.087  28.9% |-----------|
  Apply hamiltonian:                       260.364   260.364   1.5% ||
  Subspace diag:                          1192.575     0.047   0.0% |
   calc_h_matrix:                          585.255   325.304   1.8% ||
    Apply hamiltonian:                     259.951   259.951   1.5% ||
   diagonalize:                             21.164    21.164   0.1% |
   rotate_psi:                             586.108   586.108   3.3% ||
  calc. matrices:                         6859.097  2149.373  12.1% |----|
   Apply hamiltonian:                     4709.723  4709.723  26.5% |----------|
  diagonalize:                             182.183   182.183   1.0% |
  rotate_psi:                             1103.768  1103.768   6.2% |-|
 Density:                                   23.952     0.008   0.0% |
  Atomic density matrices:                   2.112     2.112   0.0% |
  Mix:                                       5.102     5.102   0.0% |
  Multipole moments:                         0.131     0.131   0.0% |
  Pseudo density:                           16.598    16.588   0.1% |
   Symmetrize density:                       0.010     0.010   0.0% |
 Hamiltonian:                             1066.293     0.043   0.0% |
  Atomic:                                   53.358     0.234   0.0% |
   XC Correction:                           53.124    53.124   0.3% |
  Calculate atomic Hamiltonians:            21.447    21.447   0.1% |
  Communicate:                               3.117     3.117   0.0% |
  Hartree integrate/restrict:                3.640     3.640   0.0% |
  Poisson:                                  60.845     2.505   0.0% |
   Communicate from 1D:                      4.797     4.797   0.0% |
   Communicate from 2D:                     10.077    10.077   0.1% |
   Communicate to 1D:                        2.735     2.735   0.0% |
   Communicate to 2D:                       10.864    10.864   0.1% |
   FFT 1D:                                  15.228    15.228   0.1% |
   FFT 2D:                                  14.640    14.640   0.1% |
  XC 3D grid:                              923.101   248.306   1.4% ||
   VdW-DF integral:                        674.795    48.203   0.3% |
    Convolution:                            78.859    78.859   0.4% |
    FFT:                                    52.238    52.238   0.3% |
    gather:                                175.474   175.474   1.0% |
    hmm1:                                   15.126    15.126   0.1% |
    hmm2:                                   31.502    31.502   0.2% |
    iFFT:                                   50.997    50.997   0.3% |
    potential:                             222.392     5.741   0.0% |
     collect:                               17.790    17.790   0.1% |
     p1:                                   134.488   134.488   0.8% |
     p2:                                    48.298    48.298   0.3% |
     sum:                                   16.075    16.075   0.1% |
    splines:                                 0.002     0.002   0.0% |
  vbar:                                      0.742     0.742   0.0% |
 Orthonormalize:                           133.873     0.004   0.0% |
  calc_s_matrix:                             7.479     7.479   0.0% |
  inverse-cholesky:                        111.153   111.153   0.6% |
  projections:                               0.001     0.001   0.0% |
  rotate_psi_s:                             15.237    15.237   0.1% |
Set symmetry:                                0.001     0.001   0.0% |
Other:                                    1075.137  1075.137   6.0% |-|
-------------------------------------------------------------------
Total:                                             17802.334 100.0%

Memory usage: 1.50 GiB
Date: Fri Sep 29 06:32:53 2023
