
  ___ ___ ___ _ _ _  
 |   |   |_  | | | | 
 | | | | | . | | | | 
 |__ |  _|___|_____|  22.8.0
 |___|_|             

User:   s204775@c179.nifl.fysik.dtu.dk
Date:   Tue Oct  3 14:32:42 2023
Arch:   x86_64
Pid:    3450
CWD:    /home/cat/s204775/projects/Bachelor_project/OCCOH_missing_features
Python: 3.10.4
gpaw:   /home/modules/software/GPAW/22.8.0-intel-2022a/lib/python3.10/site-packages/gpaw
_gpaw:  /home/modules/software/GPAW/22.8.0-intel-2022a/lib/python3.10/site-packages/
        _gpaw.cpython-310-x86_64-linux-gnu.so
ase:    /home/modules/software/ASE/3.22.1-intel-2022a/lib/python3.10/site-packages/ase (version 3.22.1)
numpy:  /home/modules/software/SciPy-bundle/2022.05-intel-2022a/lib/python3.10/site-packages/numpy (version 1.22.3)
scipy:  /home/modules/software/SciPy-bundle/2022.05-intel-2022a/lib/python3.10/site-packages/scipy (version 1.8.1)
libxc:  5.2.3
units:  Angstrom and eV
cores: 40
OpenMP: False
OMP_NUM_THREADS: 1

Input parameters:
  basis: dzp
  h: 0.18
  kpts: {size: (4, 4, 1)}
  maxiter: 3000
  xc: BEEF-vdW

System changes: positions, numbers, cell, pbc, initial_charges, initial_magmoms 

Initialize ...

species:
  Ni:
    name: Nickel
    id: 0d9f38a9d6e76a2886f07bb4381f212b
    Z: 28.0
    valence: 16
    core: 12
    charge: 0.0
    file: /home/modules/software/GPAW-setups/0.9.20000/Ni.PBE.gz
    compensation charges: {type: gauss,
                           rc: 0.36,
                           lmax: 2}
    cutoffs: {filter: 2.14,
              core: 1.98}
    valence states:
      #              energy  rcut
      - 4s(2.00)    -5.642   1.164
      - 3p(6.00)   -71.394   1.207
      - 4p(0.00)    -1.226   1.207
      - 3d(8.00)    -8.875   1.138
      -  s          21.570   1.164
      -  d          18.337   1.138
  
    # LCAO basis set for Ni:
    #   Name: dzp
    #   File: /home/modules/software/GPAW-setups/0.9.20000/Ni.dzp.basis.gz
    #   Number of radial functions: 9
    #   Number of spherical harmonics: 27
    #     l=0, rc=8.5156 Bohr: 4s-sz confined orbital
    #     l=1, rc=2.9375 Bohr: 3p-sz confined orbital
    #     l=1, rc=12.4062 Bohr: 4p-sz confined orbital
    #     l=2, rc=4.6875 Bohr: 3d-sz confined orbital
    #     l=0, rc=4.9688 Bohr: 4s-dz split-valence wave
    #     l=1, rc=2.0781 Bohr: 3p-dz split-valence wave
    #     l=1, rc=7.5469 Bohr: 4p-dz split-valence wave
    #     l=2, rc=2.9375 Bohr: 3d-dz split-valence wave
    #     l=1, rc=8.5156 Bohr: p-type Gaussian polarization
    #   Number of RI-basis functions 0

  H:
    name: Hydrogen
    id: d65de229564ff8ea4db303e23b6d1ecf
    Z: 1.0
    valence: 1
    core: 0
    charge: 0.0
    file: /home/modules/software/GPAW-setups/0.9.20000/H.PBE.gz
    compensation charges: {type: gauss,
                           rc: 0.15,
                           lmax: 2}
    cutoffs: {filter: 0.85,
              core: 0.53}
    valence states:
      #              energy  rcut
      - 1s(1.00)    -6.494   0.476
      -  s          20.717   0.476
      -  p           0.000   0.476
  
    # LCAO basis set for H:
    #   Name: dzp
    #   File: /home/modules/software/GPAW-setups/0.9.20000/H.dzp.basis.gz
    #   Number of radial functions: 3
    #   Number of spherical harmonics: 5
    #     l=0, rc=6.4219 Bohr: 1s-sz confined orbital
    #     l=0, rc=3.6094 Bohr: 1s-dz split-valence wave
    #     l=1, rc=6.4219 Bohr: p-type Gaussian polarization
    #   Number of RI-basis functions 0

  O:
    name: Oxygen
    id: 32ecd46bf208036f09c70b0ec9a88b78
    Z: 8.0
    valence: 6
    core: 2
    charge: 0.0
    file: /home/modules/software/GPAW-setups/0.9.20000/O.PBE.gz
    compensation charges: {type: gauss,
                           rc: 0.21,
                           lmax: 2}
    cutoffs: {filter: 1.17,
              core: 0.83}
    valence states:
      #              energy  rcut
      - 2s(2.00)   -23.961   0.688
      - 2p(4.00)    -9.029   0.598
      -  s           3.251   0.688
      -  p          18.182   0.598
      -  d           0.000   0.619
  
    # LCAO basis set for O:
    #   Name: dzp
    #   File: /home/modules/software/GPAW-setups/0.9.20000/O.dzp.basis.gz
    #   Number of radial functions: 5
    #   Number of spherical harmonics: 13
    #     l=0, rc=4.3438 Bohr: 2s-sz confined orbital
    #     l=1, rc=5.3906 Bohr: 2p-sz confined orbital
    #     l=0, rc=2.2969 Bohr: 2s-dz split-valence wave
    #     l=1, rc=2.8906 Bohr: 2p-dz split-valence wave
    #     l=2, rc=5.3906 Bohr: d-type Gaussian polarization
    #   Number of RI-basis functions 0

  C:
    name: Carbon
    id: 4aa54d4b901d75f77cc0ea3eec22967b
    Z: 6.0
    valence: 4
    core: 2
    charge: 0.0
    file: /home/modules/software/GPAW-setups/0.9.20000/C.PBE.gz
    compensation charges: {type: gauss,
                           rc: 0.20,
                           lmax: 2}
    cutoffs: {filter: 1.14,
              core: 1.14}
    valence states:
      #              energy  rcut
      - 2s(2.00)   -13.751   0.635
      - 2p(2.00)    -5.284   0.635
      -  s          13.461   0.635
      -  p          21.927   0.635
      -  d           0.000   0.635
  
    # LCAO basis set for C:
    #   Name: dzp
    #   File: /home/modules/software/GPAW-setups/0.9.20000/C.dzp.basis.gz
    #   Number of radial functions: 5
    #   Number of spherical harmonics: 13
    #     l=0, rc=5.5469 Bohr: 2s-sz confined orbital
    #     l=1, rc=6.6719 Bohr: 2p-sz confined orbital
    #     l=0, rc=3.0312 Bohr: 2s-dz split-valence wave
    #     l=1, rc=3.7500 Bohr: 2p-dz split-valence wave
    #     l=2, rc=6.6719 Bohr: d-type Gaussian polarization
    #   Number of RI-basis functions 0

Reference energy: -1495397.395098  # eV

Spin-polarized calculation.
Magnetic moment: 24.133853

Convergence criteria:
 Maximum [total energy] change in last 3 cyles: 0.0005 eV / electron
 Maximum integral of absolute [dens]ity change: 0.0001 electrons / valence electron
 Maximum integral of absolute [eigenst]ate change: 4e-08 eV^2 / valence electron
 Maximum number of scf [iter]ations: 3000
 (Square brackets indicate name in SCF output, whereas a 'c' in
 the SCF output indicates the quantity has converged.)

Symmetries present (total): 1

  ( 1  0  0)
  ( 0  1  0)
  ( 0  0  1)

16 k-points: 4 x 4 x 1 Monkhorst-Pack grid
8 k-points in the irreducible part of the Brillouin zone
       k-points in crystal coordinates                weights
   0:     0.12500000   -0.37500000    0.00000000          2/16
   1:     0.12500000   -0.12500000    0.00000000          2/16
   2:     0.12500000    0.12500000    0.00000000          2/16
   3:     0.12500000    0.37500000    0.00000000          2/16
   4:     0.37500000   -0.37500000    0.00000000          2/16
   5:     0.37500000   -0.12500000    0.00000000          2/16
   6:     0.37500000    0.12500000    0.00000000          2/16
   7:     0.37500000    0.37500000    0.00000000          2/16

Wave functions: Uniform real-space grid
  Kinetic energy operator: 8*3+1=25 point O(h^6) finite-difference Laplacian
  ScaLapack parameters: grid=1x1, blocksize=None
  Wavefunction extrapolation:
    Improved wavefunction reuse through dual PAW basis 

Occupation numbers: Fermi-Dirac:
  width: 0.1000  # eV
 

Eigensolver
   Davidson(niter=2) 

Densities:
  Coarse grid: 36*36*144 grid
  Fine grid: 72*72*288 grid
  Total Charge: 0.000000 

Density mixing:
  Method: difference
  Backend: pulay
  Linear mixing parameter: 0.05
  old densities: 5
  Damping of long wavelength oscillations: 50 

Hamiltonian:
  XC and Coulomb potentials evaluated on a 72*72*288 grid
  Using the BEEF-vdW Exchange-Correlation functional
  Interpolation: tri-quintic (5. degree polynomial)
  Poisson solver: FastPoissonSolver using
    Stencil: 8*3+1=25 point O(h^6) finite-difference Laplacian
    FFT axes: [0, 1]
    FST axes: [2]
 

XC parameters: BEEF-vdW with 2 nearest neighbor stencil

Memory estimate:
  Process memory now: 209.42 MiB
  Calculator: 716.29 MiB
    Density: 48.09 MiB
      Arrays: 9.85 MiB
      Localized functions: 34.36 MiB
      Mixer: 3.88 MiB
    Hamiltonian: 9.96 MiB
      Arrays: 7.32 MiB
      XC: 0.00 MiB
      Poisson: 0.00 MiB
      vbar: 2.64 MiB
    Wavefunctions: 658.24 MiB
      Arrays psit_nG: 417.50 MiB
      Eigensolver: 233.22 MiB
      Projections: 1.62 MiB
      Projectors: 5.91 MiB

Total number of cores used: 40
Parallelization over k-points: 8
Domain decomposition: 1 x 1 x 5

Number of atoms: 41
Number of atomic orbitals: 1029
Number of bands in calculation: 377
Number of valence electrons: 597
Bands to converge: occupied

... initialized

Initializing position-dependent things.

Density initialized from atomic densities
Creating initial wave functions:
  377 bands from LCAO basis set

                                          
                                          
                                          
                                          
                                          
                                          
                  O                       
                 H                        
                 OC                       
          Ni    NC     Ni                 
           NNi   NNi   NiNi               
              Ni    Ni    Ni              
             Ni    Ni    Ni               
              NNi   NNi   NNi             
                                          
               Ni     Ni    Ni            
          Ni    NNi    NNi    Ni          
                                          
            Ni    Ni     Ni               
              Ni    Ni    Ni              
                                          
                                          
                                          
                                          

Positions:
   0 Ni    -0.000000    0.000000   10.000000    ( 0.0000,  0.0000,  0.6703)
   1 Ni     1.261746    0.728469   12.060422    ( 0.0000,  0.0000,  0.6693)
   2 Ni    -0.000000    1.456879   14.115099    ( 0.0000,  0.0000,  0.6697)
   3 Ni    -0.000000    0.000000   16.159108    ( 0.0000,  0.0000,  0.6722)
   4 Ni    -1.261746    2.185408   10.000000    ( 0.0000,  0.0000,  0.6703)
   5 Ni    -0.000000    2.913877   12.060422    ( 0.0000,  0.0000,  0.6693)
   6 Ni    -1.261752    3.642342   14.115047    ( 0.0000,  0.0000,  0.6697)
   7 Ni    -1.261722    2.185367   16.159160    ( 0.0000,  0.0000,  0.6722)
   8 Ni    -2.523491    4.370815   10.000000    ( 0.0000,  0.0000,  0.6703)
   9 Ni    -1.261746    5.099284   12.060422    ( 0.0000,  0.0000,  0.6693)
  10 Ni    -2.523542    5.827783   14.115099    ( 0.0000,  0.0000,  0.6697)
  11 Ni    -2.523515    4.370856   16.159160    ( 0.0000,  0.0000,  0.6722)
  12 Ni     2.523491    0.000000   10.000000    ( 0.0000,  0.0000,  0.6703)
  13 Ni     3.785237    0.728469   12.060422    ( 0.0000,  0.0000,  0.6693)
  14 Ni     2.523448    1.456914   14.115068    ( 0.0000,  0.0000,  0.6697)
  15 Ni     2.523444    0.000000   16.159160    ( 0.0000,  0.0000,  0.6722)
  16 Ni     1.261746    2.185408   10.000000    ( 0.0000,  0.0000,  0.6703)
  17 Ni     2.523491    2.913877   12.060422    ( 0.0000,  0.0000,  0.6693)
  18 Ni     1.261752    3.642342   14.115047    ( 0.0000,  0.0000,  0.6697)
  19 Ni     1.261722    2.185367   16.159160    ( 0.0000,  0.0000,  0.6722)
  20 Ni    -0.000000    4.370815   10.000000    ( 0.0000,  0.0000,  0.6703)
  21 Ni     1.261746    5.099284   12.060422    ( 0.0000,  0.0000,  0.6693)
  22 Ni    -0.000000    5.827761   14.115047    ( 0.0000,  0.0000,  0.6697)
  23 Ni    -0.000000    4.370815   16.159174    ( 0.0000,  0.0000,  0.6722)
  24 Ni     5.046982    0.000000   10.000000    ( 0.0000,  0.0000,  0.6703)
  25 Ni     6.308728    0.728469   12.060422    ( 0.0000,  0.0000,  0.6693)
  26 Ni     5.047025    1.456914   14.115068    ( 0.0000,  0.0000,  0.6697)
  27 Ni     5.047030    0.000000   16.159160    ( 0.0000,  0.0000,  0.6722)
  28 Ni     3.785237    2.185408   10.000000    ( 0.0000,  0.0000,  0.6703)
  29 Ni     5.046982    2.913877   12.060422    ( 0.0000,  0.0000,  0.6693)
  30 Ni     3.785237    3.642395   14.115068    ( 0.0000,  0.0000,  0.6697)
  31 Ni     3.785237    2.185408   16.159114    ( 0.0000,  0.0000,  0.6722)
  32 Ni     2.523491    4.370815   10.000000    ( 0.0000,  0.0000,  0.6703)
  33 Ni     3.785237    5.099284   12.060422    ( 0.0000,  0.0000,  0.6693)
  34 Ni     2.523542    5.827783   14.115099    ( 0.0000,  0.0000,  0.6697)
  35 Ni     2.523515    4.370856   16.159160    ( 0.0000,  0.0000,  0.6722)
  36 H      1.326389   -0.377214   19.496405    ( 0.0000,  0.0000,  0.0000)
  37 O      1.303872   -0.742850   18.704332    ( 0.0000,  0.0000,  0.0000)
  38 C      1.307625    0.123605   17.705239    ( 0.0000,  0.0000,  0.0000)
  39 C      1.234311    1.619573   17.947346    ( 0.0000,  0.0000,  0.0000)
  40 O      1.286864    2.248121   19.230726    ( 0.0000,  0.0000,  0.0000)

Unit cell:
           periodic     x           y           z      points  spacing
  1. axis:    yes    7.570474    0.000000    0.000000    36     0.1821
  2. axis:    yes   -3.785237    6.556223    0.000000    36     0.1821
  3. axis:    no     0.000000    0.000000   26.181266   144     0.1818

  Lengths:   7.570474   7.570474  26.181266
  Angles:   90.000000  90.000000 120.000000

Effective grid spacing dv^(1/3) = 0.1910

     iter     time        total  log10-change:  magmom
                         energy  eigst   dens
iter:   1 14:35:39 -2920.578604                  +23.8713
iter:   2 14:36:52 -3198.289804  +0.90  -1.32    +17.6987
iter:   3 14:38:05 -3024.739913  +0.37  -1.04    +12.5101
iter:   4 14:39:18 -2843.436125  -0.70  -1.18    +8.0649
iter:   5 14:40:31 -2842.245589  -1.27  -1.52    +6.7948
iter:   6 14:41:44 -2826.080284  -1.62  -1.51    +7.7784
iter:   7 14:42:57 -2820.121675  -1.86  -1.57    +8.5543
iter:   8 14:44:10 -2848.465585  -1.04  -1.58    +6.6280
iter:   9 14:45:23 -2820.690661  -1.13  -1.53    +4.3731
iter:  10 14:46:36 -2817.605214  -1.55  -1.63    +4.4675
iter:  11 14:47:49 -2832.147712  -1.17  -1.67    +5.3167
iter:  12 14:49:02 -2813.651956  -1.23  -1.62    +4.1961
iter:  13 14:50:15 -2802.728426  -1.51  -1.72    +4.5080
iter:  14 14:51:28 -2794.713364  -1.63  -1.84    +5.4050
iter:  15 14:52:41 -2796.328823  -1.83  -1.94    +6.6588
iter:  16 14:53:54 -2788.900996  -2.13  -1.92    +7.2613
iter:  17 14:55:07 -2788.748711  -2.83  -2.07    +8.6541
iter:  18 14:56:20 -2789.668094  -2.08  -2.09    +10.7831
iter:  19 14:57:34 -2789.739203  -2.19  -2.18    +12.3754
iter:  20 14:58:47 -2791.920420  -2.19  -2.22    +13.8010
iter:  21 15:00:00 -2789.971283  -2.71  -2.14    +15.4025
iter:  22 15:01:13 -2789.452416  -2.31  -2.39    +18.6608
iter:  23 15:02:26 -2791.341505  -2.58  -2.56    +19.0961
iter:  24 15:03:39 -2789.570186  -3.14  -2.22    +19.6583
iter:  25 15:04:52 -2789.640633  -2.88  -2.59    +21.2198
iter:  26 15:06:05 -2789.584465c -3.22  -2.72    +21.2509
iter:  27 15:07:18 -2789.558126c -3.38  -2.92    +21.8321
iter:  28 15:08:31 -2789.559933c -3.87  -3.03    +22.0196
iter:  29 15:09:44 -2789.592735c -4.08  -3.06    +22.1810
iter:  30 15:10:57 -2789.584825c -4.29  -3.09    +22.3425
iter:  31 15:12:10 -2789.619778c -4.15  -3.11    +22.4198
iter:  32 15:13:24 -2789.590072c -4.28  -3.05    +22.4887
iter:  33 15:14:37 -2789.579503c -4.69  -3.27    +22.6229
iter:  34 15:15:50 -2789.578496c -4.95  -3.37    +22.6460
iter:  35 15:17:03 -2789.579337c -5.39  -3.39    +22.6607
iter:  36 15:18:16 -2789.584273c -4.70  -3.45    +22.6984
iter:  37 15:19:29 -2789.581057c -5.31  -3.60    +22.6912
iter:  38 15:20:42 -2789.582864c -5.43  -3.78    +22.6993
iter:  39 15:21:55 -2789.583805c -5.44  -3.77    +22.7140
iter:  40 15:23:08 -2789.582835c -5.75  -3.84    +22.7035
iter:  41 15:24:21 -2789.583417c -5.64  -3.82    +22.7104
iter:  42 15:25:34 -2789.585445c -5.43  -3.93    +22.7175
iter:  43 15:26:47 -2789.584679c -5.76  -3.94    +22.7231
iter:  44 15:28:00 -2789.585606c -5.83  -4.04c   +22.7219
iter:  45 15:29:13 -2789.584541c -5.55  -4.05c   +22.7391
iter:  46 15:30:26 -2789.587603c -5.71  -4.10c   +22.7332
iter:  47 15:31:40 -2789.585786c -5.79  -3.78    +22.7421
iter:  48 15:32:53 -2789.585885c -6.14  -3.89    +22.7468
iter:  49 15:34:06 -2789.586194c -5.66  -3.91    +22.7547
iter:  50 15:35:19 -2789.585545c -5.69  -3.85    +22.7509
iter:  51 15:36:32 -2789.585836c -5.70  -3.88    +22.7544
iter:  52 15:37:45 -2789.587473c -5.96  -3.79    +22.7558
iter:  53 15:38:58 -2789.587425c -5.92  -3.69    +22.7528
iter:  54 15:40:11 -2789.583546c -5.45  -3.66    +22.7641
iter:  55 15:41:24 -2789.583205c -5.84  -3.92    +22.7684
iter:  56 15:42:37 -2789.584686c -5.53  -4.00c   +22.7773
iter:  57 15:43:50 -2789.582614c -6.05  -3.95    +22.7713
iter:  58 15:45:03 -2789.583399c -5.90  -4.17c   +22.7596
iter:  59 15:46:15 -2789.582677c -6.21  -3.88    +22.7646
iter:  60 15:47:28 -2789.582562c -6.94  -4.11c   +22.7655
iter:  61 15:48:41 -2789.582323c -5.35  -4.21c   +22.7680
iter:  62 15:49:54 -2789.584476c -5.04  -4.04c   +22.7730
iter:  63 15:51:07 -2789.584044c -5.71  -4.17c   +22.7804
iter:  64 15:52:20 -2789.584851c -5.71  -4.52c   +22.7841
iter:  65 15:53:32 -2789.585053c -5.95  -4.30c   +22.7832
iter:  66 15:54:45 -2789.585790c -5.92  -4.47c   +22.7845
iter:  67 15:55:58 -2789.587876c -5.44  -4.35c   +22.7774
iter:  68 15:57:11 -2789.585076c -5.35  -3.92    +22.7859
iter:  69 15:58:24 -2789.584745c -6.06  -4.37c   +22.7861
iter:  70 15:59:36 -2789.584198c -6.45  -4.28c   +22.7826
iter:  71 16:00:49 -2789.584521c -6.99  -4.44c   +22.7839
iter:  72 16:02:02 -2789.584825c -6.51  -4.40c   +22.7799
iter:  73 16:03:15 -2789.584384c -6.26  -4.74c   +22.7817
iter:  74 16:04:28 -2789.584774c -6.52  -4.43c   +22.7819
iter:  75 16:05:41 -2789.583343c -5.05  -4.89c   +22.7843
iter:  76 16:06:54 -2789.583701c -6.16  -3.87    +22.7857
iter:  77 16:08:07 -2789.584078c -6.09  -4.13c   +22.7854
iter:  78 16:09:19 -2789.585047c -5.42  -4.35c   +22.7833
iter:  79 16:10:32 -2789.586169c -5.24  -4.78c   +22.7778
iter:  80 16:11:45 -2789.583530c -4.59  -4.07c   +22.7944
iter:  81 16:12:58 -2789.583550c -5.63  -3.85    +22.7932
iter:  82 16:14:11 -2789.583510c -6.73  -3.89    +22.7926
iter:  83 16:15:24 -2789.583724c -5.77  -3.95    +22.7987
iter:  84 16:16:37 -2789.583049c -5.39  -3.76    +22.8019
iter:  85 16:17:49 -2789.584020c -4.90  -3.65    +22.7877
iter:  86 16:19:02 -2789.583776c -4.28  -4.26c   +22.8144
iter:  87 16:20:15 -2789.583575c -5.19  -3.40    +22.8121
iter:  88 16:21:28 -2789.584746c -5.87  -3.41    +22.8117
iter:  89 16:22:41 -2789.584936c -6.18  -3.39    +22.8092
iter:  90 16:23:53 -2789.583631c -6.19  -3.39    +22.8052
iter:  91 16:25:06 -2789.582127c -5.64  -3.39    +22.8072
iter:  92 16:26:19 -2789.567518c -4.77  -3.39    +22.8076
iter:  93 16:27:32 -2789.566382c -5.69  -3.83    +22.8027
iter:  94 16:28:44 -2789.568620c -4.93  -4.11c   +22.7780
iter:  95 16:29:57 -2789.579934c -4.27  -3.85    +22.7483
iter:  96 16:31:10 -2789.595689c -4.55  -3.46    +22.7713
iter:  97 16:32:23 -2789.568544c -4.11  -3.35    +22.7461
iter:  98 16:33:36 -2789.541460c -3.70  -3.42    +22.7608
iter:  99 16:34:48 -2789.593592c -3.44  -3.16    +22.7643
iter: 100 16:36:01 -2789.575389c -2.81  -3.38    +22.7852
iter: 101 16:37:14 -2789.626270c -3.21  -2.79    +22.7850
iter: 102 16:38:27 -2789.720481c -3.55  -3.08    +22.7848
iter: 103 16:39:40 -2789.799310c -3.51  -2.77    +22.8163
iter: 104 16:40:52 -2789.755111c -3.78  -2.66    +22.8339
iter: 105 16:42:05 -2789.842894c -3.99  -2.65    +22.8519
iter: 106 16:43:18 -2789.840609c -5.07  -2.60    +22.8480
iter: 107 16:44:31 -2789.741411c -4.64  -2.60    +22.8592
iter: 108 16:45:43 -2789.199241  -3.59  -2.62    +22.8331
iter: 109 16:46:56 -2789.102163  -3.64  -2.91    +22.8256
iter: 110 16:48:09 -2789.210910c -3.70  -3.09    +22.7854
iter: 111 16:49:22 -2789.366182c -3.58  -3.23    +22.6454
iter: 112 16:50:35 -2789.588332  -3.18  -3.33    +22.6461
iter: 113 16:51:48 -2789.635863c -3.36  -3.10    +22.7121
iter: 114 16:53:00 -2789.855859c -3.12  -3.09    +22.7609
iter: 115 16:54:13 -2789.805585c -4.33  -2.82    +22.7374
iter: 116 16:55:26 -2790.331733  -2.79  -2.87    +22.8313
iter: 117 16:56:39 -2790.131043  -3.71  -2.55    +22.8287
iter: 118 16:57:51 -2790.809716  -2.98  -2.64    +22.9116
iter: 119 16:59:04 -2790.919948  -3.89  -2.44    +22.9320
iter: 120 17:00:17 -2790.999694c -2.76  -2.44    +23.0885
iter: 121 17:01:30 -2789.582396  -2.60  -2.37    +22.9689
iter: 122 17:02:43 -2789.682659  -3.35  -2.41    +22.5899
iter: 123 17:03:55 -2789.892730  -3.30  -2.47    +22.4501
iter: 124 17:05:08 -2790.427680  -3.48  -2.45    +22.3080
iter: 125 17:06:21 -2801.611850  -1.83  -2.40    +22.3791
iter: 126 17:07:34 -2789.455448  -2.76  -1.89    +21.8700
iter: 127 17:08:47 -2789.076019  -2.53  -2.42    +23.8421
iter: 128 17:09:59 -2789.389256  -2.62  -2.89    +23.1564
iter: 129 17:11:12 -2789.539048  -2.73  -2.99    +22.3139
iter: 130 17:12:25 -2789.616380c -2.99  -3.20    +22.3805
iter: 131 17:13:38 -2789.584409c -3.61  -2.99    +22.4072
iter: 132 17:14:50 -2789.623527c -3.82  -3.22    +22.5271
iter: 133 17:16:03 -2789.619201c -4.04  -3.11    +22.5339
iter: 134 17:17:16 -2789.599145c -3.89  -3.07    +22.5641
iter: 135 17:18:29 -2789.591490c -4.02  -3.16    +22.6042
iter: 136 17:19:42 -2789.586105c -4.03  -3.22    +22.6971
iter: 137 17:20:54 -2789.584166c -4.68  -3.51    +22.7239
iter: 138 17:22:07 -2789.593410c -4.96  -3.53    +22.7071
iter: 139 17:23:20 -2789.582634c -5.46  -3.36    +22.7038
iter: 140 17:24:33 -2789.582160c -5.49  -3.57    +22.7031
iter: 141 17:25:46 -2789.590062c -5.18  -3.62    +22.7100
iter: 142 17:26:59 -2789.585259c -5.17  -3.47    +22.7059
iter: 143 17:28:12 -2789.587255c -5.33  -3.79    +22.7368
iter: 144 17:29:24 -2789.588448c -5.39  -3.69    +22.7453
iter: 145 17:30:37 -2789.590224c -5.42  -3.67    +22.7524
iter: 146 17:31:50 -2789.590391c -5.28  -3.59    +22.7524
iter: 147 17:33:03 -2789.591163c -6.08  -3.64    +22.7536
iter: 148 17:34:16 -2789.594106c -5.60  -3.63    +22.7654
iter: 149 17:35:29 -2789.605848c -4.73  -3.57    +22.7810
iter: 150 17:36:42 -2789.602414c -5.09  -3.35    +22.7652
iter: 151 17:37:55 -2789.618703c -4.26  -3.35    +22.7781
iter: 152 17:39:07 -2789.648487c -3.60  -3.21    +22.7712
iter: 153 17:40:20 -2789.580371c -3.88  -3.01    +22.7555
iter: 154 17:41:33 -2789.623279c -4.80  -3.09    +22.7321
iter: 155 17:42:46 -2789.642540c -4.79  -3.04    +22.7160
iter: 156 17:43:59 -2789.638579c -5.10  -3.01    +22.7105
iter: 157 17:45:12 -2789.600271c -3.48  -3.01    +22.6698
iter: 158 17:46:25 -2789.538629c -3.81  -2.86    +22.6856
iter: 159 17:47:38 -2789.545506c -4.03  -3.15    +22.5775
iter: 160 17:48:51 -2789.573542c -3.65  -3.36    +22.5379
iter: 161 17:50:04 -2789.588257c -4.15  -3.22    +22.5409
iter: 162 17:51:16 -2789.610009c -4.27  -3.33    +22.6078
iter: 163 17:52:29 -2789.607252c -3.92  -3.20    +22.6132
iter: 164 17:53:42 -2789.611251c -4.38  -3.25    +22.6243
iter: 165 17:54:55 -2789.636343c -4.07  -3.21    +22.6735
iter: 166 17:56:08 -2789.632637c -4.49  -3.12    +22.7071
iter: 167 17:57:21 -2789.659250c -3.75  -3.10    +22.7667
iter: 168 17:58:34 -2789.681912c -4.02  -2.86    +22.7815
iter: 169 17:59:47 -2789.695965c -4.67  -2.93    +22.8131
iter: 170 18:00:59 -2789.667463c -4.35  -2.91    +22.6997
iter: 171 18:02:12 -2789.589143c -4.14  -2.95    +22.7334
iter: 172 18:03:25 -2789.651561c -4.72  -3.12    +22.7761
iter: 173 18:04:38 -2789.587193c -4.51  -2.99    +22.8032
iter: 174 18:05:51 -2789.553097c -4.34  -3.10    +22.8298
iter: 175 18:07:04 -2789.554846c -4.98  -3.15    +22.8688
iter: 176 18:08:16 -2789.522433c -3.96  -3.19    +22.9165
iter: 177 18:09:29 -2789.550677c -3.77  -3.31    +22.8915
iter: 178 18:10:42 -2789.569204c -4.26  -3.47    +22.8304
iter: 179 18:11:55 -2789.582832c -3.97  -3.46    +22.8462
iter: 180 18:13:08 -2789.588679c -4.07  -3.63    +22.7796
iter: 181 18:14:21 -2789.594111c -4.63  -3.51    +22.7492
iter: 182 18:15:34 -2789.595618c -4.91  -3.52    +22.7462
iter: 183 18:16:46 -2789.587995c -4.58  -3.43    +22.7161
iter: 184 18:17:59 -2789.584072c -4.91  -3.48    +22.7080
iter: 185 18:19:12 -2789.582776c -5.27  -3.71    +22.7217
iter: 186 18:20:25 -2789.587210c -4.91  -3.79    +22.7277
iter: 187 18:21:38 -2789.582328c -5.51  -3.61    +22.7386
iter: 188 18:22:51 -2789.585309c -5.32  -3.92    +22.7546
iter: 189 18:24:03 -2789.584283c -5.73  -3.77    +22.7701
iter: 190 18:25:16 -2789.583945c -5.89  -3.92    +22.7675
iter: 191 18:26:29 -2789.584026c -6.11  -3.99    +22.7692
iter: 192 18:27:42 -2789.584431c -5.91  -4.01c   +22.7575
iter: 193 18:28:55 -2789.585709c -5.71  -4.05c   +22.7527
iter: 194 18:30:08 -2789.585778c -6.12  -4.02c   +22.7593
iter: 195 18:31:21 -2789.585549c -6.36  -3.94    +22.7636
iter: 196 18:32:34 -2789.585354c -6.28  -4.15c   +22.7616
iter: 197 18:33:46 -2789.585666c -5.93  -4.14c   +22.7629
iter: 198 18:34:59 -2789.585479c -6.50  -4.28c   +22.7627
iter: 199 18:36:12 -2789.585391c -6.21  -4.39c   +22.7618
iter: 200 18:37:25 -2789.585897c -6.56  -4.13c   +22.7669
iter: 201 18:38:38 -2789.585372c -6.81  -4.43c   +22.7660
iter: 202 18:39:51 -2789.585484c -7.10  -4.63c   +22.7639
iter: 203 18:41:04 -2789.585159c -7.27  -4.33c   +22.7640
iter: 204 18:42:17 -2789.584684c -6.08  -4.57c   +22.7587
iter: 205 18:43:29 -2789.585640c -6.18  -4.77c   +22.7568
iter: 206 18:44:42 -2789.585118c -6.76  -4.31c   +22.7564
iter: 207 18:45:55 -2789.584803c -6.26  -4.90c   +22.7583
iter: 208 18:47:08 -2789.584617c -6.59  -4.61c   +22.7573
iter: 209 18:48:21 -2789.585024c -6.40  -4.70c   +22.7616
iter: 210 18:49:34 -2789.584338c -5.51  -4.80c   +22.7469
iter: 211 18:50:47 -2789.584258c -6.33  -4.19c   +22.7463
iter: 212 18:52:00 -2789.584579c -6.88  -4.20c   +22.7483
iter: 213 18:53:12 -2789.584968c -5.79  -4.26c   +22.7581
iter: 214 18:54:25 -2789.584532c -5.59  -4.97c   +22.7448
iter: 215 18:55:38 -2789.584554c -6.55  -4.07c   +22.7469
iter: 216 18:56:51 -2789.584749c -7.26  -4.10c   +22.7481
iter: 217 18:58:04 -2789.584940c -6.71  -4.15c   +22.7500
iter: 218 18:59:17 -2789.585249c -6.16  -4.22c   +22.7514
iter: 219 19:00:30 -2789.584338c -5.79  -4.40c   +22.7507
iter: 220 19:01:42 -2789.584988c -6.04  -4.27c   +22.7530
iter: 221 19:02:55 -2789.585537c -5.88  -4.66c   +22.7553
iter: 222 19:04:08 -2789.584905c -6.16  -4.42c   +22.7486
iter: 223 19:05:21 -2789.584290c -5.59  -4.96c   +22.7450
iter: 224 19:06:34 -2789.584820c -6.18  -4.42c   +22.7500
iter: 225 19:07:47 -2789.584696c -6.75  -4.87c   +22.7494
iter: 226 19:08:59 -2789.584764c -6.47  -4.66c   +22.7550
iter: 227 19:10:12 -2789.585036c -5.95  -4.42c   +22.7617
iter: 228 19:11:25 -2789.584748c -5.48  -4.26c   +22.7491
iter: 229 19:12:38 -2789.584947c -6.43  -4.51c   +22.7537
iter: 230 19:13:51 -2789.585031c -6.73  -5.09c   +22.7533
iter: 231 19:15:04 -2789.585718c -5.65  -4.97c   +22.7535
iter: 232 19:16:17 -2789.584135c -4.65  -4.20c   +22.7481
iter: 233 19:17:30 -2789.584264c -5.38  -3.86    +22.7448
iter: 234 19:18:43 -2789.584455c -6.44  -3.81    +22.7433
iter: 235 19:19:56 -2789.585003c -5.56  -3.84    +22.7416
iter: 236 19:21:08 -2789.584914c -6.79  -4.09c   +22.7427
iter: 237 19:22:21 -2789.584384c -6.53  -4.03c   +22.7439
iter: 238 19:23:34 -2789.584382c -6.76  -4.26c   +22.7459
iter: 239 19:24:47 -2789.584246c -6.29  -4.13c   +22.7450
iter: 240 19:26:00 -2789.584527c -6.44  -4.22c   +22.7447
iter: 241 19:27:13 -2789.584794c -6.07  -4.17c   +22.7506
iter: 242 19:28:25 -2789.584496c -6.95  -4.61c   +22.7485
iter: 243 19:29:38 -2789.584655c -6.62  -4.86c   +22.7430
iter: 244 19:30:51 -2789.585064c -5.96  -4.87c   +22.7451
iter: 245 19:32:04 -2789.585835c -5.52  -4.49c   +22.7510
iter: 246 19:33:17 -2789.586815c -5.38  -4.08c   +22.7582
iter: 247 19:34:30 -2789.584233c -4.34  -3.85    +22.7269
iter: 248 19:35:43 -2789.584461c -5.88  -3.80    +22.7372
iter: 249 19:36:55 -2789.584444c -6.38  -4.09c   +22.7361
iter: 250 19:38:08 -2789.584371c -5.98  -4.01c   +22.7360
iter: 251 19:39:21 -2789.584511c -6.93  -3.90    +22.7354
iter: 252 19:40:34 -2789.584468c -6.84  -3.93    +22.7367
iter: 253 19:41:47 -2789.584673c -6.56  -3.97    +22.7379
iter: 254 19:43:00 -2789.584000c -6.63  -4.00c   +22.7387
iter: 255 19:44:13 -2789.583832c -5.62  -4.22c   +22.7444
iter: 256 19:45:25 -2789.584292c -5.88  -3.97    +22.7375
iter: 257 19:46:38 -2789.584476c -5.65  -4.48c   +22.7500
iter: 258 19:47:51 -2789.584754c -6.08  -4.28c   +22.7400
iter: 259 19:49:04 -2789.585257c -5.34  -4.42c   +22.7365
iter: 260 19:50:17 -2789.584873c -5.60  -4.31c   +22.7472
iter: 261 19:51:30 -2789.585516c -6.14  -4.22c   +22.7548
iter: 262 19:52:43 -2789.585329c -6.41  -4.08c   +22.7578
iter: 263 19:53:56 -2789.585537c -6.08  -4.07c   +22.7603
iter: 264 19:55:08 -2789.585417c -5.30  -3.97    +22.7710
iter: 265 19:56:21 -2789.586326c -5.40  -3.81    +22.7766
iter: 266 19:57:34 -2789.588348c -6.28  -3.73    +22.7745
iter: 267 19:58:47 -2789.588287c -5.88  -3.64    +22.7854
iter: 268 20:00:00 -2789.583878c -5.27  -3.62    +22.7893
iter: 269 20:01:13 -2789.583571c -5.76  -3.78    +22.7877
iter: 270 20:02:26 -2789.588051c -4.79  -3.87    +22.7919
iter: 271 20:03:38 -2789.582131c -5.50  -3.58    +22.7891
iter: 272 20:04:51 -2789.582137c -5.76  -4.23c   +22.7852
iter: 273 20:06:04 -2789.583695c -5.46  -4.44c   +22.7913
iter: 274 20:07:17 -2789.588325c -4.47  -4.19c   +22.7839
iter: 275 20:08:30 -2789.586673c -4.84  -3.64    +22.7826
iter: 276 20:09:43 -2789.593868c -5.08  -3.66    +22.7689
iter: 277 20:10:56 -2789.587374c -5.72  -3.45    +22.7726
iter: 278 20:12:08 -2789.586749c -5.70  -3.62    +22.7675
iter: 279 20:13:21 -2789.583671c -5.29  -3.64    +22.7529
iter: 280 20:14:34 -2789.583466c -6.34  -3.81    +22.7569
iter: 281 20:15:47 -2789.580496c -5.12  -3.86    +22.7246
iter: 282 20:17:00 -2789.581769c -5.40  -3.93    +22.7479
iter: 283 20:18:13 -2789.587300c -4.39  -4.43c   +22.6748
iter: 284 20:19:26 -2789.588267c -4.99  -3.46    +22.6782
iter: 285 20:20:39 -2789.587655c -5.70  -3.43    +22.6836
iter: 286 20:21:52 -2789.588106c -6.33  -3.46    +22.6836
iter: 287 20:23:04 -2789.585888c -6.19  -3.45    +22.6851
iter: 288 20:24:17 -2789.593145c -6.04  -3.51    +22.6855
iter: 289 20:25:30 -2789.574825c -4.86  -3.39    +22.6994
iter: 290 20:26:43 -2789.576217c -5.16  -3.68    +22.7003
iter: 291 20:27:56 -2789.574129c -5.40  -3.48    +22.7044
iter: 292 20:29:09 -2789.577286c -5.29  -3.70    +22.6996
iter: 293 20:30:22 -2789.582474c -5.00  -3.85    +22.6973
iter: 294 20:31:34 -2789.581838c -5.46  -3.92    +22.6970
iter: 295 20:32:47 -2789.583210c -4.93  -4.06c   +22.7072
iter: 296 20:34:00 -2789.585342c -5.14  -4.05c   +22.7110
iter: 297 20:35:13 -2789.586462c -5.04  -3.92    +22.7317
iter: 298 20:36:26 -2789.589631c -5.10  -3.79    +22.7463
iter: 299 20:37:39 -2789.589178c -6.04  -3.59    +22.7422
iter: 300 20:38:52 -2789.600901c -4.21  -3.63    +22.7999
iter: 301 20:40:04 -2789.581217c -3.81  -3.30    +22.6796
iter: 302 20:41:17 -2789.583960c -5.36  -3.94    +22.7041
iter: 303 20:42:30 -2789.584472c -5.98  -4.17c   +22.7077
iter: 304 20:43:43 -2789.585694c -5.43  -4.27c   +22.7273
iter: 305 20:44:56 -2789.584262c -5.81  -3.93    +22.7127
iter: 306 20:46:09 -2789.583202c -5.28  -4.27c   +22.7104
iter: 307 20:47:21 -2789.584529c -5.48  -4.33c   +22.7192
iter: 308 20:48:34 -2789.587655c -4.88  -4.29c   +22.7373
iter: 309 20:49:47 -2789.582309c -4.44  -3.75    +22.7015
iter: 310 20:51:00 -2789.579916c -4.36  -3.98    +22.6759
iter: 311 20:52:13 -2789.583529c -4.51  -3.59    +22.7127
iter: 312 20:53:26 -2789.596214c -3.20  -4.60c   +22.5662
iter: 313 20:54:38 -2789.580174c -3.61  -2.98    +22.6807
iter: 314 20:55:51 -2789.579971c -5.53  -3.69    +22.6654
iter: 315 20:57:04 -2789.580107c -6.32  -3.49    +22.6659
iter: 316 20:58:17 -2789.579646c -5.90  -3.48    +22.6723
iter: 317 20:59:30 -2789.581026c -5.26  -3.54    +22.6587
iter: 318 21:00:43 -2789.580322c -5.36  -3.39    +22.6607
iter: 319 21:01:55 -2789.578276c -5.58  -3.34    +22.6673
iter: 320 21:03:08 -2789.572301c -5.06  -3.45    +22.6469
iter: 321 21:04:21 -2789.577147c -4.63  -3.37    +22.6873
iter: 322 21:05:34 -2789.573715c -5.08  -3.58    +22.6729
iter: 323 21:06:47 -2789.575908c -5.68  -3.89    +22.6783
iter: 324 21:08:00 -2789.578273c -5.41  -3.76    +22.7024
iter: 325 21:09:12 -2789.579898c -5.14  -3.73    +22.7243
iter: 326 21:10:25 -2789.579097c -5.95  -3.95    +22.7022
iter: 327 21:11:38 -2789.580959c -5.45  -3.88    +22.7101
iter: 328 21:12:51 -2789.583753c -4.91  -4.12c   +22.7222
iter: 329 21:14:04 -2789.578779c -3.85  -4.33c   +22.6650
iter: 330 21:15:17 -2789.580074c -4.09  -3.32    +22.6346
iter: 331 21:16:29 -2789.578215c -5.43  -3.17    +22.6392
iter: 332 21:17:42 -2789.580363c -4.71  -3.24    +22.6194
iter: 333 21:18:55 -2789.578645c -4.76  -3.13    +22.6404
iter: 334 21:20:08 -2789.579358c -4.10  -3.27    +22.6790
iter: 335 21:21:21 -2789.580006c -5.17  -3.63    +22.6562
iter: 336 21:22:33 -2789.577844c -5.47  -3.38    +22.6562
iter: 337 21:23:46 -2789.575770c -5.69  -3.35    +22.6621
iter: 338 21:24:59 -2789.578442c -5.37  -3.46    +22.6536
iter: 339 21:26:12 -2789.580013c -5.21  -3.32    +22.6516
iter: 340 21:27:25 -2789.574917c -5.55  -3.25    +22.6564
iter: 341 21:28:37 -2789.567311c -5.43  -3.31    +22.6553
iter: 342 21:29:50 -2789.564339c -5.58  -3.35    +22.6515
iter: 343 21:31:03 -2789.564266c -5.45  -3.42    +22.6455
iter: 344 21:32:16 -2789.562365c -4.20  -3.40    +22.6383
iter: 345 21:33:29 -2789.555844c -4.79  -3.44    +22.6434
iter: 346 21:34:41 -2789.554420c -4.65  -3.60    +22.6736
iter: 347 21:35:54 -2789.562964c -4.51  -3.60    +22.6289
iter: 348 21:37:07 -2789.564206c -3.98  -3.71    +22.7104
iter: 349 21:38:20 -2789.568943c -4.13  -3.33    +22.7695
iter: 350 21:39:32 -2789.566367c -4.80  -3.19    +22.7692
iter: 351 21:40:45 -2789.558540c -5.43  -3.23    +22.7608
iter: 352 21:41:58 -2789.550680c -4.93  -3.30    +22.7705
iter: 353 21:43:11 -2789.550047c -4.70  -3.37    +22.7576
iter: 354 21:44:24 -2789.565503c -4.42  -3.51    +22.7025
iter: 355 21:45:36 -2789.528183c -4.38  -3.50    +22.7638
iter: 356 21:46:49 -2789.487317c -3.64  -3.54    +22.7914
iter: 357 21:48:02 -2789.577886c -3.40  -3.13    +22.7023
iter: 358 21:49:15 -2789.625207c -3.11  -3.69    +22.7017
iter: 359 21:50:28 -2789.639912c -4.34  -3.13    +22.7591
iter: 360 21:51:41 -2789.669661c -4.21  -3.19    +22.7726
iter: 361 21:52:54 -2789.618703c -4.13  -3.07    +22.7342
iter: 362 21:54:07 -2789.644689c -3.89  -3.25    +22.7576
iter: 363 21:55:19 -2789.656687c -3.71  -3.09    +22.8123
iter: 364 21:56:32 -2789.635465c -4.94  -2.97    +22.7775
iter: 365 21:57:45 -2789.594263c -4.68  -3.03    +22.7551
iter: 366 21:58:58 -2789.610062c -5.11  -3.15    +22.7802
iter: 367 22:00:10 -2789.594686c -5.31  -3.09    +22.7885
iter: 368 22:01:23 -2789.563223c -5.02  -3.12    +22.7950
iter: 369 22:02:36 -2789.648195c -3.48  -3.21    +22.7914
iter: 370 22:03:49 -2789.521168c -4.12  -2.90    +22.8507
iter: 371 22:05:02 -2789.531135c -4.58  -3.68    +22.8534
iter: 372 22:06:14 -2789.541537c -4.28  -3.65    +22.8296
iter: 373 22:07:27 -2789.582790c -3.22  -3.46    +22.7626
iter: 374 22:08:40 -2789.595425c -3.83  -3.02    +22.7945
iter: 375 22:09:53 -2789.743221c -3.56  -3.03    +22.8264
iter: 376 22:11:06 -2789.562929c -4.18  -2.85    +22.8074
iter: 377 22:12:18 -2789.582323c -4.34  -3.09    +22.7716
iter: 378 22:13:31 -2789.522298c -3.86  -3.09    +22.7743
iter: 379 22:14:44 -2789.533545c -4.40  -3.67    +22.7734
iter: 380 22:15:57 -2789.566693c -4.48  -3.43    +22.7769
iter: 381 22:17:10 -2789.670061c -3.57  -3.41    +22.7167
iter: 382 22:18:22 -2789.700562c -3.30  -3.08    +22.7223
iter: 383 22:19:35 -2789.678414c -4.03  -2.96    +22.7500
iter: 384 22:20:47 -2789.660088c -4.10  -3.00    +22.7826
iter: 385 22:22:00 -2789.667388c -4.64  -2.96    +22.8191
iter: 386 22:23:13 -2789.785345c -3.51  -2.98    +22.8300
iter: 387 22:24:25 -2789.528020c -3.87  -2.65    +22.8263
iter: 388 22:25:38 -2789.527434c -4.18  -3.40    +22.7713
iter: 389 22:26:50 -2789.529291c -4.39  -3.54    +22.8206
iter: 390 22:28:03 -2789.545366c -3.92  -3.37    +22.7282
iter: 391 22:29:15 -2789.587255c -3.08  -3.42    +22.6649
iter: 392 22:30:28 -2789.653960c -3.68  -2.98    +22.7772
iter: 393 22:31:40 -2789.696774c -3.96  -2.91    +22.8221
iter: 394 22:32:53 -2789.726663c -3.91  -2.85    +22.8630
iter: 395 22:34:05 -2789.683134c -4.43  -2.78    +22.8122
iter: 396 22:35:18 -2790.228904  -2.89  -2.85    +22.9652
iter: 397 22:36:31 -2789.538417  -3.47  -2.49    +22.8656
iter: 398 22:37:43 -2789.531094  -3.62  -2.92    +22.6769
iter: 399 22:38:56 -2789.538301c -3.94  -3.00    +22.7579
iter: 400 22:40:08 -2789.539192c -3.20  -3.04    +22.7863
iter: 401 22:41:20 -2789.566432c -4.08  -2.96    +22.7620
iter: 402 22:42:32 -2789.648859c -3.52  -2.98    +22.6365
iter: 403 22:43:44 -2789.592905c -3.35  -3.01    +22.7210
iter: 404 22:44:56 -2789.599567c -4.05  -3.16    +22.7476
iter: 405 22:46:08 -2789.594602c -4.28  -3.14    +22.7316
iter: 406 22:47:21 -2789.643238c -4.71  -3.16    +22.7302
iter: 407 22:48:33 -2789.563774c -4.17  -3.00    +22.7209
iter: 408 22:49:45 -2789.552542c -4.84  -3.28    +22.7149
iter: 409 22:50:57 -2789.561317c -4.77  -3.50    +22.7343
iter: 410 22:52:09 -2789.564510c -5.41  -3.84    +22.7460
iter: 411 22:53:21 -2789.604250c -4.09  -3.85    +22.8059
iter: 412 22:54:33 -2789.590404c -4.92  -3.38    +22.7905
iter: 413 22:55:45 -2789.601679c -4.82  -3.58    +22.7707
iter: 414 22:56:57 -2789.600627c -5.01  -3.39    +22.8000
iter: 415 22:58:10 -2789.641783c -4.47  -3.40    +22.7965
iter: 416 22:59:22 -2789.565231c -3.77  -3.15    +22.7802
iter: 417 23:00:34 -2789.562986c -3.66  -3.84    +22.7934
iter: 418 23:01:46 -2789.540129c -4.25  -3.13    +22.8011
iter: 419 23:02:58 -2789.547034c -4.92  -3.23    +22.7924
iter: 420 23:04:10 -2789.554443c -4.95  -3.31    +22.8242
iter: 421 23:05:22 -2789.560012c -4.67  -3.40    +22.8182
iter: 422 23:06:34 -2789.547856c -4.29  -3.72    +22.8204
iter: 423 23:07:47 -2789.523984c -3.39  -3.25    +22.8200
iter: 424 23:08:59 -2789.573413c -3.16  -2.92    +22.8263
iter: 425 23:10:11 -2789.534783c -3.53  -4.02c   +22.8095
iter: 426 23:11:23 -2789.558969c -3.12  -3.05    +22.7931
iter: 427 23:12:35 -2789.531672c -3.72  -2.74    +22.8002
iter: 428 23:13:47 -2789.526033c -5.01  -3.00    +22.7882
iter: 429 23:14:59 -2789.555548c -4.72  -2.93    +22.7691
iter: 430 23:16:11 -2789.526267c -5.12  -2.86    +22.7632
iter: 431 23:17:24 -2789.609185c -5.33  -2.90    +22.7643
iter: 432 23:18:36 -2789.615780c -5.46  -2.82    +22.7824
iter: 433 23:19:48 -2789.347906c -3.83  -2.82    +22.7591
iter: 434 23:21:00 -2789.321170c -3.97  -3.25    +22.7813
iter: 435 23:22:12 -2789.366632c -4.00  -3.32    +22.6382
iter: 436 23:23:24 -2789.524521c -3.02  -3.50    +22.4577
iter: 437 23:24:36 -2789.665670  -3.27  -3.01    +22.6133
iter: 438 23:25:48 -2789.834873  -2.93  -2.92    +22.9000
iter: 439 23:27:01 -2790.022700  -3.44  -2.79    +22.9277
iter: 440 23:28:13 -2789.966866c -4.48  -2.70    +22.8857
iter: 441 23:29:25 -2789.785207c -3.49  -2.73    +22.9347
iter: 442 23:30:37 -2789.860459c -3.61  -2.76    +22.9771
iter: 443 23:31:49 -2790.026384c -2.80  -2.68    +22.8935
iter: 444 23:33:01 -2789.462993  -3.51  -2.48    +22.6765
iter: 445 23:34:13 -2789.477527  -3.72  -3.01    +22.8202
iter: 446 23:35:26 -2789.545295c -3.70  -3.23    +22.7212
iter: 447 23:36:38 -2789.570823c -3.63  -3.27    +22.6516
iter: 448 23:37:50 -2789.596137c -3.70  -3.35    +22.6614
iter: 449 23:39:02 -2789.592175c -4.34  -3.28    +22.6692
iter: 450 23:40:14 -2789.582498c -4.97  -3.30    +22.6961
iter: 451 23:41:26 -2789.590489c -4.74  -3.40    +22.7366
iter: 452 23:42:38 -2789.588773c -4.43  -3.27    +22.7342
iter: 453 23:43:50 -2789.590147c -5.42  -3.25    +22.7430
iter: 454 23:45:02 -2789.574418c -4.98  -3.26    +22.7597
iter: 455 23:46:15 -2789.583204c -5.28  -3.54    +22.7410
iter: 456 23:47:27 -2789.595656c -4.71  -3.38    +22.7464
iter: 457 23:48:39 -2789.592470c -5.22  -3.34    +22.7455
iter: 458 23:49:51 -2789.592783c -5.22  -3.35    +22.7621
iter: 459 23:51:04 -2789.577268c -4.80  -3.28    +22.7712
iter: 460 23:52:16 -2789.590672c -5.16  -3.52    +22.7681
iter: 461 23:53:28 -2789.579334c -5.61  -3.31    +22.7690
iter: 462 23:54:40 -2789.577624c -6.08  -3.55    +22.7654
iter: 463 23:55:52 -2789.573323c -5.52  -3.63    +22.7590
iter: 464 23:57:04 -2789.582233c -5.07  -3.84    +22.7714
iter: 465 23:58:16 -2789.571593c -4.87  -3.45    +22.7248
iter: 466 23:59:29 -2789.566736c -4.80  -3.79    +22.7088
iter: 467 00:00:41 -2789.577246c -4.70  -3.71    +22.7051
iter: 468 00:01:53 -2789.602494c -3.85  -4.12c   +22.7148
iter: 469 00:03:05 -2789.618876c -3.98  -3.39    +22.7426
iter: 470 00:04:18 -2789.588444c -3.96  -3.21    +22.6990
iter: 471 00:05:30 -2789.681229c -3.23  -3.62    +22.8140
iter: 472 00:06:42 -2789.567275c -2.98  -2.92    +22.6370
iter: 473 00:07:54 -2789.555016c -3.27  -3.61    +22.5860
iter: 474 00:09:06 -2789.571718c -3.89  -3.16    +22.6490
iter: 475 00:10:18 -2789.589054c -3.76  -3.80    +22.7005
iter: 476 00:11:30 -2789.600985c -4.02  -3.66    +22.7325
iter: 477 00:12:42 -2789.569443c -3.20  -3.37    +22.5943
iter: 478 00:13:55 -2789.578701c -3.93  -3.19    +22.6729
iter: 479 00:15:07 -2789.578197c -5.15  -4.21c   +22.6755
iter: 480 00:16:19 -2789.580661c -5.00  -4.14c   +22.6874
iter: 481 00:17:31 -2789.575955c -4.96  -4.36c   +22.6681
iter: 482 00:18:43 -2789.569222c -4.56  -3.91    +22.6437
iter: 483 00:19:55 -2789.589161c -3.95  -3.61    +22.7267
iter: 484 00:21:07 -2789.561335c -2.99  -3.60    +22.4807
iter: 485 00:22:19 -2789.568365c -3.77  -2.96    +22.5907
iter: 486 00:23:31 -2789.576623c -3.83  -3.38    +22.6599
iter: 487 00:24:44 -2789.572844c -5.36  -4.15c   +22.6359
iter: 488 00:25:56 -2789.573839c -5.81  -3.74    +22.6407
iter: 489 00:27:08 -2789.575735c -5.35  -3.75    +22.6529
iter: 490 00:28:20 -2789.572479c -5.77  -3.96    +22.6460
iter: 491 00:29:32 -2789.580993c -4.54  -3.93    +22.6943
iter: 492 00:30:44 -2789.566723c -3.92  -4.04c   +22.5760
iter: 493 00:31:56 -2789.564986c -4.26  -3.40    +22.5447
iter: 494 00:33:08 -2789.569055c -5.07  -3.27    +22.5794
iter: 495 00:34:21 -2789.583631c -3.73  -3.40    +22.7085
iter: 496 00:35:33 -2789.566231c -3.64  -3.91    +22.5411
iter: 497 00:36:45 -2789.566509c -3.89  -3.21    +22.4891
iter: 498 00:37:57 -2789.565623c -4.20  -3.06    +22.5721
iter: 499 00:39:09 -2789.567765c -5.23  -3.33    +22.5395
iter: 500 00:40:21 -2789.568296c -4.75  -3.19    +22.5279
iter: 501 00:41:33 -2789.577412c -3.60  -3.11    +22.4599
iter: 502 00:42:45 -2789.604790c -3.59  -2.88    +22.3795
iter: 503 00:43:58 -2789.579427c -4.70  -2.76    +22.4114
iter: 504 00:45:10 -2789.565501c -4.51  -2.83    +22.3745
iter: 505 00:46:22 -2789.600053c -4.31  -2.79    +22.4442
iter: 506 00:47:34 -2789.545026c -4.53  -2.84    +22.4272
iter: 507 00:48:46 -2789.462828c -4.49  -2.87    +22.4558
iter: 508 00:49:58 -2789.504437c -4.58  -3.00    +22.3671
iter: 509 00:51:11 -2789.462732c -4.24  -2.96    +22.3751
iter: 510 00:52:23 -2789.384859c -3.99  -3.08    +22.3509
iter: 511 00:53:35 -2789.399443c -4.49  -3.09    +22.4941
iter: 512 00:54:47 -2789.500620c -3.49  -3.36    +22.7454
iter: 513 00:55:59 -2789.665885c -3.11  -3.29    +22.8310
iter: 514 00:57:11 -2789.771031c -3.29  -2.95    +22.7226
iter: 515 00:58:23 -2790.022781  -2.88  -2.83    +22.7037
iter: 516 00:59:36 -2790.225867  -3.23  -2.61    +22.8130
iter: 517 01:00:48 -2789.908985  -3.50  -2.53    +22.6927
iter: 518 01:02:00 -2789.818776  -3.26  -2.70    +22.7329
iter: 519 01:03:12 -2789.681326c -3.90  -2.71    +22.7288
iter: 520 01:04:25 -2789.684138c -3.91  -2.78    +22.7712
iter: 521 01:05:37 -2789.551398c -3.85  -2.76    +22.7599
iter: 522 01:06:49 -2792.370012  -2.67  -2.81    +22.8243
iter: 523 01:08:01 -2789.373034  -3.13  -2.14    +22.8749
iter: 524 01:09:13 -2789.455485  -3.42  -2.99    +23.0345
iter: 525 01:10:25 -2789.487542c -3.89  -2.94    +22.8836
iter: 526 01:11:37 -2789.480969c -3.24  -2.96    +22.7766
iter: 527 01:12:49 -2789.404974c -3.97  -3.09    +22.8229
iter: 528 01:14:01 -2789.496315c -3.80  -3.33    +22.7618
iter: 529 01:15:14 -2789.618981c -3.42  -3.35    +22.7059
iter: 530 01:16:26 -2789.585006c -4.00  -3.15    +22.7254
iter: 531 01:17:38 -2789.574061c -4.15  -2.96    +22.7107
iter: 532 01:18:50 -2789.584504c -3.96  -3.21    +22.6966
iter: 533 01:20:02 -2789.609813c -4.38  -3.32    +22.7030
iter: 534 01:21:14 -2789.607413c -4.76  -3.10    +22.7010
iter: 535 01:22:26 -2789.583707c -4.15  -3.15    +22.6654
iter: 536 01:23:39 -2789.592709c -4.19  -3.35    +22.6969
iter: 537 01:24:51 -2789.588764c -4.43  -3.23    +22.7088
iter: 538 01:26:03 -2789.596162c -4.26  -3.43    +22.7267
iter: 539 01:27:15 -2789.605440c -4.57  -3.47    +22.8061
iter: 540 01:28:27 -2789.584753c -4.43  -3.30    +22.8260
iter: 541 01:29:39 -2789.584240c -5.06  -3.54    +22.7832
iter: 542 01:30:51 -2789.586774c -5.03  -3.55    +22.7043
iter: 543 01:32:04 -2789.589785c -5.53  -3.67    +22.7400
iter: 544 01:33:16 -2789.589250c -5.27  -3.62    +22.7634
iter: 545 01:34:28 -2789.593714c -5.27  -3.74    +22.7686
iter: 546 01:35:40 -2789.589574c -5.66  -3.44    +22.7769
iter: 547 01:36:52 -2789.590086c -5.79  -3.53    +22.7775
iter: 548 01:38:04 -2789.586085c -4.86  -3.49    +22.7790
iter: 549 01:39:16 -2789.587688c -5.20  -3.65    +22.7730
iter: 550 01:40:29 -2789.586466c -6.06  -3.56    +22.7714
iter: 551 01:41:41 -2789.582519c -5.89  -3.62    +22.7654
iter: 552 01:42:53 -2789.581943c -6.46  -4.12c   +22.7666
iter: 553 01:44:05 -2789.582616c -6.31  -4.36c   +22.7699
iter: 554 01:45:17 -2789.585010c -5.23  -4.42c   +22.7509
iter: 555 01:46:30 -2789.589234c -5.07  -4.11c   +22.7404
iter: 556 01:47:42 -2789.581155c -4.59  -3.70    +22.7540
iter: 557 01:48:54 -2789.574440c -3.97  -4.16c   +22.7265
iter: 558 01:50:06 -2789.576178c -5.43  -3.39    +22.6990
iter: 559 01:51:18 -2789.581828c -4.25  -3.53    +22.6698
iter: 560 01:52:31 -2789.580581c -5.42  -4.12c   +22.6853
iter: 561 01:53:43 -2789.580546c -5.14  -3.77    +22.7080
iter: 562 01:54:55 -2789.581506c -5.73  -3.55    +22.7019
iter: 563 01:56:07 -2789.581965c -5.45  -3.64    +22.7095
iter: 564 01:57:19 -2789.581886c -6.56  -3.77    +22.7103
iter: 565 01:58:31 -2789.582361c -6.30  -3.74    +22.7141
iter: 566 01:59:44 -2789.583624c -5.31  -3.76    +22.7261
iter: 567 02:00:56 -2789.583299c -5.49  -3.88    +22.7254
iter: 568 02:02:08 -2789.583671c -6.10  -3.96    +22.7249
iter: 569 02:03:21 -2789.586439c -5.30  -3.87    +22.7235
iter: 570 02:04:33 -2789.582885c -5.62  -3.56    +22.7268
iter: 571 02:05:45 -2789.582706c -5.33  -3.98    +22.7629
iter: 572 02:06:57 -2789.584785c -5.10  -4.21c   +22.7670
iter: 573 02:08:09 -2789.593341c -4.58  -3.87    +22.7639
iter: 574 02:09:21 -2789.575447c -3.82  -3.46    +22.7469
iter: 575 02:10:34 -2789.577207c -3.60  -3.64    +22.6716
iter: 576 02:11:46 -2789.577373c -4.24  -3.14    +22.6216
iter: 577 02:12:58 -2789.563628c -4.46  -3.11    +22.5354
iter: 578 02:14:10 -2789.561908c -5.25  -3.13    +22.5897
iter: 579 02:15:22 -2789.561352c -5.29  -3.20    +22.5340
iter: 580 02:16:35 -2789.568442c -4.76  -3.15    +22.5128
iter: 581 02:17:47 -2789.524308c -4.50  -3.11    +22.5349
iter: 582 02:18:59 -2789.528749c -5.15  -3.54    +22.5205
iter: 583 02:20:11 -2789.540093c -4.29  -3.49    +22.5172
iter: 584 02:21:23 -2789.551690c -4.00  -3.78    +22.4959
iter: 585 02:22:36 -2789.561888c -4.13  -3.29    +22.5224
iter: 586 02:23:48 -2789.605317c -3.47  -3.81    +22.6491
iter: 587 02:25:00 -2789.583841c -4.51  -3.29    +22.5994
iter: 588 02:26:12 -2789.595248c -4.75  -3.65    +22.6253
iter: 589 02:27:24 -2789.598470c -5.08  -3.45    +22.6357
iter: 590 02:28:37 -2789.628326c -4.07  -3.40    +22.6950
iter: 591 02:29:49 -2789.557418c -3.28  -3.14    +22.5333
iter: 592 02:31:01 -2789.545528c -3.64  -3.50    +22.4902
iter: 593 02:32:13 -2789.549633c -4.90  -3.22    +22.5169
iter: 594 02:33:25 -2789.543696c -4.30  -3.42    +22.4758
iter: 595 02:34:37 -2789.534798c -3.44  -3.17    +22.3650
iter: 596 02:35:50 -2789.607189c -2.80  -2.88    +22.6948
iter: 597 02:37:02 -2789.276509  -1.81  -3.33    +21.6174
iter: 598 02:38:14 -2789.766090  -1.73  -2.43    +23.0905
iter: 599 02:39:26 -2790.178032  -1.83  -2.74    +23.9192
iter: 600 02:40:38 -2789.837207  -2.59  -2.34    +23.0091
iter: 601 02:41:50 -2789.887211  -4.22  -2.67    +22.9366
iter: 602 02:43:03 -2790.056509c -4.11  -2.62    +22.8987
iter: 603 02:44:15 -2789.478963  -3.46  -2.54    +22.9583
iter: 604 02:45:27 -2789.670036  -3.73  -2.82    +22.8755
iter: 605 02:46:39 -2789.811764  -3.96  -2.66    +22.8662
iter: 606 02:47:51 -2789.363966  -3.92  -2.59    +22.8690
iter: 607 02:49:04 -2789.143540  -3.54  -2.78    +22.8361
iter: 608 02:50:16 -2789.131810c -4.08  -2.81    +22.8300
iter: 609 02:51:28 -2789.349494c -3.20  -3.03    +22.6987
iter: 610 02:52:40 -2789.554624  -2.93  -3.20    +22.6026
iter: 611 02:53:52 -2789.565606c -3.15  -3.17    +22.6291
iter: 612 02:55:05 -2789.563529c -3.50  -3.39    +22.6591
iter: 613 02:56:17 -2789.564171c -4.28  -3.47    +22.6514
iter: 614 02:57:29 -2789.578888c -4.17  -3.81    +22.7282
iter: 615 02:58:41 -2789.586398c -4.11  -3.72    +22.7515
iter: 616 02:59:53 -2789.587179c -4.29  -3.76    +22.7709
iter: 617 03:01:06 -2789.582504c -4.40  -3.66    +22.7709
iter: 618 03:02:18 -2789.583059c -5.35  -3.70    +22.7783
iter: 619 03:03:30 -2789.581629c -5.41  -3.75    +22.7811
iter: 620 03:04:42 -2789.581561c -5.25  -3.97    +22.7811
iter: 621 03:05:54 -2789.582584c -5.81  -4.02c   +22.7798
iter: 622 03:07:07 -2789.585608c -5.34  -4.26c   +22.7849
iter: 623 03:08:19 -2789.587204c -5.16  -4.07c   +22.7820
iter: 624 03:09:31 -2789.588201c -5.08  -4.00    +22.7744
iter: 625 03:10:43 -2789.588758c -5.82  -3.89    +22.7700
iter: 626 03:11:55 -2789.589193c -5.98  -3.86    +22.7669
iter: 627 03:13:08 -2789.592043c -5.68  -3.78    +22.7689
iter: 628 03:14:20 -2789.589598c -6.07  -3.75    +22.7544
iter: 629 03:15:32 -2789.583160c -4.80  -3.78    +22.7328
iter: 630 03:16:44 -2789.585060c -5.68  -4.05c   +22.7489
iter: 631 03:17:56 -2789.586003c -5.78  -3.95    +22.7504
iter: 632 03:19:09 -2789.585240c -5.30  -3.81    +22.7475
iter: 633 03:20:21 -2789.586527c -5.75  -3.91    +22.7557
iter: 634 03:21:33 -2789.587046c -6.07  -3.81    +22.7581
iter: 635 03:22:45 -2789.584390c -5.08  -3.77    +22.7449
iter: 636 03:23:57 -2789.586277c -4.90  -4.06c   +22.7629
iter: 637 03:25:09 -2789.585403c -5.59  -3.81    +22.7626
iter: 638 03:26:22 -2789.585002c -6.20  -4.04c   +22.7653
iter: 639 03:27:34 -2789.584862c -6.23  -4.07c   +22.7675
iter: 640 03:28:46 -2789.590693c -5.26  -4.10c   +22.7698
iter: 641 03:29:58 -2789.584508c -5.83  -3.58    +22.7696
iter: 642 03:31:10 -2789.584279c -6.47  -4.47c   +22.7666
iter: 643 03:32:23 -2789.585275c -6.31  -4.48c   +22.7708
iter: 644 03:33:35 -2789.584328c -6.73  -4.54c   +22.7664
iter: 645 03:34:47 -2789.583005c -5.78  -4.75c   +22.7656
iter: 646 03:35:59 -2789.586176c -5.25  -4.36c   +22.7695
iter: 647 03:37:12 -2789.588469c -5.21  -4.38c   +22.7621
iter: 648 03:38:24 -2789.587486c -6.44  -4.00c   +22.7655
iter: 649 03:39:36 -2789.592788c -4.77  -4.08c   +22.7488
iter: 650 03:40:48 -2789.587943c -5.12  -3.69    +22.7677
iter: 651 03:42:00 -2789.588843c -6.09  -3.97    +22.7692
iter: 652 03:43:13 -2789.588360c -6.48  -3.84    +22.7644
iter: 653 03:44:25 -2789.588739c -5.43  -3.97    +22.7526
iter: 654 03:45:37 -2789.589369c -5.48  -3.99    +22.7656
iter: 655 03:46:49 -2789.587395c -5.79  -3.84    +22.7610
iter: 656 03:48:01 -2789.586477c -6.15  -4.11c   +22.7627
iter: 657 03:49:14 -2789.586405c -6.76  -4.20c   +22.7596
iter: 658 03:50:26 -2789.585598c -6.02  -4.24c   +22.7577
iter: 659 03:51:39 -2789.585778c -6.46  -4.45c   +22.7574
iter: 660 03:52:51 -2789.585354c -6.45  -4.29c   +22.7593
iter: 661 03:54:03 -2789.585260c -6.08  -4.79c   +22.7591
iter: 662 03:55:15 -2789.585582c -6.39  -4.64c   +22.7632
iter: 663 03:56:27 -2789.585504c -7.10  -4.84c   +22.7634
iter: 664 03:57:39 -2789.585306c -7.21  -4.85c   +22.7641
iter: 665 03:58:52 -2789.585265c -7.44c -4.89c   +22.7639

Converged after 665 iterations.

Dipole moment: (-2.123618, -8.487391, -0.257566) |e|*Ang

Total magnetic moment: (0.000000, 0.000000, 22.763942)
Local magnetic moments:
   0 Ni ( 0.000000,  0.000000,  0.730576)
   1 Ni ( 0.000000,  0.000000,  0.741923)
   2 Ni ( 0.000000,  0.000000,  0.681386)
   3 Ni ( 0.000000,  0.000000,  0.359119)
   4 Ni ( 0.000000,  0.000000,  0.719981)
   5 Ni ( 0.000000,  0.000000,  0.723580)
   6 Ni ( 0.000000,  0.000000,  0.718069)
   7 Ni ( 0.000000,  0.000000,  0.704933)
   8 Ni ( 0.000000,  0.000000,  0.719737)
   9 Ni ( 0.000000,  0.000000,  0.727026)
  10 Ni ( 0.000000,  0.000000,  0.711127)
  11 Ni ( 0.000000,  0.000000,  0.712626)
  12 Ni ( 0.000000,  0.000000,  0.732833)
  13 Ni ( 0.000000,  0.000000,  0.721105)
  14 Ni ( 0.000000,  0.000000,  0.674927)
  15 Ni ( 0.000000,  0.000000,  0.327925)
  16 Ni ( 0.000000,  0.000000,  0.731940)
  17 Ni ( 0.000000,  0.000000,  0.724952)
  18 Ni ( 0.000000,  0.000000,  0.673658)
  19 Ni ( 0.000000,  0.000000,  0.260849)
  20 Ni ( 0.000000,  0.000000,  0.739400)
  21 Ni ( 0.000000,  0.000000,  0.738688)
  22 Ni ( 0.000000,  0.000000,  0.657520)
  23 Ni ( 0.000000,  0.000000,  0.723065)
  24 Ni ( 0.000000,  0.000000,  0.743161)
  25 Ni ( 0.000000,  0.000000,  0.720831)
  26 Ni ( 0.000000,  0.000000,  0.713583)
  27 Ni ( 0.000000,  0.000000,  0.704543)
  28 Ni ( 0.000000,  0.000000,  0.718573)
  29 Ni ( 0.000000,  0.000000,  0.734607)
  30 Ni ( 0.000000,  0.000000,  0.719115)
  31 Ni ( 0.000000,  0.000000,  0.706455)
  32 Ni ( 0.000000,  0.000000,  0.742563)
  33 Ni ( 0.000000,  0.000000,  0.725785)
  34 Ni ( 0.000000,  0.000000,  0.661890)
  35 Ni ( 0.000000,  0.000000,  0.723319)
  36 H  ( 0.000000,  0.000000,  0.000198)
  37 O  ( 0.000000,  0.000000, -0.009626)
  38 C  ( 0.000000,  0.000000, -0.010960)
  39 C  ( 0.000000,  0.000000, -0.003002)
  40 O  ( 0.000000,  0.000000, -0.030942)

Energy contributions relative to reference atoms: (reference = -1495397.395098)

Kinetic:       +965.426416
Potential:     -845.424950
External:        +0.000000
XC:            -2913.440678
Entropy (-ST):   -2.052862
Local:           +4.880379
--------------------------
Free energy:   -2790.611696
Extrapolated:  -2789.585265

Spin contamination: 2.119284 electrons
Showing only first 2 kpts
                      Up                     Down
 Kpt  Band  Eigenvalues  Occupancy  Eigenvalues  Occupancy
  0   296     -6.22837    0.99899     -5.38047    0.17004
  0   297     -6.22453    0.99895     -5.36520    0.14956
  0   298     -6.21833    0.99888     -5.35187    0.13338
  0   299     -6.21450    0.99884     -5.33052    0.11058

  1   296     -6.30595    0.99953     -5.46973    0.33342
  1   297     -6.30005    0.99950     -5.45919    0.31042
  1   298     -6.28162    0.99940     -5.44456    0.28000
  1   299     -6.25097    0.99919     -5.43993    0.27076


Fermi level: -5.53900

No gap

Forces in eV/Ang:
  0 Ni   -0.00309    0.00111    0.09544
  1 Ni   -0.00001    0.00197   -0.05257
  2 Ni   -0.02405    0.02748   -0.20276
  3 Ni    0.22984   -0.15232    0.57363
  4 Ni    0.00048    0.00307    0.08940
  5 Ni    0.01669    0.01866   -0.08539
  6 Ni    0.01247   -0.00572    0.04330
  7 Ni   -0.14661    0.05511   -0.00538
  8 Ni   -0.00211    0.00049    0.09340
  9 Ni    0.01965    0.00949   -0.08466
 10 Ni   -0.00120   -0.00291   -0.23267
 11 Ni   -0.00928   -0.22254   -0.09831
 12 Ni    0.00065    0.00275    0.09381
 13 Ni    0.01522   -0.02613   -0.09573
 14 Ni    0.02611    0.03761   -0.19400
 15 Ni   -0.10859   -0.16594    0.44381
 16 Ni   -0.00089   -0.00082    0.09123
 17 Ni   -0.01844    0.02343   -0.08755
 18 Ni    0.00645    0.04483   -0.07584
 19 Ni   -0.06755    0.59939    0.39898
 20 Ni   -0.01234   -0.00490    0.10985
 21 Ni    0.00532   -0.00096   -0.27413
 22 Ni    0.04023   -0.01846    0.01442
 23 Ni    0.08856    0.01453   -0.06803
 24 Ni   -0.00229    0.00982    0.11207
 25 Ni   -0.01829   -0.02398   -0.09718
 26 Ni   -0.00078   -0.00984    0.06687
 27 Ni    0.00349   -0.02180   -0.08437
 28 Ni   -0.00582    0.00193    0.09055
 29 Ni    0.00025   -0.00525   -0.11379
 30 Ni   -0.01365   -0.00855    0.04990
 31 Ni    0.16296    0.06673   -0.03097
 32 Ni    0.01078   -0.00521    0.11118
 33 Ni   -0.02379    0.00546   -0.08854
 34 Ni   -0.04023   -0.02495    0.00905
 35 Ni   -0.07117    0.01866   -0.06643
 36 H     0.10462    3.12183    6.16218
 37 O    -0.08960   -3.70970   -5.26954
 38 C    -0.32660    2.14357   -0.60718
 39 C     0.60879    1.43608    5.84422
 40 O    -0.38973   -3.28022   -6.50744

      Step     Time          Energy         fmax
BFGS:    0 03:59:38    -2789.585265        7.2978
System changes: positions 

Initializing position-dependent things.

Density initialized from wave functions
                                           
                                           
                                           
                                           
                                           
                                           
                                           
                   O                       
                 H                         
           Ni    OC    Ni                  
                 C Ni                      
            Ni    Ni    NNi                
             NNi    Ni    NNi              
                                           
              NNi    Ni    NNi             
                Ni    Ni     Ni            
                                           
           Ni    NNi   NNi    Ni           
            Ni     Ni    Ni                
                                           
              Ni    Ni     Ni              
                                           
                                           
                                           
                                           

Positions:
   0 Ni    -0.000000    0.000000   10.000000    ( 0.0000,  0.0000,  0.6703)
   1 Ni     1.261746    0.728469   12.060422    ( 0.0000,  0.0000,  0.6693)
   2 Ni    -0.000344    1.457272   14.112203    ( 0.0000,  0.0000,  0.6697)
   3 Ni     0.003283   -0.002176   16.167303    ( 0.0000,  0.0000,  0.6722)
   4 Ni    -1.261746    2.185408   10.000000    ( 0.0000,  0.0000,  0.6703)
   5 Ni    -0.000000    2.913877   12.060422    ( 0.0000,  0.0000,  0.6693)
   6 Ni    -1.261574    3.642261   14.115666    ( 0.0000,  0.0000,  0.6697)
   7 Ni    -1.263817    2.186154   16.159083    ( 0.0000,  0.0000,  0.6722)
   8 Ni    -2.523491    4.370815   10.000000    ( 0.0000,  0.0000,  0.6703)
   9 Ni    -1.261746    5.099284   12.060422    ( 0.0000,  0.0000,  0.6693)
  10 Ni    -2.523560    5.827741   14.111776    ( 0.0000,  0.0000,  0.6697)
  11 Ni    -2.523648    4.367677   16.157756    ( 0.0000,  0.0000,  0.6722)
  12 Ni     2.523491    0.000000   10.000000    ( 0.0000,  0.0000,  0.6703)
  13 Ni     3.785237    0.728469   12.060422    ( 0.0000,  0.0000,  0.6693)
  14 Ni     2.523821    1.457451   14.112296    ( 0.0000,  0.0000,  0.6697)
  15 Ni     2.521893   -0.002370   16.165500    ( 0.0000,  0.0000,  0.6722)
  16 Ni     1.261746    2.185408   10.000000    ( 0.0000,  0.0000,  0.6703)
  17 Ni     2.523491    2.913877   12.060422    ( 0.0000,  0.0000,  0.6693)
  18 Ni     1.261844    3.642983   14.113963    ( 0.0000,  0.0000,  0.6697)
  19 Ni     1.260757    2.193929   16.164860    ( 0.0000,  0.0000,  0.6722)
  20 Ni    -0.000000    4.370815   10.000000    ( 0.0000,  0.0000,  0.6703)
  21 Ni     1.261746    5.099284   12.060422    ( 0.0000,  0.0000,  0.6693)
  22 Ni     0.000575    5.827497   14.115253    ( 0.0000,  0.0000,  0.6697)
  23 Ni     0.001265    4.371023   16.158202    ( 0.0000,  0.0000,  0.6722)
  24 Ni     5.046982    0.000000   10.000000    ( 0.0000,  0.0000,  0.6703)
  25 Ni     6.308728    0.728469   12.060422    ( 0.0000,  0.0000,  0.6693)
  26 Ni     5.047014    1.456773   14.116023    ( 0.0000,  0.0000,  0.6697)
  27 Ni     5.047080   -0.000311   16.157955    ( 0.0000,  0.0000,  0.6722)
  28 Ni     3.785237    2.185408   10.000000    ( 0.0000,  0.0000,  0.6703)
  29 Ni     5.046982    2.913877   12.060422    ( 0.0000,  0.0000,  0.6693)
  30 Ni     3.785042    3.642273   14.115780    ( 0.0000,  0.0000,  0.6697)
  31 Ni     3.787565    2.186361   16.158671    ( 0.0000,  0.0000,  0.6722)
  32 Ni     2.523491    4.370815   10.000000    ( 0.0000,  0.0000,  0.6703)
  33 Ni     3.785237    5.099284   12.060422    ( 0.0000,  0.0000,  0.6693)
  34 Ni     2.522968    5.827427   14.115229    ( 0.0000,  0.0000,  0.6697)
  35 Ni     2.522498    4.371122   16.158211    ( 0.0000,  0.0000,  0.6722)
  36 H      1.327884   -0.332616   19.584436    ( 0.0000,  0.0000,  0.0000)
  37 O      1.302593   -0.795846   18.629053    ( 0.0000,  0.0000,  0.0000)
  38 C      1.302960    0.154228   17.696565    ( 0.0000,  0.0000,  0.0000)
  39 C      1.243008    1.640089   18.030835    ( 0.0000,  0.0000,  0.0000)
  40 O      1.281297    2.201261   19.137763    ( 0.0000,  0.0000,  0.0000)

Unit cell:
           periodic     x           y           z      points  spacing
  1. axis:    yes    7.570474    0.000000    0.000000    36     0.1821
  2. axis:    yes   -3.785237    6.556223    0.000000    36     0.1821
  3. axis:    no     0.000000    0.000000   26.181266   144     0.1818

  Lengths:   7.570474   7.570474  26.181266
  Angles:   90.000000  90.000000 120.000000

Effective grid spacing dv^(1/3) = 0.1910

     iter     time        total  log10-change:  magmom
                         energy  eigst   dens
iter:   1 04:03:02 -2793.629042  -0.97           +22.7667
iter:   2 04:04:16 -2792.809020  -1.78  -2.32    +22.3061
iter:   3 04:05:30 -2859.275610  -1.29  -2.24    +22.2525
iter:   4 04:06:44 -2806.400098  -2.17  -1.46    +21.2734
iter:   5 04:07:58 -2791.635489  -1.61  -1.82    +22.5339
iter:   6 04:09:11 -2799.097176  -1.75  -2.30    +21.1907
iter:   7 04:10:25 -2790.327138  -2.40  -1.96    +21.0180
iter:   8 04:11:39 -2790.849281  -2.37  -2.55    +22.2052
iter:   9 04:12:53 -2790.799239  -2.63  -2.38    +21.0540
iter:  10 04:14:07 -2791.242612  -2.90  -2.52    +21.5535
iter:  11 04:15:21 -2790.550302  -2.98  -2.41    +21.9928
iter:  12 04:16:35 -2790.598668  -3.03  -2.81    +22.0517
iter:  13 04:17:49 -2790.662911c -3.18  -2.76    +21.5806
iter:  14 04:19:03 -2790.716364c -3.46  -3.04    +21.9452
iter:  15 04:20:17 -2790.694327c -3.86  -3.02    +22.1121
iter:  16 04:21:31 -2790.702993c -3.99  -3.17    +22.2218
iter:  17 04:22:45 -2790.763715c -3.97  -3.37    +22.4015
iter:  18 04:23:59 -2790.715953c -4.68  -2.99    +22.3447
iter:  19 04:25:12 -2790.725060c -4.43  -3.31    +22.3903
iter:  20 04:26:26 -2790.744318c -4.23  -3.29    +22.4153
iter:  21 04:27:40 -2790.746933c -3.86  -3.25    +22.5302
iter:  22 04:28:54 -2790.764954c -4.16  -3.25    +22.6184
iter:  23 04:30:08 -2790.750448c -4.76  -3.14    +22.6070
iter:  24 04:31:22 -2790.771076c -4.58  -3.20    +22.6435
iter:  25 04:32:36 -2790.759781c -4.87  -3.08    +22.6484
iter:  26 04:33:50 -2790.764824c -4.60  -3.11    +22.6974
iter:  27 04:35:04 -2790.726150c -4.72  -3.07    +22.6868
iter:  28 04:36:18 -2790.778574c -4.81  -3.22    +22.7269
iter:  29 04:37:32 -2790.736453c -4.92  -3.01    +22.7322
iter:  30 04:38:46 -2790.741406c -5.17  -3.14    +22.7312
iter:  31 04:40:00 -2790.698452c -4.14  -3.10    +22.7328
iter:  32 04:41:13 -2790.696293c -4.81  -3.29    +22.7324
iter:  33 04:42:27 -2790.711797c -4.76  -3.32    +22.7530
iter:  34 04:43:41 -2790.720310c -4.70  -3.35    +22.7142
iter:  35 04:44:55 -2790.742284c -4.10  -3.42    +22.6800
iter:  36 04:46:09 -2790.739610c -4.57  -3.28    +22.6867
iter:  37 04:47:23 -2790.742096c -5.31  -3.37    +22.6898
iter:  38 04:48:37 -2790.729892c -5.10  -3.34    +22.7162
iter:  39 04:49:51 -2790.723673c -4.62  -3.46    +22.7298
iter:  40 04:51:05 -2790.723255c -5.49  -3.68    +22.7369
iter:  41 04:52:19 -2790.743941c -4.67  -3.79    +22.7570
iter:  42 04:53:32 -2790.730707c -5.55  -3.30    +22.7215
iter:  43 04:54:46 -2790.727598c -5.16  -3.57    +22.7148
iter:  44 04:56:00 -2790.727421c -5.81  -3.92    +22.7148
iter:  45 04:57:14 -2790.734015c -5.11  -3.98    +22.7410
iter:  46 04:58:28 -2790.739910c -4.38  -3.73    +22.7560
iter:  47 04:59:42 -2790.741982c -4.54  -3.59    +22.7357
iter:  48 05:00:56 -2790.756692c -4.51  -3.52    +22.7115
iter:  49 05:02:10 -2790.746684c -5.41  -3.30    +22.7244
iter:  50 05:03:23 -2790.753541c -5.64  -3.45    +22.7192
iter:  51 05:04:37 -2790.755717c -5.97  -3.36    +22.7206
iter:  52 05:05:51 -2790.749672c -5.21  -3.34    +22.7089
iter:  53 05:07:05 -2790.748005c -4.99  -3.36    +22.7079
iter:  54 05:08:19 -2790.742251c -5.11  -3.31    +22.7047
iter:  55 05:09:33 -2790.853451c -3.79  -3.44    +22.6847
iter:  56 05:10:47 -2790.728347c -4.24  -2.86    +22.6875
iter:  57 05:12:00 -2790.731483c -4.93  -3.59    +22.6925
iter:  58 05:13:14 -2790.727276c -5.48  -3.53    +22.6782
iter:  59 05:14:28 -2790.725794c -5.66  -3.69    +22.6763
iter:  60 05:15:42 -2790.727964c -5.50  -4.05c   +22.6757
iter:  61 05:16:56 -2790.727383c -5.18  -3.71    +22.6748
iter:  62 05:18:10 -2790.728716c -5.74  -3.97    +22.6646
iter:  63 05:19:23 -2790.727141c -5.20  -4.37c   +22.6788
iter:  64 05:20:37 -2790.722684c -4.14  -3.95    +22.7083
iter:  65 05:21:51 -2790.731296c -3.79  -3.47    +22.6370
iter:  66 05:23:05 -2790.732209c -4.93  -3.85    +22.6466
iter:  67 05:24:19 -2790.736328c -4.32  -4.08c   +22.6735
iter:  68 05:25:33 -2790.731881c -4.33  -3.58    +22.6316
iter:  69 05:26:47 -2790.732290c -5.01  -4.16c   +22.6281
iter:  70 05:28:00 -2790.732990c -5.35  -4.00c   +22.6430
iter:  71 05:29:14 -2790.739089c -4.10  -4.04c   +22.6942
iter:  72 05:30:28 -2790.731912c -4.13  -3.47    +22.6284
iter:  73 05:31:42 -2790.732678c -5.38  -4.06c   +22.6320
iter:  74 05:32:56 -2790.733182c -6.12  -4.03c   +22.6367
iter:  75 05:34:10 -2790.734045c -5.05  -3.95    +22.6569
iter:  76 05:35:24 -2790.736997c -4.34  -3.78    +22.7061
iter:  77 05:36:37 -2790.735672c -5.53  -3.50    +22.6891
iter:  78 05:37:51 -2790.734734c -5.23  -3.62    +22.7057
iter:  79 05:39:05 -2790.735934c -5.38  -3.57    +22.7156
iter:  80 05:40:19 -2790.736333c -5.69  -3.50    +22.7186
iter:  81 05:41:33 -2790.737414c -6.36  -3.48    +22.7160
iter:  82 05:42:47 -2790.734005c -5.21  -3.48    +22.7318
iter:  83 05:44:00 -2790.739524c -5.73  -3.48    +22.7295
iter:  84 05:45:14 -2790.738845c -5.83  -3.39    +22.7347
iter:  85 05:46:28 -2790.740585c -4.80  -3.39    +22.7479
iter:  86 05:47:42 -2790.738299c -5.63  -3.32    +22.7342
iter:  87 05:48:56 -2790.737449c -5.66  -3.38    +22.7326
iter:  88 05:50:10 -2790.729405c -4.69  -3.43    +22.7399
iter:  89 05:51:24 -2790.724171c -5.34  -3.26    +22.7453
iter:  90 05:52:38 -2790.725689c -5.02  -3.48    +22.7537
iter:  91 05:53:51 -2790.741436c -4.38  -3.41    +22.7755
iter:  92 05:55:05 -2790.731133c -4.71  -3.21    +22.7415
iter:  93 05:56:19 -2790.740590c -4.47  -3.31    +22.7899
iter:  94 05:57:33 -2790.742884c -3.96  -3.36    +22.7768
iter:  95 05:58:47 -2790.735551c -4.85  -3.35    +22.7510
iter:  96 06:00:01 -2790.731474c -4.84  -3.68    +22.7417
iter:  97 06:01:15 -2790.731813c -5.73  -3.84    +22.7265
iter:  98 06:02:29 -2790.733154c -5.81  -4.09c   +22.7165
iter:  99 06:03:42 -2790.734026c -5.61  -4.43c   +22.7082
iter: 100 06:04:56 -2790.734307c -6.39  -4.13c   +22.7090
iter: 101 06:06:10 -2790.734574c -6.40  -4.03c   +22.7107
iter: 102 06:07:24 -2790.733771c -5.81  -3.95    +22.7081
iter: 103 06:08:38 -2790.733941c -6.87  -4.10c   +22.7054
iter: 104 06:09:52 -2790.734074c -7.31  -4.05c   +22.7016
iter: 105 06:11:06 -2790.734671c -6.98  -4.02c   +22.7009
iter: 106 06:12:20 -2790.734070c -5.74  -3.99    +22.7009
iter: 107 06:13:33 -2790.733557c -6.19  -3.99    +22.6998
iter: 108 06:14:47 -2790.733566c -6.85  -4.29c   +22.6971
iter: 109 06:16:01 -2790.733392c -6.84  -4.24c   +22.6951
iter: 110 06:17:15 -2790.734022c -6.22  -4.48c   +22.6977
iter: 111 06:18:29 -2790.733822c -6.89  -4.17c   +22.6942
iter: 112 06:19:43 -2790.733760c -7.52c -4.38c   +22.6942

Converged after 112 iterations.

Dipole moment: (-2.117718, -8.851838, 0.012338) |e|*Ang

Total magnetic moment: (0.000000, 0.000000, 22.694225)
Local magnetic moments:
   0 Ni ( 0.000000,  0.000000,  0.742562)
   1 Ni ( 0.000000,  0.000000,  0.746318)
   2 Ni ( 0.000000,  0.000000,  0.677825)
   3 Ni ( 0.000000,  0.000000,  0.341011)
   4 Ni ( 0.000000,  0.000000,  0.732456)
   5 Ni ( 0.000000,  0.000000,  0.728812)
   6 Ni ( 0.000000,  0.000000,  0.709165)
   7 Ni ( 0.000000,  0.000000,  0.690311)
   8 Ni ( 0.000000,  0.000000,  0.732951)
   9 Ni ( 0.000000,  0.000000,  0.731988)
  10 Ni ( 0.000000,  0.000000,  0.700919)
  11 Ni ( 0.000000,  0.000000,  0.695257)
  12 Ni ( 0.000000,  0.000000,  0.744478)
  13 Ni ( 0.000000,  0.000000,  0.725232)
  14 Ni ( 0.000000,  0.000000,  0.672563)
  15 Ni ( 0.000000,  0.000000,  0.314705)
  16 Ni ( 0.000000,  0.000000,  0.744122)
  17 Ni ( 0.000000,  0.000000,  0.730916)
  18 Ni ( 0.000000,  0.000000,  0.670354)
  19 Ni ( 0.000000,  0.000000,  0.273585)
  20 Ni ( 0.000000,  0.000000,  0.750799)
  21 Ni ( 0.000000,  0.000000,  0.740254)
  22 Ni ( 0.000000,  0.000000,  0.647934)
  23 Ni ( 0.000000,  0.000000,  0.696275)
  24 Ni ( 0.000000,  0.000000,  0.748998)
  25 Ni ( 0.000000,  0.000000,  0.725220)
  26 Ni ( 0.000000,  0.000000,  0.705127)
  27 Ni ( 0.000000,  0.000000,  0.683609)
  28 Ni ( 0.000000,  0.000000,  0.732109)
  29 Ni ( 0.000000,  0.000000,  0.739688)
  30 Ni ( 0.000000,  0.000000,  0.710214)
  31 Ni ( 0.000000,  0.000000,  0.691193)
  32 Ni ( 0.000000,  0.000000,  0.754406)
  33 Ni ( 0.000000,  0.000000,  0.731076)
  34 Ni ( 0.000000,  0.000000,  0.652611)
  35 Ni ( 0.000000,  0.000000,  0.697702)
  36 H  ( 0.000000,  0.000000,  0.000421)
  37 O  ( 0.000000,  0.000000, -0.011532)
  38 C  ( 0.000000,  0.000000, -0.012694)
  39 C  ( 0.000000,  0.000000, -0.006907)
  40 O  ( 0.000000,  0.000000, -0.020573)

Energy contributions relative to reference atoms: (reference = -1495397.395098)

Kinetic:       +965.094215
Potential:     -846.295602
External:        +0.000000
XC:            -2913.397431
Entropy (-ST):   -2.045246
Local:           +4.887681
--------------------------
Free energy:   -2791.756383
Extrapolated:  -2790.733760

Spin contamination: 2.124509 electrons
Showing only first 2 kpts
                      Up                     Down
 Kpt  Band  Eigenvalues  Occupancy  Eigenvalues  Occupancy
  0   296     -5.91124    0.99896     -5.06578    0.16998
  0   297     -5.90790    0.99893     -5.05101    0.15014
  0   298     -5.90144    0.99885     -5.03690    0.13301
  0   299     -5.89669    0.99880     -5.01608    0.11079

  1   296     -5.98856    0.99952     -5.15363    0.33020
  1   297     -5.98283    0.99949     -5.14430    0.30991
  1   298     -5.96840    0.99941     -5.13096    0.28213
  1   299     -5.93365    0.99917     -5.12478    0.26977


Fermi level: -5.22436

No gap

Forces in eV/Ang:
  0 Ni   -0.00192    0.00157    0.09245
  1 Ni   -0.00015    0.00243   -0.07028
  2 Ni   -0.01141    0.01192   -0.13585
  3 Ni    0.19742   -0.06369    0.46270
  4 Ni    0.00125    0.00341    0.08555
  5 Ni    0.01446    0.02078   -0.09574
  6 Ni    0.01338   -0.00241    0.02520
  7 Ni   -0.11669    0.03746   -0.02639
  8 Ni   -0.00142    0.00047    0.08799
  9 Ni    0.02422    0.00882   -0.09343
 10 Ni   -0.00035    0.00579   -0.18498
 11 Ni   -0.00626   -0.26170   -0.14250
 12 Ni   -0.00038    0.00239    0.08997
 13 Ni    0.01631   -0.02610   -0.10390
 14 Ni    0.01005    0.02148   -0.13290
 15 Ni   -0.08067   -0.05630    0.34001
 16 Ni   -0.00162   -0.00219    0.08463
 17 Ni   -0.01685    0.02500   -0.09757
 18 Ni    0.00393    0.04105   -0.07442
 19 Ni   -0.05935    0.34002    0.73688
 20 Ni   -0.01361   -0.00564    0.10619
 21 Ni    0.00439   -0.00507   -0.28260
 22 Ni    0.02466   -0.00837    0.01195
 23 Ni    0.08406   -0.00076   -0.08238
 24 Ni   -0.00204    0.00916    0.11274
 25 Ni   -0.01954   -0.02379   -0.10627
 26 Ni    0.00051   -0.01639    0.04106
 27 Ni    0.00768   -0.01396   -0.07162
 28 Ni   -0.00545    0.00214    0.08596
 29 Ni    0.00101   -0.00774   -0.11797
 30 Ni   -0.01319   -0.00427    0.02886
 31 Ni    0.13016    0.04662   -0.04528
 32 Ni    0.01142   -0.00550    0.10765
 33 Ni   -0.02791    0.00582   -0.09684
 34 Ni   -0.02287   -0.01022    0.01199
 35 Ni   -0.06953    0.00707   -0.08135
 36 H    -0.10589   -1.28857   -2.38576
 37 O     0.11667    0.99293    3.67807
 38 C    -0.28664    1.43473   -1.09617
 39 C     0.39351   -0.13978    1.16155
 40 O    -0.19638   -1.11186   -1.86101

BFGS:    1 06:20:29    -2790.733760        3.8115
System changes: positions 

Initializing position-dependent things.

Density initialized from wave functions
                                           
                                           
                                           
                                           
                                           
                                           
                                           
                   O                       
                 HC                        
           Ni    Oi    Ni                  
            Ni   C Ni    Ni                
            Ni    Ni    Ni                 
             NNi    Ni    NNi              
                                           
              NNi    Ni    NNi             
                Ni    Ni     Ni            
                                           
           Ni    NNi   NNi    Ni           
            Ni     Ni    Ni                
                                           
              Ni    Ni     Ni              
                                           
                                           
                                           
                                           

Positions:
   0 Ni    -0.000000    0.000000   10.000000    ( 0.0000,  0.0000,  0.6703)
   1 Ni     1.261746    0.728469   12.060422    ( 0.0000,  0.0000,  0.6693)
   2 Ni    -0.000546    1.457488   14.109971    ( 0.0000,  0.0000,  0.6697)
   3 Ni     0.006390   -0.003343   16.174658    ( 0.0000,  0.0000,  0.6722)
   4 Ni    -1.261746    2.185408   10.000000    ( 0.0000,  0.0000,  0.6703)
   5 Ni    -0.000000    2.913877   12.060422    ( 0.0000,  0.0000,  0.6693)
   6 Ni    -1.261370    3.642217   14.116092    ( 0.0000,  0.0000,  0.6697)
   7 Ni    -1.265675    2.186767   16.158722    ( 0.0000,  0.0000,  0.6722)
   8 Ni    -2.523491    4.370815   10.000000    ( 0.0000,  0.0000,  0.6703)
   9 Ni    -1.261746    5.099284   12.060422    ( 0.0000,  0.0000,  0.6693)
  10 Ni    -2.523567    5.827812   14.108828    ( 0.0000,  0.0000,  0.6697)
  11 Ni    -2.523750    4.363732   16.155656    ( 0.0000,  0.0000,  0.6722)
  12 Ni     2.523491    0.000000   10.000000    ( 0.0000,  0.0000,  0.6703)
  13 Ni     3.785237    0.728469   12.060422    ( 0.0000,  0.0000,  0.6693)
  14 Ni     2.524010    1.457816   14.110122    ( 0.0000,  0.0000,  0.6697)
  15 Ni     2.520592   -0.003468   16.170951    ( 0.0000,  0.0000,  0.6722)
  16 Ni     1.261746    2.185408   10.000000    ( 0.0000,  0.0000,  0.6703)
  17 Ni     2.523491    2.913877   12.060422    ( 0.0000,  0.0000,  0.6693)
  18 Ni     1.261910    3.643622   14.112815    ( 0.0000,  0.0000,  0.6697)
  19 Ni     1.259827    2.199709   16.175487    ( 0.0000,  0.0000,  0.6722)
  20 Ni    -0.000000    4.370815   10.000000    ( 0.0000,  0.0000,  0.6703)
  21 Ni     1.261746    5.099284   12.060422    ( 0.0000,  0.0000,  0.6693)
  22 Ni     0.000987    5.827347   14.115442    ( 0.0000,  0.0000,  0.6697)
  23 Ni     0.002568    4.371043   16.156964    ( 0.0000,  0.0000,  0.6722)
  24 Ni     5.046982    0.000000   10.000000    ( 0.0000,  0.0000,  0.6703)
  25 Ni     6.308728    0.728469   12.060422    ( 0.0000,  0.0000,  0.6693)
  26 Ni     5.047019    1.456535   14.116709    ( 0.0000,  0.0000,  0.6697)
  27 Ni     5.047189   -0.000543   16.156826    ( 0.0000,  0.0000,  0.6722)
  28 Ni     3.785237    2.185408   10.000000    ( 0.0000,  0.0000,  0.6703)
  29 Ni     5.046982    2.913877   12.060422    ( 0.0000,  0.0000,  0.6693)
  30 Ni     3.784838    3.642198   14.116269    ( 0.0000,  0.0000,  0.6697)
  31 Ni     3.789637    2.187121   16.158005    ( 0.0000,  0.0000,  0.6722)
  32 Ni     2.523491    4.370815   10.000000    ( 0.0000,  0.0000,  0.6703)
  33 Ni     3.785237    5.099284   12.060422    ( 0.0000,  0.0000,  0.6693)
  34 Ni     2.522579    5.827238   14.115407    ( 0.0000,  0.0000,  0.6697)
  35 Ni     2.521425    4.371256   16.156991    ( 0.0000,  0.0000,  0.6722)
  36 H      1.326698   -0.343145   19.565749    ( 0.0000,  0.0000,  0.0000)
  37 O      1.303953   -0.790483   18.666785    ( 0.0000,  0.0000,  0.0000)
  38 C      1.298464    0.177801   17.680728    ( 0.0000,  0.0000,  0.0000)
  39 C      1.249518    1.641261   18.058585    ( 0.0000,  0.0000,  0.0000)
  40 O      1.277867    2.179578   19.099326    ( 0.0000,  0.0000,  0.0000)

Unit cell:
           periodic     x           y           z      points  spacing
  1. axis:    yes    7.570474    0.000000    0.000000    36     0.1821
  2. axis:    yes   -3.785237    6.556223    0.000000    36     0.1821
  3. axis:    no     0.000000    0.000000   26.181266   144     0.1818

  Lengths:   7.570474   7.570474  26.181266
  Angles:   90.000000  90.000000 120.000000

Effective grid spacing dv^(1/3) = 0.1910

     iter     time        total  log10-change:  magmom
                         energy  eigst   dens
iter:   1 06:24:00 -2805.822613  -1.54           +22.6922
iter:   2 06:25:15 -3005.059134  -0.32  -1.79    +20.1143
iter:   3 06:26:29 -2816.417530  -1.08  -1.15    +16.0871
iter:   4 06:27:44 -2793.876961  -1.29  -1.81    +13.5775
iter:   5 06:28:58 -2799.995526  -1.65  -2.21    +15.4126
iter:   6 06:30:13 -2799.328112  -1.90  -1.90    +15.2680
iter:   7 06:31:27 -2795.840119  -2.04  -2.03    +15.3111
iter:   8 06:32:42 -2791.983439  -2.44  -2.06    +16.5990
iter:   9 06:33:57 -2792.793462  -2.68  -2.27    +18.7120
iter:  10 06:35:11 -2791.489012  -2.71  -2.23    +19.5112
iter:  11 06:36:26 -2791.157604  -2.95  -2.40    +20.5279
iter:  12 06:37:40 -2790.698303  -2.84  -2.44    +20.8160
iter:  13 06:38:55 -2791.049676  -3.34  -2.68    +20.9951
iter:  14 06:40:09 -2790.642077  -3.45  -2.53    +21.4514
iter:  15 06:41:24 -2790.731048  -3.53  -2.80    +21.5678
iter:  16 06:42:38 -2790.677239c -3.42  -2.78    +21.9412
iter:  17 06:43:53 -2790.801255c -3.20  -2.92    +22.0349
iter:  18 06:45:07 -2790.867849c -3.14  -3.07    +22.2163
iter:  19 06:46:22 -2790.895310c -3.67  -3.14    +22.3072
iter:  20 06:47:37 -2790.907984c -3.90  -3.12    +22.4857
iter:  21 06:48:51 -2790.905467c -4.15  -3.14    +22.4769
iter:  22 06:50:06 -2790.977503c -3.99  -3.20    +22.5040
iter:  23 06:51:20 -2790.936645c -4.72  -2.92    +22.5307
iter:  24 06:52:35 -2790.928360c -4.20  -3.06    +22.6129
iter:  25 06:53:50 -2790.947681c -3.97  -3.13    +22.6913
iter:  26 06:55:04 -2790.914883c -4.31  -3.07    +22.7231
iter:  27 06:56:19 -2790.894620c -4.26  -3.22    +22.7105
iter:  28 06:57:33 -2790.916508c -4.77  -3.45    +22.6965
iter:  29 06:58:48 -2790.898156c -5.11  -3.19    +22.6913
iter:  30 07:00:02 -2790.889278c -5.27  -3.40    +22.6905
iter:  31 07:01:17 -2790.890549c -5.22  -3.69    +22.6961
iter:  32 07:02:31 -2790.887164c -4.91  -3.84    +22.6483
iter:  33 07:03:46 -2790.897456c -4.89  -3.80    +22.6206
iter:  34 07:05:00 -2790.916993c -4.09  -3.70    +22.6220
iter:  35 07:06:15 -2790.925645c -4.21  -3.39    +22.6516
iter:  36 07:07:29 -2790.973077c -3.75  -3.27    +22.7323
iter:  37 07:08:44 -2790.926127c -4.02  -3.00    +22.6561
iter:  38 07:09:59 -2790.935346c -4.94  -3.31    +22.6790
iter:  39 07:11:13 -2790.937353c -4.63  -3.20    +22.6919
iter:  40 07:12:28 -2790.942873c -4.01  -3.15    +22.7330
iter:  41 07:13:42 -2790.959493c -4.34  -3.03    +22.7267
iter:  42 07:14:57 -2790.948515c -4.37  -2.96    +22.7269
iter:  43 07:16:11 -2791.001980c -3.77  -3.07    +22.7202
iter:  44 07:17:26 -2790.907798c -3.34  -2.85    +22.7171
[...]
 34 Ni    0.01274    0.01433   -0.01476
 35 Ni    0.03129    0.02285    0.00038
 36 H    -0.01899    0.13938    0.09224
 37 O    -0.01670    0.01359    0.05430
 38 C     0.05439   -0.04860    0.18554
 39 C    -0.07691   -0.05756    0.14566
 40 O     0.03535   -0.06779   -0.04162

BFGS:    9 09:20:54    -2791.067965        0.1994
System changes: positions 

Initializing position-dependent things.

Density initialized from wave functions
                                           
                                           
                                           
                                           
                                           
                                           
                                           
                   O                       
                 H                         
           Ni    OC    Ni                  
                 C Ni                      
            Ni    Ni    NNi                
             NNi    Ni    NNi              
                                           
              NNi    Ni    NNi             
                Ni    Ni     Ni            
                                           
           Ni    NNi   NNi    Ni           
            Ni     Ni    Ni                
                                           
              Ni    Ni     Ni              
                                           
                                           
                                           
                                           

Positions:
   0 Ni    -0.000000    0.000000   10.000000    ( 0.0000,  0.0000,  0.6703)
   1 Ni     1.261746    0.728469   12.060422    ( 0.0000,  0.0000,  0.6693)
   2 Ni     0.007187    1.458008   14.117308    ( 0.0000,  0.0000,  0.6697)
   3 Ni     0.014705   -0.017935   16.221916    ( 0.0000,  0.0000,  0.6722)
   4 Ni    -1.261746    2.185408   10.000000    ( 0.0000,  0.0000,  0.6703)
   5 Ni    -0.000000    2.913877   12.060422    ( 0.0000,  0.0000,  0.6693)
   6 Ni    -1.256217    3.641424   14.112348    ( 0.0000,  0.0000,  0.6697)
   7 Ni    -1.275300    2.183739   16.149633    ( 0.0000,  0.0000,  0.6722)
   8 Ni    -2.523491    4.370815   10.000000    ( 0.0000,  0.0000,  0.6703)
   9 Ni    -1.261746    5.099284   12.060422    ( 0.0000,  0.0000,  0.6693)
  10 Ni    -2.523041    5.833440   14.100705    ( 0.0000,  0.0000,  0.6697)
  11 Ni    -2.522507    4.325243   16.132865    ( 0.0000,  0.0000,  0.6722)
  12 Ni     2.523491    0.000000   10.000000    ( 0.0000,  0.0000,  0.6703)
  13 Ni     3.785237    0.728469   12.060422    ( 0.0000,  0.0000,  0.6693)
  14 Ni     2.516578    1.459881   14.114325    ( 0.0000,  0.0000,  0.6697)
  15 Ni     2.519577   -0.012385   16.207896    ( 0.0000,  0.0000,  0.6722)
  16 Ni     1.261746    2.185408   10.000000    ( 0.0000,  0.0000,  0.6703)
  17 Ni     2.523491    2.913877   12.060422    ( 0.0000,  0.0000,  0.6693)
  18 Ni     1.262529    3.645226   14.103776    ( 0.0000,  0.0000,  0.6697)
  19 Ni     1.263382    2.255134   16.239682    ( 0.0000,  0.0000,  0.6722)
  20 Ni    -0.000000    4.370815   10.000000    ( 0.0000,  0.0000,  0.6703)
  21 Ni     1.261746    5.099284   12.060422    ( 0.0000,  0.0000,  0.6693)
  22 Ni    -0.001808    5.832295   14.118835    ( 0.0000,  0.0000,  0.6697)
  23 Ni     0.010386    4.376667   16.142529    ( 0.0000,  0.0000,  0.6722)
  24 Ni     5.046982    0.000000   10.000000    ( 0.0000,  0.0000,  0.6703)
  25 Ni     6.308728    0.728469   12.060422    ( 0.0000,  0.0000,  0.6693)
  26 Ni     5.046975    1.453538   14.114975    ( 0.0000,  0.0000,  0.6697)
  27 Ni     5.051978   -0.001005   16.146058    ( 0.0000,  0.0000,  0.6722)
  28 Ni     3.785237    2.185408   10.000000    ( 0.0000,  0.0000,  0.6703)
  29 Ni     5.046982    2.913877   12.060422    ( 0.0000,  0.0000,  0.6693)
  30 Ni     3.780826    3.641832   14.111814    ( 0.0000,  0.0000,  0.6697)
  31 Ni     3.799886    2.185469   16.148476    ( 0.0000,  0.0000,  0.6722)
  32 Ni     2.523491    4.370815   10.000000    ( 0.0000,  0.0000,  0.6703)
  33 Ni     3.785237    5.099284   12.060422    ( 0.0000,  0.0000,  0.6693)
  34 Ni     2.529472    5.833400   14.122805    ( 0.0000,  0.0000,  0.6697)
  35 Ni     2.515644    4.377312   16.143241    ( 0.0000,  0.0000,  0.6722)
  36 H      1.319206   -0.306320   19.576786    ( 0.0000,  0.0000,  0.0000)
  37 O      1.301140   -0.760850   18.718501    ( 0.0000,  0.0000,  0.0000)
  38 C      1.271832    0.156963   17.697180    ( 0.0000,  0.0000,  0.0000)
  39 C      1.274130    1.595499   18.022510    ( 0.0000,  0.0000,  0.0000)
  40 O      1.261201    2.160388   19.095796    ( 0.0000,  0.0000,  0.0000)

Unit cell:
           periodic     x           y           z      points  spacing
  1. axis:    yes    7.570474    0.000000    0.000000    36     0.1821
  2. axis:    yes   -3.785237    6.556223    0.000000    36     0.1821
  3. axis:    no     0.000000    0.000000   26.181266   144     0.1818

  Lengths:   7.570474   7.570474  26.181266
  Angles:   90.000000  90.000000 120.000000

Effective grid spacing dv^(1/3) = 0.1910

     iter     time        total  log10-change:  magmom
                         energy  eigst   dens
iter:   1 09:24:26 -2791.307452  -2.79           +22.6200
iter:   2 09:25:40 -2799.213993  -2.29  -2.72    +22.8893
iter:   3 09:26:54 -2791.091250  -2.68  -1.98    +22.5043
iter:   4 09:28:08 -2791.110905  -3.39  -3.28    +22.5450
iter:   5 09:29:22 -2791.069333c -4.38  -3.09    +22.5809
iter:   6 09:30:37 -2791.078907c -4.79  -3.62    +22.5648
iter:   7 09:31:51 -2791.070951c -4.82  -3.29    +22.5778
iter:   8 09:33:05 -2791.069770c -5.08  -3.55    +22.5774
iter:   9 09:34:19 -2791.070979c -5.82  -3.77    +22.5838
iter:  10 09:35:34 -2791.073894c -5.31  -3.74    +22.5951
iter:  11 09:36:48 -2791.069022c -5.67  -3.60    +22.5937
iter:  12 09:38:02 -2791.069082c -6.05  -4.00c   +22.5843
iter:  13 09:39:16 -2791.072653c -5.66  -4.17c   +22.5652
iter:  14 09:40:30 -2791.070693c -6.00  -3.83    +22.5842
iter:  15 09:41:45 -2791.070653c -6.26  -4.11c   +22.5850
iter:  16 09:42:59 -2791.070332c -6.12  -4.25c   +22.5823
iter:  17 09:44:13 -2791.071031c -5.54  -4.33c   +22.5904
iter:  18 09:45:27 -2791.071409c -5.42  -4.24c   +22.6037
iter:  19 09:46:41 -2791.071206c -5.91  -4.09c   +22.5912
iter:  20 09:47:56 -2791.073553c -4.87  -4.29c   +22.6147
iter:  21 09:49:10 -2791.069370c -4.07  -3.71    +22.5574
iter:  22 09:50:24 -2791.069073c -4.79  -3.71    +22.5449
iter:  23 09:51:38 -2791.069473c -5.83  -3.67    +22.5530
iter:  24 09:52:52 -2791.069241c -5.67  -3.81    +22.5428
iter:  25 09:54:07 -2791.068744c -6.41  -3.68    +22.5456
iter:  26 09:55:21 -2791.068259c -6.39  -3.72    +22.5486
iter:  27 09:56:35 -2791.069148c -5.58  -3.80    +22.5504
iter:  28 09:57:49 -2791.065373c -5.17  -3.62    +22.5545
iter:  29 09:59:03 -2791.064703c -5.06  -3.59    +22.5563
iter:  30 10:00:18 -2791.056448c -4.20  -4.05c   +22.5421
iter:  31 10:01:32 -2791.086048c -3.50  -3.46    +22.5899
iter:  32 10:02:46 -2791.075416c -2.76  -3.33    +22.4080
iter:  33 10:04:00 -2791.075554c -3.67  -2.86    +22.3521
iter:  34 10:05:14 -2791.067947c -4.38  -2.87    +22.3209
iter:  35 10:06:29 -2791.060079c -4.72  -2.89    +22.2812
iter:  36 10:07:43 -2791.060612c -5.30  -2.93    +22.2914
iter:  37 10:08:57 -2791.184785c -3.21  -2.94    +22.3040
iter:  38 10:10:11 -2790.891395c -3.93  -2.67    +22.3097
iter:  39 10:11:25 -2790.910205c -4.31  -3.46    +22.5160
iter:  40 10:12:39 -2790.990227c -3.80  -3.57    +22.4331
iter:  41 10:13:54 -2791.089658c -3.49  -3.69    +22.3560
iter:  42 10:15:08 -2791.123751c -3.52  -3.23    +22.3731
iter:  43 10:16:22 -2791.198990c -3.38  -3.14    +22.4979
iter:  44 10:17:36 -2791.159964c -4.40  -2.93    +22.4721
iter:  45 10:18:51 -2791.169661c -4.27  -3.00    +22.5203
iter:  46 10:20:05 -2791.192876c -4.30  -2.96    +22.5542
iter:  47 10:21:19 -2791.103573c -3.64  -2.90    +22.4351
iter:  48 10:22:33 -2791.108169c -4.53  -3.19    +22.5020
iter:  49 10:23:47 -2791.108398c -4.85  -3.15    +22.5157
iter:  50 10:25:02 -2791.125341c -4.43  -3.14    +22.5686
iter:  51 10:26:16 -2791.144443c -4.43  -3.05    +22.5968
iter:  52 10:27:30 -2791.115762c -4.39  -2.98    +22.5787
iter:  53 10:28:44 -2791.135865c -4.35  -3.09    +22.6229
iter:  54 10:29:58 -2791.094101c -3.53  -2.98    +22.5323
iter:  55 10:31:13 -2791.239502c -3.09  -3.31    +22.7250
iter:  56 10:32:27 -2791.094379c -3.40  -2.78    +22.5674
iter:  57 10:33:41 -2791.151091c -4.51  -3.24    +22.6270
iter:  58 10:34:55 -2791.171544c -4.52  -3.01    +22.6221
iter:  59 10:36:10 -2791.179479c -4.53  -2.94    +22.5975
iter:  60 10:37:24 -2791.250365c -3.86  -2.92    +22.6066
iter:  61 10:38:38 -2791.074627c -3.01  -2.78    +22.5553
iter:  62 10:39:52 -2791.153329c -3.87  -3.37    +22.5542
iter:  63 10:41:07 -2791.236401c -3.61  -3.01    +22.6164
iter:  64 10:42:21 -2791.089862c -3.27  -2.83    +22.5088
iter:  65 10:43:35 -2790.928440  -2.49  -3.34    +22.2469
iter:  66 10:44:49 -2791.285972  -2.37  -2.90    +22.6922
iter:  67 10:46:03 -2791.453722  -2.87  -2.76    +22.7476
iter:  68 10:47:18 -2791.423211c -3.90  -2.62    +22.6949
iter:  69 10:48:32 -2791.568343c -3.61  -2.65    +22.7146
iter:  70 10:49:46 -2791.340489c -3.34  -2.56    +22.6817
iter:  71 10:51:01 -2791.158057  -3.41  -2.74    +22.6385
iter:  72 10:52:15 -2791.296987c -3.60  -3.00    +22.6742
iter:  73 10:53:29 -2791.129220c -3.65  -2.82    +22.6930
iter:  74 10:54:43 -2791.103390c -3.87  -3.01    +22.7219
iter:  75 10:55:57 -2791.120659c -3.99  -3.02    +22.6980
iter:  76 10:57:12 -2791.101000c -3.41  -2.93    +22.6956
iter:  77 10:58:26 -2790.987275c -4.30  -2.94    +22.6959
iter:  78 10:59:40 -2790.988732c -4.58  -3.66    +22.6468
iter:  79 11:00:54 -2791.030694c -4.25  -3.63    +22.5894
iter:  80 11:02:08 -2791.003639c -4.37  -3.45    +22.6717
iter:  81 11:03:23 -2791.011881c -4.07  -3.45    +22.7200
iter:  82 11:04:37 -2791.067654c -4.04  -3.36    +22.7479
iter:  83 11:05:51 -2790.892286c -3.12  -3.20    +22.6636
iter:  84 11:07:05 -2791.047389c -3.35  -3.09    +22.7226
iter:  85 11:08:19 -2791.091305c -3.48  -3.33    +22.7274
iter:  86 11:09:34 -2791.182881c -3.27  -3.20    +22.6980
iter:  87 11:10:48 -2791.188170c -3.29  -2.90    +22.7228
iter:  88 11:12:02 -2791.573097  -3.04  -2.95    +22.7581
iter:  89 11:13:16 -2791.012949  -2.77  -2.64    +22.7129
iter:  90 11:14:31 -2790.921588  -2.86  -3.81    +22.6734
iter:  91 11:15:45 -2790.990313c -3.87  -3.08    +22.6896
iter:  92 11:16:59 -2790.976407c -4.69  -3.75    +22.6832
iter:  93 11:18:13 -2790.958763c -4.43  -3.52    +22.6201
iter:  94 11:19:27 -2791.017329c -3.75  -3.51    +22.7728
iter:  95 11:20:42 -2791.061562c -3.88  -3.83    +22.7550
iter:  96 11:21:56 -2791.082944c -4.24  -3.45    +22.7423
iter:  97 11:23:10 -2791.186910c -3.51  -3.32    +22.7136
iter:  98 11:24:24 -2790.814059  -2.33  -2.97    +22.8258
iter:  99 11:25:38 -2791.068591  -2.79  -2.77    +22.7038
iter: 100 11:26:53 -2791.010192c -4.57  -3.38    +22.7076
iter: 101 11:28:07 -2790.988852c -4.54  -3.95    +22.6986
iter: 102 11:29:21 -2790.960421c -3.72  -3.45    +22.6824
iter: 103 11:30:35 -2790.969758c -4.38  -3.03    +22.6570
iter: 104 11:31:49 -2790.967060c -4.23  -2.99    +22.5798
iter: 105 11:33:03 -2790.986402c -4.61  -2.99    +22.6378
iter: 106 11:34:18 -2791.003573c -3.77  -3.05    +22.7079
iter: 107 11:35:32 -2790.951215c -3.06  -3.38    +22.5260
iter: 108 11:36:46 -2790.966905c -4.06  -2.79    +22.5793
iter: 109 11:38:00 -2790.951668c -4.64  -2.98    +22.5847
iter: 110 11:39:14 -2790.939850c -4.52  -3.06    +22.5752
iter: 111 11:40:29 -2790.981898c -4.89  -2.94    +22.5846
iter: 112 11:41:43 -2790.934036c -4.26  -2.96    +22.5940
iter: 113 11:42:57 -2790.894099c -4.35  -3.22    +22.5829
iter: 114 11:44:11 -2790.959363c -3.78  -3.19    +22.6218
iter: 115 11:45:25 -2791.126076c -3.01  -3.58    +22.6725
iter: 116 11:46:39 -2790.967861c -3.33  -3.03    +22.6242
iter: 117 11:47:54 -2790.831928c -2.64  -3.43    +22.5490
iter: 118 11:49:08 -2790.988438c -2.99  -2.76    +22.6063
iter: 119 11:50:22 -2791.064989c -3.30  -3.59    +22.6536
iter: 120 11:51:36 -2791.144159c -3.45  -3.42    +22.6690
iter: 121 11:52:50 -2791.023710c -3.72  -3.11    +22.6356
iter: 122 11:54:05 -2791.006642c -4.32  -3.86    +22.6511
iter: 123 11:55:19 -2790.997582c -4.80  -4.09c   +22.6581
iter: 124 11:56:33 -2791.048153c -4.22  -3.85    +22.6621
iter: 125 11:57:47 -2791.053318c -4.77  -3.62    +22.6745
iter: 126 11:59:01 -2791.047091c -4.06  -3.55    +22.6040
iter: 127 12:00:16 -2791.093029c -4.08  -3.53    +22.6501
iter: 128 12:01:30 -2791.105848c -4.54  -3.30    +22.6430
iter: 129 12:02:44 -2791.135672c -4.30  -3.24    +22.6736
iter: 130 12:03:58 -2791.121606c -4.41  -3.12    +22.6239
iter: 131 12:05:12 -2791.176199c -4.06  -3.19    +22.6660
iter: 132 12:06:27 -2791.197420c -4.41  -3.02    +22.6651
iter: 133 12:07:41 -2791.122339c -3.80  -2.97    +22.6761
iter: 134 12:08:55 -2791.236068c -3.79  -3.21    +22.6840
iter: 135 12:10:09 -2791.145680c -4.11  -2.93    +22.6885
iter: 136 12:11:23 -2791.262276c -3.71  -3.10    +22.7048
iter: 137 12:12:38 -2791.164637c -4.04  -2.84    +22.7223
iter: 138 12:13:52 -2791.070394c -3.59  -3.02    +22.7816
iter: 139 12:15:06 -2791.006678c -3.50  -3.40    +22.7911
iter: 140 12:16:20 -2790.991799c -3.94  -3.51    +22.7028
iter: 141 12:17:34 -2791.016007c -4.60  -3.41    +22.6953
iter: 142 12:18:49 -2791.054368c -4.02  -3.70    +22.6912
iter: 143 12:20:03 -2791.020049c -4.51  -3.60    +22.6922
iter: 144 12:21:17 -2790.870176c -2.49  -3.68    +22.6698
iter: 145 12:22:31 -2791.122588c -2.40  -2.65    +22.7244
iter: 146 12:23:45 -2791.171060  -3.10  -3.16    +22.7292
iter: 147 12:24:59 -2791.196876c -3.63  -2.99    +22.7037
iter: 148 12:26:14 -2791.179324c -4.75  -2.93    +22.7141
iter: 149 12:27:28 -2791.262961c -3.70  -2.98    +22.6743
iter: 150 12:28:42 -2791.239735c -4.14  -2.82    +22.6796
iter: 151 12:29:56 -2791.348859c -4.03  -2.82    +22.6522
iter: 152 12:31:10 -2791.364085c -4.34  -2.72    +22.6425
iter: 153 12:32:25 -2791.395160c -3.76  -2.70    +22.6556
iter: 154 12:33:39 -2791.279490c -3.81  -2.65    +22.6202
iter: 155 12:34:53 -2791.298657c -4.12  -2.66    +22.5520
iter: 156 12:36:07 -2791.286929c -3.76  -2.64    +22.4695
iter: 157 12:37:22 -2791.244972c -3.92  -2.60    +22.3836
iter: 158 12:38:36 -2792.594940  -2.67  -2.59    +22.3203
iter: 159 12:39:50 -2790.660697  -3.16  -2.20    +22.2472
iter: 160 12:41:04 -2790.779179  -3.63  -2.83    +22.5029
iter: 161 12:42:18 -2790.904901c -3.09  -2.79    +22.2862
iter: 162 12:43:32 -2790.585454  -3.52  -2.76    +22.1903
iter: 163 12:44:47 -2791.000281  -2.96  -2.89    +21.8913
iter: 164 12:46:01 -2791.087757  -2.96  -3.02    +21.8507
iter: 165 12:47:15 -2791.095577c -3.28  -3.26    +22.1726
iter: 166 12:48:29 -2791.505571  -3.15  -3.34    +22.3164
iter: 167 12:49:44 -2791.077675  -4.05  -2.57    +22.3365
iter: 168 12:50:58 -2791.074168  -4.33  -3.34    +22.4321
iter: 169 12:52:12 -2791.097224c -4.97  -3.41    +22.5046
iter: 170 12:53:26 -2791.089492c -4.26  -3.19    +22.6250
iter: 171 12:54:41 -2791.092737c -4.60  -3.23    +22.6201
iter: 172 12:55:55 -2791.064945c -4.98  -3.20    +22.6226
iter: 173 12:57:09 -2791.077090c -5.04  -3.50    +22.5948
iter: 174 12:58:23 -2791.059477c -4.95  -3.23    +22.5949
iter: 175 12:59:37 -2791.068492c -5.37  -3.42    +22.5972
iter: 176 13:00:52 -2791.074104c -5.64  -3.33    +22.5865
iter: 177 13:02:06 -2791.072410c -6.35  -3.26    +22.5954
iter: 178 13:03:20 -2791.061075c -5.08  -3.28    +22.5928
iter: 179 13:04:34 -2791.101226c -4.22  -3.50    +22.5958
iter: 180 13:05:48 -2791.063461c -4.44  -3.11    +22.5793
iter: 181 13:07:03 -2791.061020c -5.24  -3.46    +22.5811
iter: 182 13:08:17 -2791.059813c -5.71  -3.59    +22.5683
iter: 183 13:09:31 -2791.056638c -5.11  -3.84    +22.6107
iter: 184 13:10:45 -2791.068294c -4.46  -3.71    +22.5423
iter: 185 13:12:00 -2791.056840c -4.32  -3.83    +22.5824
iter: 186 13:13:14 -2791.046842c -3.88  -3.61    +22.5797
iter: 187 13:14:28 -2791.070086c -3.60  -3.27    +22.5747
iter: 188 13:15:42 -2791.073269c -4.38  -3.91    +22.5647
iter: 189 13:16:57 -2791.085491c -4.41  -3.76    +22.5678
iter: 190 13:18:11 -2791.058895c -3.92  -3.42    +22.5561
iter: 191 13:19:25 -2791.039419c -3.32  -3.89    +22.4799
iter: 192 13:20:39 -2791.051177c -4.17  -3.08    +22.4880
iter: 193 13:21:54 -2791.054200c -4.66  -3.42    +22.4844
iter: 194 13:23:08 -2791.059168c -4.54  -3.54    +22.4914
iter: 195 13:24:22 -2791.053925c -5.18  -3.89    +22.4815
iter: 196 13:25:36 -2791.055975c -6.30  -3.58    +22.4767
iter: 197 13:26:51 -2791.060237c -4.90  -3.61    +22.5011
iter: 198 13:28:05 -2791.053482c -4.57  -3.89    +22.4605
iter: 199 13:29:19 -2791.051940c -4.30  -3.44    +22.4236
iter: 200 13:30:33 -2791.052198c -4.18  -3.25    +22.3913
iter: 201 13:31:47 -2791.052750c -4.23  -3.12    +22.3623
iter: 202 13:33:02 -2791.037956c -3.79  -3.04    +22.2914
iter: 203 13:34:16 -2791.038112c -3.88  -2.93    +22.3897
iter: 204 13:35:30 -2791.038097c -3.80  -3.15    +22.2563
iter: 205 13:36:44 -2790.985936c -4.16  -2.92    +22.2206
iter: 206 13:37:59 -2790.963681c -4.34  -2.94    +22.2863
iter: 207 13:39:13 -2790.994532c -4.38  -3.07    +22.2200
iter: 208 13:40:27 -2791.042065c -3.89  -2.96    +22.2001
iter: 209 13:41:41 -2790.948390c -3.89  -2.85    +22.1798
iter: 210 13:42:55 -2790.857294c -4.20  -3.00    +22.1701
iter: 211 13:44:10 -2790.929200c -4.10  -3.06    +22.0780
iter: 212 13:45:24 -2791.179291  -3.12  -3.09    +22.1446
iter: 213 13:46:38 -2791.212040c -3.14  -2.84    +22.0999
iter: 214 13:47:52 -2791.042196c -3.37  -2.72    +22.1786
iter: 215 13:49:07 -2791.143877c -3.33  -3.37    +22.3439
iter: 216 13:50:21 -2791.166595c -3.37  -3.09    +22.4791
iter: 217 13:51:35 -2791.215663c -3.58  -3.01    +22.5709
iter: 218 13:52:49 -2791.212507c -3.37  -2.93    +22.7286
iter: 219 13:54:03 -2791.201913c -4.19  -2.82    +22.6446
iter: 220 13:55:18 -2791.385978c -3.43  -2.90    +22.6948
iter: 221 13:56:32 -2791.039167  -3.87  -2.56    +22.6952
iter: 222 13:57:46 -2790.996782  -3.75  -2.99    +22.6963
iter: 223 13:59:00 -2790.972444c -4.04  -3.06    +22.7241
iter: 224 14:00:15 -2791.009115c -4.01  -3.37    +22.6703
iter: 225 14:01:29 -2791.044509c -4.09  -3.46    +22.6595
iter: 226 14:02:43 -2791.106614c -3.95  -3.38    +22.6000
iter: 227 14:03:57 -2791.048354c -4.67  -3.17    +22.6150
iter: 228 14:05:12 -2791.054158c -4.34  -3.55    +22.6032
iter: 229 14:06:26 -2791.068188c -4.67  -3.46    +22.6306
iter: 230 14:07:40 -2791.062583c -4.96  -3.41    +22.6461
iter: 231 14:08:54 -2791.062802c -5.37  -3.42    +22.6395
iter: 232 14:10:08 -2791.080283c -4.49  -3.52    +22.6321
iter: 233 14:11:23 -2791.062162c -4.72  -3.23    +22.6506
iter: 234 14:12:37 -2791.061986c -5.18  -3.61    +22.6471
iter: 235 14:13:51 -2791.062821c -5.54  -3.75    +22.6512
iter: 236 14:15:05 -2791.070573c -4.69  -3.90    +22.6510
iter: 237 14:16:20 -2791.074423c -4.79  -3.96    +22.6516
iter: 238 14:17:34 -2791.074812c -5.42  -3.69    +22.6376
iter: 239 14:18:48 -2791.076464c -5.08  -3.68    +22.5991
iter: 240 14:20:02 -2791.076190c -5.02  -3.60    +22.5970
iter: 241 14:21:17 -2791.076311c -5.25  -3.66    +22.5944
iter: 242 14:22:31 -2791.077348c -5.65  -3.52    +22.5876
iter: 243 14:23:45 -2791.075678c -5.90  -3.53    +22.5850
iter: 244 14:24:59 -2791.067148c -4.89  -3.54    +22.5897
iter: 245 14:26:14 -2791.068775c -5.55  -4.07c   +22.5916
iter: 246 14:27:28 -2791.066677c -5.49  -3.96    +22.5950
iter: 247 14:28:42 -2791.073174c -5.10  -4.14c   +22.6178
iter: 248 14:29:56 -2791.080655c -4.39  -3.89    +22.6349
iter: 249 14:31:10 -2791.089064c -4.41  -3.58    +22.6199
iter: 250 14:32:25 -2791.070333c -4.07  -3.39    +22.6447
srun: Job step aborted: Waiting up to 32 seconds for job step to finish.
slurmstepd: error: *** JOB 6729009 ON c179 CANCELLED AT 2023-10-05T14:33:02 DUE TO TIME LIMIT ***
slurmstepd: error: *** STEP 6729009.0 ON c179 CANCELLED AT 2023-10-05T14:33:02 DUE TO TIME LIMIT ***
