
  ___ ___ ___ _ _ _  
 |   |   |_  | | | | 
 | | | | | . | | | | 
 |__ |  _|___|_____|  22.8.0
 |___|_|             

User:   s204775@a102.nifl.fysik.dtu.dk
Date:   Fri Sep 29 01:39:59 2023
Arch:   x86_64
Pid:    3667
CWD:    /home/cat/s204775/projects/Bachelor_project/OCCOH_missing_features
Python: 3.10.4
gpaw:   /home/modules/software/GPAW/22.8.0-intel-2022a/lib/python3.10/site-packages/gpaw
_gpaw:  /home/modules/software/GPAW/22.8.0-intel-2022a/lib/python3.10/site-packages/
        _gpaw.cpython-310-x86_64-linux-gnu.so
ase:    /home/modules/software/ASE/3.22.1-intel-2022a/lib/python3.10/site-packages/ase (version 3.22.1)
numpy:  /home/modules/software/SciPy-bundle/2022.05-intel-2022a/lib/python3.10/site-packages/numpy (version 1.22.3)
scipy:  /home/modules/software/SciPy-bundle/2022.05-intel-2022a/lib/python3.10/site-packages/scipy (version 1.8.1)
libxc:  5.2.3
units:  Angstrom and eV
cores: 40
OpenMP: False
OMP_NUM_THREADS: 1

Input parameters:
  basis: dzp
  h: 0.18
  kpts: {size: (4, 4, 1)}
  xc: BEEF-vdW

System changes: positions, numbers, cell, pbc, initial_charges, initial_magmoms 

Initialize ...

species:
  Pb:
    name: Lead
    id: 66e73b13d76dc837202bcdb13fee58e6
    Z: 82.0
    valence: 14
    core: 68
    charge: 0.0
    file: /home/modules/software/GPAW-setups/0.9.20000/Pb.PBE.gz
    compensation charges: {type: gauss,
                           rc: 0.38,
                           lmax: 2}
    cutoffs: {filter: 2.36,
              core: 2.43}
    valence states:
      #              energy  rcut
      - 6s(2.00)   -11.969   1.259
      - 6p(2.00)    -3.506   1.275
      - 5d(10.00)   -21.211   1.217
      -  s          15.243   1.259
      -  p          23.705   1.275
      -  d           6.001   1.217
  
    # LCAO basis set for Pb:
    #   Name: dzp
    #   File: /home/modules/software/GPAW-setups/0.9.20000/Pb.dzp.basis.gz
    #   Number of radial functions: 7
    #   Number of spherical harmonics: 23
    #     l=0, rc=6.8438 Bohr: 6s-sz confined orbital
    #     l=1, rc=9.8125 Bohr: 6p-sz confined orbital
    #     l=2, rc=4.5156 Bohr: 5d-sz confined orbital
    #     l=0, rc=3.9062 Bohr: 6s-dz split-valence wave
    #     l=1, rc=5.8750 Bohr: 6p-dz split-valence wave
    #     l=2, rc=2.7969 Bohr: 5d-dz split-valence wave
    #     l=2, rc=9.8125 Bohr: d-type Gaussian polarization
    #   Number of RI-basis functions 0

  H:
    name: Hydrogen
    id: d65de229564ff8ea4db303e23b6d1ecf
    Z: 1.0
    valence: 1
    core: 0
    charge: 0.0
    file: /home/modules/software/GPAW-setups/0.9.20000/H.PBE.gz
    compensation charges: {type: gauss,
                           rc: 0.15,
                           lmax: 2}
    cutoffs: {filter: 0.85,
              core: 0.53}
    valence states:
      #              energy  rcut
      - 1s(1.00)    -6.494   0.476
      -  s          20.717   0.476
      -  p           0.000   0.476
  
    # LCAO basis set for H:
    #   Name: dzp
    #   File: /home/modules/software/GPAW-setups/0.9.20000/H.dzp.basis.gz
    #   Number of radial functions: 3
    #   Number of spherical harmonics: 5
    #     l=0, rc=6.4219 Bohr: 1s-sz confined orbital
    #     l=0, rc=3.6094 Bohr: 1s-dz split-valence wave
    #     l=1, rc=6.4219 Bohr: p-type Gaussian polarization
    #   Number of RI-basis functions 0

  O:
    name: Oxygen
    id: 32ecd46bf208036f09c70b0ec9a88b78
    Z: 8.0
    valence: 6
    core: 2
    charge: 0.0
    file: /home/modules/software/GPAW-setups/0.9.20000/O.PBE.gz
    compensation charges: {type: gauss,
                           rc: 0.21,
                           lmax: 2}
    cutoffs: {filter: 1.17,
              core: 0.83}
    valence states:
      #              energy  rcut
      - 2s(2.00)   -23.961   0.688
      - 2p(4.00)    -9.029   0.598
      -  s           3.251   0.688
      -  p          18.182   0.598
      -  d           0.000   0.619
  
    # LCAO basis set for O:
    #   Name: dzp
    #   File: /home/modules/software/GPAW-setups/0.9.20000/O.dzp.basis.gz
    #   Number of radial functions: 5
    #   Number of spherical harmonics: 13
    #     l=0, rc=4.3438 Bohr: 2s-sz confined orbital
    #     l=1, rc=5.3906 Bohr: 2p-sz confined orbital
    #     l=0, rc=2.2969 Bohr: 2s-dz split-valence wave
    #     l=1, rc=2.8906 Bohr: 2p-dz split-valence wave
    #     l=2, rc=5.3906 Bohr: d-type Gaussian polarization
    #   Number of RI-basis functions 0

  C:
    name: Carbon
    id: 4aa54d4b901d75f77cc0ea3eec22967b
    Z: 6.0
    valence: 4
    core: 2
    charge: 0.0
    file: /home/modules/software/GPAW-setups/0.9.20000/C.PBE.gz
    compensation charges: {type: gauss,
                           rc: 0.20,
                           lmax: 2}
    cutoffs: {filter: 1.14,
              core: 1.14}
    valence states:
      #              energy  rcut
      - 2s(2.00)   -13.751   0.635
      - 2p(2.00)    -5.284   0.635
      -  s          13.461   0.635
      -  p          21.927   0.635
      -  d           0.000   0.635
  
    # LCAO basis set for C:
    #   Name: dzp
    #   File: /home/modules/software/GPAW-setups/0.9.20000/C.dzp.basis.gz
    #   Number of radial functions: 5
    #   Number of spherical harmonics: 13
    #     l=0, rc=5.5469 Bohr: 2s-sz confined orbital
    #     l=1, rc=6.6719 Bohr: 2p-sz confined orbital
    #     l=0, rc=3.0312 Bohr: 2s-dz split-valence wave
    #     l=1, rc=3.7500 Bohr: 2p-dz split-valence wave
    #     l=2, rc=6.6719 Bohr: d-type Gaussian polarization
    #   Number of RI-basis functions 0

Reference energy: -20428030.132106  # eV

Spin-paired calculation

Convergence criteria:
 Maximum [total energy] change in last 3 cyles: 0.0005 eV / electron
 Maximum integral of absolute [dens]ity change: 0.0001 electrons / valence electron
 Maximum integral of absolute [eigenst]ate change: 4e-08 eV^2 / valence electron
 Maximum number of scf [iter]ations: 333
 (Square brackets indicate name in SCF output, whereas a 'c' in
 the SCF output indicates the quantity has converged.)

Symmetries present (total): 1

  ( 1  0  0)
  ( 0  1  0)
  ( 0  0  1)

16 k-points: 4 x 4 x 1 Monkhorst-Pack grid
8 k-points in the irreducible part of the Brillouin zone
       k-points in crystal coordinates                weights
   0:     0.12500000   -0.37500000    0.00000000          2/16
   1:     0.12500000   -0.12500000    0.00000000          2/16
   2:     0.12500000    0.12500000    0.00000000          2/16
   3:     0.12500000    0.37500000    0.00000000          2/16
   4:     0.37500000   -0.37500000    0.00000000          2/16
   5:     0.37500000   -0.12500000    0.00000000          2/16
   6:     0.37500000    0.12500000    0.00000000          2/16
   7:     0.37500000    0.37500000    0.00000000          2/16

Wave functions: Uniform real-space grid
  Kinetic energy operator: 8*3+1=25 point O(h^6) finite-difference Laplacian
  ScaLapack parameters: grid=1x1, blocksize=None
  Wavefunction extrapolation:
    Improved wavefunction reuse through dual PAW basis 

Occupation numbers: Fermi-Dirac:
  width: 0.1000  # eV
 

Eigensolver
   Davidson(niter=2) 

Densities:
  Coarse grid: 52*52*160 grid
  Fine grid: 104*104*320 grid
  Total Charge: 0.000000 

Density mixing:
  Method: separate
  Backend: pulay
  Linear mixing parameter: 0.05
  old densities: 5
  Damping of long wavelength oscillations: 50 

Hamiltonian:
  XC and Coulomb potentials evaluated on a 104*104*320 grid
  Using the BEEF-vdW Exchange-Correlation functional
  Interpolation: tri-quintic (5. degree polynomial)
  Poisson solver: FastPoissonSolver using
    Stencil: 8*3+1=25 point O(h^6) finite-difference Laplacian
    FFT axes: [0, 1]
    FST axes: [2]
 

XC parameters: BEEF-vdW with 2 nearest neighbor stencil

Memory estimate:
  Process memory now: 232.32 MiB
  Calculator: 928.36 MiB
    Density: 66.48 MiB
      Arrays: 16.88 MiB
      Localized functions: 43.21 MiB
      Mixer: 6.40 MiB
    Hamiltonian: 14.80 MiB
      Arrays: 11.04 MiB
      XC: 0.00 MiB
      Poisson: 0.00 MiB
      vbar: 3.76 MiB
    Wavefunctions: 847.08 MiB
      Arrays psit_nG: 408.02 MiB
      Eigensolver: 429.95 MiB
      Projections: 0.69 MiB
      Projectors: 8.42 MiB

Total number of cores used: 40
Parallelization over k-points: 8
Domain decomposition: 1 x 1 x 5

Number of atoms: 41
Number of atomic orbitals: 885
Number of bands in calculation: 319
Number of valence electrons: 525
Bands to converge: occupied

... initialized

Initializing position-dependent things.

Density initialized from atomic densities
Creating initial wave functions:
  319 bands from LCAO basis set

                                                    
                                                    
                                                    
                                                    
                                                    
                                                    
                                                    
                      O                             
                                                    
           Pb       PHC      Pb                     
                    O                               
             PPb     CPb      PPb                   
                                                    
               PPb      Pb      PPb                 
                                                    
                 Pb       Pb      Pb                
                Pb       Pb       Pb                
                                                    
                   Pb      Pb       Pb              
                                                    
           Pb       PPb      Pb       Pb            
                                                    
              Pb      Pb       Pb                   
                                                    
                Pb      Pb       Pb                 
                                                    
                                                    
                                                    
                                                    

Positions:
   0 Pb     0.000000    0.000000   10.000000    ( 0.0000,  0.0000,  0.0000)
   1 Pb     1.778836    1.027012   12.904828    ( 0.0000,  0.0000,  0.0000)
   2 Pb    -0.000000    2.058039   15.925154    ( 0.0000,  0.0000,  0.0000)
   3 Pb    -0.000000    0.000000   18.734333    ( 0.0000,  0.0000,  0.0000)
   4 Pb    -1.778836    3.081035   10.000000    ( 0.0000,  0.0000,  0.0000)
   5 Pb    -0.000000    4.108047   12.904828    ( 0.0000,  0.0000,  0.0000)
   6 Pb    -1.780038    5.134365   15.935257    ( 0.0000,  0.0000,  0.0000)
   7 Pb    -1.780612    3.082298   18.759869    ( 0.0000,  0.0000,  0.0000)
   8 Pb    -3.557673    6.162070   10.000000    ( 0.0000,  0.0000,  0.0000)
   9 Pb    -1.778836    7.189082   12.904828    ( 0.0000,  0.0000,  0.0000)
  10 Pb    -3.554195    8.214086   15.925154    ( 0.0000,  0.0000,  0.0000)
  11 Pb    -3.557467    6.159901   18.759869    ( 0.0000,  0.0000,  0.0000)
  12 Pb     3.557673    0.000000   10.000000    ( 0.0000,  0.0000,  0.0000)
  13 Pb     5.336509    1.027012   12.904828    ( 0.0000,  0.0000,  0.0000)
  14 Pb     3.550963    2.050149   15.930366    ( 0.0000,  0.0000,  0.0000)
  15 Pb     3.559654    0.000906   18.759869    ( 0.0000,  0.0000,  0.0000)
  16 Pb     1.778836    3.081035   10.000000    ( 0.0000,  0.0000,  0.0000)
  17 Pb     3.557673    4.108047   12.904828    ( 0.0000,  0.0000,  0.0000)
  18 Pb     1.780038    5.134365   15.935257    ( 0.0000,  0.0000,  0.0000)
  19 Pb     1.780612    3.082298   18.759869    ( 0.0000,  0.0000,  0.0000)
  20 Pb    -0.000000    6.162070   10.000000    ( 0.0000,  0.0000,  0.0000)
  21 Pb     1.778836    7.189082   12.904828    ( 0.0000,  0.0000,  0.0000)
  22 Pb    -0.000000    8.217481   15.935257    ( 0.0000,  0.0000,  0.0000)
  23 Pb    -0.000000    6.162070   18.757272    ( 0.0000,  0.0000,  0.0000)
  24 Pb     7.115346    0.000000   10.000000    ( 0.0000,  0.0000,  0.0000)
  25 Pb     8.894182    1.027012   12.904828    ( 0.0000,  0.0000,  0.0000)
  26 Pb     7.122056    2.050149   15.930366    ( 0.0000,  0.0000,  0.0000)
  27 Pb     7.113364    0.000906   18.759869    ( 0.0000,  0.0000,  0.0000)
  28 Pb     5.336509    3.081035   10.000000    ( 0.0000,  0.0000,  0.0000)
  29 Pb     7.115346    4.108047   12.904828    ( 0.0000,  0.0000,  0.0000)
  30 Pb     5.336509    5.142806   15.930366    ( 0.0000,  0.0000,  0.0000)
  31 Pb     5.336509    3.081035   18.756500    ( 0.0000,  0.0000,  0.0000)
  32 Pb     3.557673    6.162070   10.000000    ( 0.0000,  0.0000,  0.0000)
  33 Pb     5.336509    7.189082   12.904828    ( 0.0000,  0.0000,  0.0000)
  34 Pb     3.554195    8.214086   15.925154    ( 0.0000,  0.0000,  0.0000)
  35 Pb     3.557467    6.159901   18.759869    ( 0.0000,  0.0000,  0.0000)
  36 H      1.845279    0.519718   22.097115    ( 0.0000,  0.0000,  0.0000)
  37 O      1.822762    0.154082   21.305042    ( 0.0000,  0.0000,  0.0000)
  38 C      1.826515    1.020537   20.305949    ( 0.0000,  0.0000,  0.0000)
  39 C      1.753201    2.516505   20.548056    ( 0.0000,  0.0000,  0.0000)
  40 O      1.805754    3.145053   21.831436    ( 0.0000,  0.0000,  0.0000)

Unit cell:
           periodic     x           y           z      points  spacing
  1. axis:    yes   10.673019    0.000000    0.000000    52     0.1778
  2. axis:    yes   -5.336509    9.243105    0.000000    52     0.1778
  3. axis:    no     0.000000    0.000000   28.714483   160     0.1795

  Lengths:  10.673019  10.673019  28.714483
  Angles:   90.000000  90.000000 120.000000

Effective grid spacing dv^(1/3) = 0.1871

     iter     time        total  log10-change:
                         energy  eigst   dens
iter:   1 01:41:14 -12892.488108
iter:   2 01:41:55 -12892.542437  -0.34  -1.51
iter:   3 01:42:36 -12892.016058  -0.91  -1.53
iter:   4 01:43:17 -12891.151232  -1.20  -1.56
iter:   5 01:43:58 -12891.660107  -1.64  -1.66
iter:   6 01:44:39 -12891.569104  -1.50  -1.66
iter:   7 01:45:20 -12891.254827  -1.69  -1.95
iter:   8 01:46:01 -12891.205813  -1.95  -2.16
iter:   9 01:46:42 -12891.300589c -2.10  -2.30
iter:  10 01:47:23 -12891.239324c -2.57  -2.37
iter:  11 01:48:04 -12891.219253c -2.96  -2.53
iter:  12 01:48:45 -12891.208617c -2.98  -2.59
iter:  13 01:49:26 -12891.214820c -3.12  -2.73
iter:  14 01:50:06 -12891.214187c -3.35  -2.79
iter:  15 01:50:47 -12891.213772c -3.60  -2.83
iter:  16 01:51:28 -12891.210799c -3.85  -2.87
iter:  17 01:52:09 -12891.209575c -3.90  -2.94
iter:  18 01:52:50 -12891.207617c -4.25  -3.09
iter:  19 01:53:31 -12891.207156c -4.75  -3.31
iter:  20 01:54:12 -12891.206645c -4.83  -3.37
iter:  21 01:54:53 -12891.206697c -5.50  -3.45
iter:  22 01:55:34 -12891.206473c -5.50  -3.52
iter:  23 01:56:15 -12891.206628c -5.52  -3.55
iter:  24 01:56:55 -12891.206510c -5.29  -3.64
iter:  25 01:57:36 -12891.206460c -5.31  -3.88
iter:  26 01:58:17 -12891.206436c -5.64  -4.10c
iter:  27 01:58:58 -12891.206421c -6.26  -4.18c
iter:  28 01:59:39 -12891.206458c -6.36  -4.21c
iter:  29 02:00:20 -12891.206425c -6.49  -4.30c
iter:  30 02:01:01 -12891.206427c -6.90  -4.56c
iter:  31 02:01:42 -12891.206426c -7.45c -4.66c

Converged after 31 iterations.

Dipole moment: (-0.653161, -28.915857, -0.802545) |e|*Ang

Energy contributions relative to reference atoms: (reference = -20428030.132106)

Kinetic:       +1516.294699
Potential:     -1457.402331
External:        +0.000000
XC:            -12946.847120
Entropy (-ST):   -0.614925
Local:           -2.944211
--------------------------
Free energy:   -12891.513889
Extrapolated:  -12891.206426

Showing only first 2 kpts
 Kpt  Band  Eigenvalues  Occupancy
  0   260     -4.55339    1.66116
  0   261     -4.44514    1.24831
  0   262     -4.37539    0.90515
  0   263     -4.23449    0.33617

  1   260     -4.92904    1.99051
  1   261     -4.90588    1.98806
  1   262     -4.81531    1.97071
  1   263     -4.75299    1.94606


Fermi level: -4.39441

No gap

Forces in eV/Ang:
  0 Pb   -0.00221   -0.01206    0.13837
  1 Pb    0.00479   -0.00399   -0.17006
  2 Pb   -0.08214   -0.04907   -0.02567
  3 Pb   -0.08390    0.06096    0.07949
  4 Pb   -0.03000    0.03837    0.12013
  5 Pb    0.00316    0.01072   -0.19097
  6 Pb    0.02116    0.01814    0.05616
  7 Pb   -0.15348    0.06869   -0.02451
  8 Pb   -0.01200   -0.02005    0.08610
  9 Pb   -0.00635    0.01319   -0.13975
 10 Pb    0.01699   -0.00509    0.01962
 11 Pb    0.00359   -0.04763   -0.02463
 12 Pb    0.01979    0.00265    0.10176
 13 Pb    0.00332   -0.02148   -0.10349
 14 Pb    0.09909   -0.06753   -0.02198
 15 Pb    0.16618    0.02902   -0.04835
 16 Pb    0.01113    0.00576    0.11963
 17 Pb    0.01723    0.02682   -0.16176
 18 Pb    0.00281    0.09876   -0.09582
 19 Pb    0.07609    3.76246   -8.32094
 20 Pb   -0.02843    0.00360    0.12933
 21 Pb    0.01580    0.04120    0.01696
 22 Pb    0.17858   -0.09109   -0.20499
 23 Pb    0.03562   -0.06099    0.04704
 24 Pb   -0.01774    0.00799    0.12053
 25 Pb   -0.02831   -0.03691   -0.13224
 26 Pb    0.01025    0.00134    0.06357
 27 Pb    0.01332   -0.07963   -0.01809
 28 Pb    0.01051    0.04073    0.11603
 29 Pb   -0.02851   -0.00993   -0.13567
 30 Pb   -0.01512    0.02425    0.05640
 31 Pb    0.14927    0.06475   -0.03400
 32 Pb    0.03194   -0.01980    0.09669
 33 Pb   -0.01391   -0.02604   -0.14677
 34 Pb   -0.18010   -0.09343   -0.19263
 35 Pb   -0.03946   -0.05321    0.03725
 36 H     0.11395    3.12164    6.15395
 37 O    -0.05293   -4.00625   -4.30698
 38 C    -0.37271    2.75680   -0.37552
 39 C     0.49543   -2.78087   12.60377
 40 O    -0.32042   -2.75845   -5.31239

      Step     Time          Energy         fmax
BFGS:    0 02:01:57   -12891.206426       12.9164
System changes: positions 

Initializing position-dependent things.

Density initialized from wave functions
                                                    
                                                    
                                                    
                                                    
                                                    
                                                    
                                                    
                                                    
                      O                             
           Pb       PHC      Pb                     
                    O                               
              Pb     CPb       Pb                   
             Pb      Pb       Pb                    
                Pb      Pb       Pb                 
               Pb       Pb      Pb                  
                                                    
                PPb      PPb      Pb                
                                                    
                   Pb      Pb       Pb              
                                                    
           Pb       PPb      Pb       Pb            
                                                    
              Pb      Pb       Pb                   
                                                    
                Pb      Pb       Pb                 
                                                    
                                                    
                                                    
                                                    

Positions:
   0 Pb     0.000000    0.000000   10.000000    ( 0.0000,  0.0000,  0.0000)
   1 Pb     1.778836    1.027012   12.904828    ( 0.0000,  0.0000,  0.0000)
   2 Pb    -0.001173    2.057338   15.924787    ( 0.0000,  0.0000,  0.0000)
   3 Pb    -0.001199    0.000871   18.735469    ( 0.0000,  0.0000,  0.0000)
   4 Pb    -1.778836    3.081035   10.000000    ( 0.0000,  0.0000,  0.0000)
   5 Pb    -0.000000    4.108047   12.904828    ( 0.0000,  0.0000,  0.0000)
   6 Pb    -1.779736    5.134624   15.936060    ( 0.0000,  0.0000,  0.0000)
   7 Pb    -1.782804    3.083280   18.759519    ( 0.0000,  0.0000,  0.0000)
   8 Pb    -3.557673    6.162070   10.000000    ( 0.0000,  0.0000,  0.0000)
   9 Pb    -1.778836    7.189082   12.904828    ( 0.0000,  0.0000,  0.0000)
  10 Pb    -3.553953    8.214013   15.925434    ( 0.0000,  0.0000,  0.0000)
  11 Pb    -3.557415    6.159221   18.759517    ( 0.0000,  0.0000,  0.0000)
  12 Pb     3.557673    0.000000   10.000000    ( 0.0000,  0.0000,  0.0000)
  13 Pb     5.336509    1.027012   12.904828    ( 0.0000,  0.0000,  0.0000)
  14 Pb     3.552378    2.049185   15.930052    ( 0.0000,  0.0000,  0.0000)
  15 Pb     3.562028    0.001320   18.759179    ( 0.0000,  0.0000,  0.0000)
  16 Pb     1.778836    3.081035   10.000000    ( 0.0000,  0.0000,  0.0000)
  17 Pb     3.557673    4.108047   12.904828    ( 0.0000,  0.0000,  0.0000)
  18 Pb     1.780078    5.135776   15.933888    ( 0.0000,  0.0000,  0.0000)
  19 Pb     1.781699    3.136048   18.640999    ( 0.0000,  0.0000,  0.0000)
  20 Pb    -0.000000    6.162070   10.000000    ( 0.0000,  0.0000,  0.0000)
  21 Pb     1.778836    7.189082   12.904828    ( 0.0000,  0.0000,  0.0000)
  22 Pb     0.002551    8.216179   15.932329    ( 0.0000,  0.0000,  0.0000)
  23 Pb     0.000509    6.161199   18.757944    ( 0.0000,  0.0000,  0.0000)
  24 Pb     7.115346    0.000000   10.000000    ( 0.0000,  0.0000,  0.0000)
  25 Pb     8.894182    1.027012   12.904828    ( 0.0000,  0.0000,  0.0000)
  26 Pb     7.122202    2.050168   15.931274    ( 0.0000,  0.0000,  0.0000)
  27 Pb     7.113555   -0.000232   18.759611    ( 0.0000,  0.0000,  0.0000)
  28 Pb     5.336509    3.081035   10.000000    ( 0.0000,  0.0000,  0.0000)
  29 Pb     7.115346    4.108047   12.904828    ( 0.0000,  0.0000,  0.0000)
  30 Pb     5.336293    5.143153   15.931171    ( 0.0000,  0.0000,  0.0000)
  31 Pb     5.338642    3.081960   18.756014    ( 0.0000,  0.0000,  0.0000)
  32 Pb     3.557673    6.162070   10.000000    ( 0.0000,  0.0000,  0.0000)
  33 Pb     5.336509    7.189082   12.904828    ( 0.0000,  0.0000,  0.0000)
  34 Pb     3.551623    8.212751   15.922402    ( 0.0000,  0.0000,  0.0000)
  35 Pb     3.556903    6.159141   18.760402    ( 0.0000,  0.0000,  0.0000)
  36 H      1.846907    0.564313   22.185028    ( 0.0000,  0.0000,  0.0000)
  37 O      1.822006    0.096850   21.243513    ( 0.0000,  0.0000,  0.0000)
  38 C      1.821191    1.059920   20.300584    ( 0.0000,  0.0000,  0.0000)
  39 C      1.760279    2.476778   20.728109    ( 0.0000,  0.0000,  0.0000)
  40 O      1.801177    3.105646   21.755544    ( 0.0000,  0.0000,  0.0000)

Unit cell:
           periodic     x           y           z      points  spacing
  1. axis:    yes   10.673019    0.000000    0.000000    52     0.1778
  2. axis:    yes   -5.336509    9.243105    0.000000    52     0.1778
  3. axis:    no     0.000000    0.000000   28.714483   160     0.1795

  Lengths:  10.673019  10.673019  28.714483
  Angles:   90.000000  90.000000 120.000000

Effective grid spacing dv^(1/3) = 0.1871

     iter     time        total  log10-change:
                         energy  eigst   dens
iter:   1 02:03:08 -12897.190513  -0.56
iter:   2 02:03:50 -12895.746140  -1.44  -1.83
iter:   3 02:04:31 -12895.166604  -1.76  -1.96
iter:   4 02:05:13 -12893.943422  -1.62  -1.95
iter:   5 02:05:54 -12893.729892  -1.90  -2.37
iter:   6 02:06:36 -12893.576061  -1.99  -2.55
iter:   7 02:07:17 -12893.543254c -2.32  -2.53
iter:   8 02:07:59 -12893.529020c -2.85  -2.78
iter:   9 02:08:41 -12893.525844c -3.34  -2.93
iter:  10 02:09:22 -12893.523410c -3.62  -3.03
iter:  11 02:10:04 -12893.522199c -3.89  -3.11
iter:  12 02:10:45 -12893.521824c -4.15  -3.18
iter:  13 02:11:27 -12893.521816c -4.64  -3.33
iter:  14 02:12:08 -12893.521737c -4.41  -3.39
iter:  15 02:12:50 -12893.521709c -4.96  -3.67
iter:  16 02:13:31 -12893.521811c -5.10  -3.69
iter:  17 02:14:13 -12893.521868c -5.30  -3.88
iter:  18 02:14:54 -12893.521847c -5.97  -3.99
iter:  19 02:15:36 -12893.521779c -5.90  -4.11c
iter:  20 02:16:17 -12893.521746c -5.86  -4.04c
iter:  21 02:16:59 -12893.521750c -6.16  -4.27c
iter:  22 02:17:40 -12893.521758c -6.35  -4.36c
iter:  23 02:18:22 -12893.521750c -6.85  -4.67c
iter:  24 02:19:03 -12893.521756c -7.46c -4.84c

Converged after 24 iterations.

Dipole moment: (-1.233151, -27.713687, -0.396835) |e|*Ang

Energy contributions relative to reference atoms: (reference = -20428030.132106)

Kinetic:       +1507.503583
Potential:     -1451.733762
External:        +0.000000
XC:            -12946.086708
Entropy (-ST):   -0.619621
Local:           -2.895059
--------------------------
Free energy:   -12893.831566
Extrapolated:  -12893.521756

Showing only first 2 kpts
 Kpt  Band  Eigenvalues  Occupancy
  0   260     -4.34563    1.68742
  0   261     -4.23293    1.27251
  0   262     -4.15488    0.88976
  0   263     -4.02722    0.36545

  1   260     -4.72278    1.99151
  1   261     -4.69140    1.98840
  1   262     -4.60189    1.97184
  1   263     -4.54808    1.95224


Fermi level: -4.17702

No gap

Forces in eV/Ang:
  0 Pb    0.00156   -0.00788    0.13621
  1 Pb    0.00320    0.00198   -0.17167
  2 Pb   -0.10233   -0.05090   -0.05073
  3 Pb   -0.04104    0.18747    0.14716
  4 Pb   -0.02191    0.03257    0.11967
  5 Pb    0.00417    0.00741   -0.19224
  6 Pb    0.00723    0.03008    0.04569
  7 Pb   -0.10750    0.05096   -0.02256
  8 Pb   -0.01170   -0.02036    0.08571
  9 Pb   -0.00476    0.00853   -0.13545
 10 Pb    0.01772   -0.00974    0.00148
 11 Pb    0.00265   -0.05132   -0.02206
 12 Pb    0.01911    0.00479    0.09891
 13 Pb    0.00224   -0.01348   -0.11960
 14 Pb    0.12575   -0.07156   -0.05621
 15 Pb    0.12444    0.15918    0.02678
 16 Pb    0.01148    0.00856    0.11930
 17 Pb    0.01856    0.02250   -0.16287
 18 Pb    0.00213    0.14103   -0.14861
 19 Pb   -0.00020    1.31246   -1.84199
 20 Pb   -0.02961    0.00391    0.12678
 21 Pb    0.01498    0.04921   -0.01103
 22 Pb    0.18166   -0.09886   -0.19198
 23 Pb    0.02355   -0.02112    0.02614
 24 Pb   -0.01943    0.00592    0.13361
 25 Pb   -0.02628   -0.02960   -0.15239
 26 Pb    0.00936    0.00105    0.06350
 27 Pb    0.00863   -0.07489   -0.01806
 28 Pb    0.00048    0.03621    0.11126
 29 Pb   -0.02832   -0.00623   -0.12979
 30 Pb   -0.00019    0.03293    0.04738
 31 Pb    0.11269    0.05190   -0.03021
 32 Pb    0.03162   -0.02359    0.09384
 33 Pb   -0.01294   -0.03015   -0.14278
 34 Pb   -0.18173   -0.10388   -0.17832
 35 Pb   -0.03041   -0.01299    0.01263
 36 H    -0.07601   -1.39029   -2.22008
 37 O     0.06602    0.28686    4.23168
 38 C    -0.24326    1.61819   -0.13532
 39 C     0.19757   -2.19125   -0.76756
 40 O    -0.04296    0.13803    1.38727

BFGS:    1 02:19:19   -12893.521756        4.2419
System changes: positions 

Initializing position-dependent things.

Density initialized from wave functions
                                                    
                                                    
                                                    
                                                    
                                                    
                                                    
                                                    
                                                    
                      O                             
           Pb       PHC      Pb                     
                    O                               
              Pb     CPb       Pb                   
             Pb               Pb                    
                Pb      Pb       Pb                 
               Pb       Pb      Pb                  
                                                    
                PPb      PPb      Pb                
                                                    
                   Pb      Pb       Pb              
                                                    
           Pb       PPb      Pb       Pb            
                                                    
              Pb      Pb       Pb                   
                                                    
                Pb      Pb       Pb                 
                                                    
                                                    
                                                    
                                                    

Positions:
   0 Pb     0.000000    0.000000   10.000000    ( 0.0000,  0.0000,  0.0000)
   1 Pb     1.778836    1.027012   12.904828    ( 0.0000,  0.0000,  0.0000)
   2 Pb    -0.002657    2.056589   15.924071    ( 0.0000,  0.0000,  0.0000)
   3 Pb    -0.001861    0.003472   18.737552    ( 0.0000,  0.0000,  0.0000)
   4 Pb    -1.778836    3.081035   10.000000    ( 0.0000,  0.0000,  0.0000)
   5 Pb    -0.000000    4.108047   12.904828    ( 0.0000,  0.0000,  0.0000)
   6 Pb    -1.779611    5.135052   15.936748    ( 0.0000,  0.0000,  0.0000)
   7 Pb    -1.784451    3.084055   18.759184    ( 0.0000,  0.0000,  0.0000)
   8 Pb    -3.557673    6.162070   10.000000    ( 0.0000,  0.0000,  0.0000)
   9 Pb    -1.778836    7.189082   12.904828    ( 0.0000,  0.0000,  0.0000)
  10 Pb    -3.553692    8.213875   15.925479    ( 0.0000,  0.0000,  0.0000)
  11 Pb    -3.557375    6.158468   18.759189    ( 0.0000,  0.0000,  0.0000)
  12 Pb     3.557673    0.000000   10.000000    ( 0.0000,  0.0000,  0.0000)
  13 Pb     5.336509    1.027012   12.904828    ( 0.0000,  0.0000,  0.0000)
  14 Pb     3.554200    2.048134   15.929267    ( 0.0000,  0.0000,  0.0000)
  15 Pb     3.563920    0.003499   18.759476    ( 0.0000,  0.0000,  0.0000)
  16 Pb     1.778836    3.081035   10.000000    ( 0.0000,  0.0000,  0.0000)
  17 Pb     3.557673    4.108047   12.904828    ( 0.0000,  0.0000,  0.0000)
  18 Pb     1.780110    5.137802   15.931764    ( 0.0000,  0.0000,  0.0000)
  19 Pb     1.781796    3.158632   18.605318    ( 0.0000,  0.0000,  0.0000)
  20 Pb    -0.000000    6.162070   10.000000    ( 0.0000,  0.0000,  0.0000)
  21 Pb     1.778836    7.189082   12.904828    ( 0.0000,  0.0000,  0.0000)
  22 Pb     0.005229    8.214730   15.929478    ( 0.0000,  0.0000,  0.0000)
  23 Pb     0.000872    6.160835   18.758358    ( 0.0000,  0.0000,  0.0000)
  24 Pb     7.115346    0.000000   10.000000    ( 0.0000,  0.0000,  0.0000)
  25 Pb     8.894182    1.027012   12.904828    ( 0.0000,  0.0000,  0.0000)
  26 Pb     7.122342    2.050184   15.932211    ( 0.0000,  0.0000,  0.0000)
  27 Pb     7.113688   -0.001343   18.759344    ( 0.0000,  0.0000,  0.0000)
  28 Pb     5.336509    3.081035   10.000000    ( 0.0000,  0.0000,  0.0000)
  29 Pb     7.115346    4.108047   12.904828    ( 0.0000,  0.0000,  0.0000)
  30 Pb     5.336271    5.143628   15.931883    ( 0.0000,  0.0000,  0.0000)
  31 Pb     5.340353    3.082743   18.755564    ( 0.0000,  0.0000,  0.0000)
  32 Pb     3.557673    6.162070   10.000000    ( 0.0000,  0.0000,  0.0000)
  33 Pb     5.336509    7.189082   12.904828    ( 0.0000,  0.0000,  0.0000)
  34 Pb     3.548942    8.211231   15.919751    ( 0.0000,  0.0000,  0.0000)
  35 Pb     3.556442    6.158896   18.760620    ( 0.0000,  0.0000,  0.0000)
  36 H      1.846034    0.549705   22.163235    ( 0.0000,  0.0000,  0.0000)
  37 O      1.822824    0.095457   21.294783    ( 0.0000,  0.0000,  0.0000)
  38 C      1.817430    1.085298   20.298272    ( 0.0000,  0.0000,  0.0000)
  39 C      1.763585    2.443661   20.734306    ( 0.0000,  0.0000,  0.0000)
  40 O      1.800179    3.103887   21.767240    ( 0.0000,  0.0000,  0.0000)

Unit cell:
           periodic     x           y           z      points  spacing
  1. axis:    yes   10.673019    0.000000    0.000000    52     0.1778
  2. axis:    yes   -5.336509    9.243105    0.000000    52     0.1778
  3. axis:    no     0.000000    0.000000   28.714483   160     0.1795

  Lengths:  10.673019  10.673019  28.714483
  Angles:   90.000000  90.000000 120.000000

Effective grid spacing dv^(1/3) = 0.1871

     iter     time        total  log10-change:
                         energy  eigst   dens
iter:   1 02:20:29 -12893.935398  -1.64
iter:   2 02:21:11 -12893.929061  -2.49  -2.67
iter:   3 02:21:52 -12893.918027c -3.06  -2.81
iter:   4 02:22:33 -12893.882166c -3.01  -2.91
iter:   5 02:23:14 -12893.876733c -3.54  -3.01
iter:   6 02:23:56 -12893.869112c -3.26  -3.19
iter:   7 02:24:37 -12893.869255c -3.65  -3.34
iter:   8 02:25:18 -12893.868626c -4.33  -3.53
iter:   9 02:26:00 -12893.868620c -4.80  -3.68
iter:  10 02:26:41 -12893.868727c -5.08  -3.77
iter:  11 02:27:22 -12893.868645c -5.33  -3.76
iter:  12 02:28:03 -12893.868739c -5.57  -3.88
iter:  13 02:28:45 -12893.868716c -5.90  -4.04c
iter:  14 02:29:26 -12893.868684c -5.98  -4.23c
iter:  15 02:30:07 -12893.868689c -6.41  -4.39c
iter:  16 02:30:49 -12893.868680c -6.66  -4.48c
iter:  17 02:31:30 -12893.868676c -6.91  -4.56c
iter:  18 02:32:11 -12893.868672c -7.12  -4.63c
iter:  19 02:32:53 -12893.868680c -7.31  -4.85c
iter:  20 02:33:34 -12893.868677c -7.54c -4.93c

Converged after 20 iterations.

Dipole moment: (-0.993802, -27.853201, -0.518862) |e|*Ang

Energy contributions relative to reference atoms: (reference = -20428030.132106)

Kinetic:       +1505.778632
Potential:     -1450.263452
External:        +0.000000
XC:            -12946.171447
Entropy (-ST):   -0.620015
Local:           -2.902404
--------------------------
Free energy:   -12894.178684
Extrapolated:  -12893.868677

Showing only first 2 kpts
 Kpt  Band  Eigenvalues  Occupancy
  0   260     -4.41649    1.69492
  0   261     -4.30043    1.27021
  0   262     -4.21636    0.85772
  0   263     -4.11632    0.43275

  1   260     -4.79019    1.99146
  1   261     -4.76003    1.98847
  1   262     -4.66532    1.97054
  1   263     -4.61513    1.95180


Fermi level: -4.24501

No gap

Forces in eV/Ang:
  0 Pb    0.00189   -0.00769    0.13205
  1 Pb    0.00259    0.00627   -0.16658
  2 Pb   -0.10205   -0.04903   -0.05524
  3 Pb    0.02715    0.19652    0.22762
  4 Pb   -0.02122    0.03116    0.11667
  5 Pb    0.00267    0.00681   -0.18937
  6 Pb    0.00299    0.02982    0.04091
  7 Pb   -0.09752    0.04553   -0.02435
  8 Pb   -0.01157   -0.02042    0.08394
  9 Pb   -0.00372    0.00560   -0.13008
 10 Pb    0.01664   -0.01099   -0.00024
 11 Pb    0.00330   -0.03264   -0.01317
 12 Pb    0.01786    0.00431    0.09587
 13 Pb    0.00355   -0.01199   -0.12537
 14 Pb    0.12269   -0.07031   -0.06071
 15 Pb    0.03242    0.16201    0.12822
 16 Pb    0.01303    0.01102    0.11753
 17 Pb    0.02009    0.02032   -0.16182
 18 Pb    0.00421    0.15486   -0.17257
 19 Pb   -0.00875    1.11106   -1.24415
 20 Pb   -0.02990    0.00351    0.12434
 21 Pb    0.01378    0.04920   -0.01789
 22 Pb    0.17711   -0.09206   -0.18924
 23 Pb    0.02231   -0.01019    0.02511
 24 Pb   -0.01835    0.00850    0.13614
 25 Pb   -0.02781   -0.02882   -0.15920
 26 Pb    0.00814   -0.00109    0.06821
 27 Pb    0.00846   -0.07300   -0.02387
 28 Pb   -0.00227    0.03435    0.10707
 29 Pb   -0.02786   -0.00389   -0.12464
 30 Pb    0.00513    0.03073    0.04244
 31 Pb    0.11172    0.04980   -0.03360
 32 Pb    0.03127   -0.02478    0.09140
 33 Pb   -0.01306   -0.03192   -0.13667
 34 Pb   -0.16987   -0.09787   -0.17551
 35 Pb   -0.02747   -0.00253    0.01162
 36 H    -0.02645   -0.36150   -0.24197
 37 O     0.01296    0.06874    1.04631
 38 C    -0.21715    0.09376    0.57723
 39 C     0.22297   -0.68541    0.32000
 40 O    -0.09788   -0.48679   -0.00323

BFGS:    2 02:33:49   -12893.868677        1.6681
System changes: positions 

Initializing position-dependent things.

Density initialized from wave functions
                                                    
                                                    
                                                    
                                                    
                                                    
                                                    
                                                    
                                                    
                      O                             
           Pb       PHC      Pb                     
                    O                               
             Pb      C         Pb                   
                     PPb      Pb                    
               PPb      Pb      PPb                 
                        Pb                          
                                                    
                PPb      PPb      Pb                
                                                    
                   Pb      Pb       Pb              
                                                    
           Pb       PPb      Pb       Pb            
                                                    
              Pb      Pb       Pb                   
                                                    
                Pb      Pb       Pb                 
                                                    
                                                    
                                                    
                                                    

Positions:
   0 Pb     0.000000    0.000000   10.000000    ( 0.0000,  0.0000,  0.0000)
   1 Pb     1.778836    1.027012   12.904828    ( 0.0000,  0.0000,  0.0000)
   2 Pb    -0.005219    2.055343   15.922716    ( 0.0000,  0.0000,  0.0000)
   3 Pb    -0.001492    0.008285   18.742915    ( 0.0000,  0.0000,  0.0000)
   4 Pb    -1.778836    3.081035   10.000000    ( 0.0000,  0.0000,  0.0000)
   5 Pb    -0.000000    4.108047   12.904828    ( 0.0000,  0.0000,  0.0000)
   6 Pb    -1.779505    5.135796   15.937811    ( 0.0000,  0.0000,  0.0000)
   7 Pb    -1.787001    3.085245   18.758574    ( 0.0000,  0.0000,  0.0000)
   8 Pb    -3.557673    6.162070   10.000000    ( 0.0000,  0.0000,  0.0000)
   9 Pb    -1.778836    7.189082   12.904828    ( 0.0000,  0.0000,  0.0000)
  10 Pb    -3.553268    8.213607   15.925497    ( 0.0000,  0.0000,  0.0000)
  11 Pb    -3.557293    6.157570   18.758817    ( 0.0000,  0.0000,  0.0000)
  12 Pb     3.557673    0.000000   10.000000    ( 0.0000,  0.0000,  0.0000)
  13 Pb     5.336509    1.027012   12.904828    ( 0.0000,  0.0000,  0.0000)
  14 Pb     3.557289    2.046355   15.927783    ( 0.0000,  0.0000,  0.0000)
  15 Pb     3.565154    0.007461   18.762233    ( 0.0000,  0.0000,  0.0000)
  16 Pb     1.778836    3.081035   10.000000    ( 0.0000,  0.0000,  0.0000)
  17 Pb     3.557673    4.108047   12.904828    ( 0.0000,  0.0000,  0.0000)
  18 Pb     1.780209    5.141621   15.927549    ( 0.0000,  0.0000,  0.0000)
  19 Pb     1.781681    3.189838   18.565353    ( 0.0000,  0.0000,  0.0000)
  20 Pb    -0.000000    6.162070   10.000000    ( 0.0000,  0.0000,  0.0000)
  21 Pb     1.778836    7.189082   12.904828    ( 0.0000,  0.0000,  0.0000)
  22 Pb     0.009722    8.212383   15.924671    ( 0.0000,  0.0000,  0.0000)
  23 Pb     0.001453    6.160495   18.759016    ( 0.0000,  0.0000,  0.0000)
  24 Pb     7.115346    0.000000   10.000000    ( 0.0000,  0.0000,  0.0000)
  25 Pb     8.894182    1.027012   12.904828    ( 0.0000,  0.0000,  0.0000)
  26 Pb     7.122553    2.050166   15.933916    ( 0.0000,  0.0000,  0.0000)
  27 Pb     7.113907   -0.003201   18.758765    ( 0.0000,  0.0000,  0.0000)
  28 Pb     5.336509    3.081035   10.000000    ( 0.0000,  0.0000,  0.0000)
  29 Pb     7.115346    4.108047   12.904828    ( 0.0000,  0.0000,  0.0000)
  30 Pb     5.336365    5.144405   15.932984    ( 0.0000,  0.0000,  0.0000)
  31 Pb     5.343216    3.084022   18.754724    ( 0.0000,  0.0000,  0.0000)
  32 Pb     3.557673    6.162070   10.000000    ( 0.0000,  0.0000,  0.0000)
  33 Pb     5.336509    7.189082   12.904828    ( 0.0000,  0.0000,  0.0000)
  34 Pb     3.544601    8.208743   15.915289    ( 0.0000,  0.0000,  0.0000)
  35 Pb     3.555727    6.158752   18.760941    ( 0.0000,  0.0000,  0.0000)
  36 H      1.845341    0.540605   22.156909    ( 0.0000,  0.0000,  0.0000)
  37 O      1.823257    0.094058   21.326209    ( 0.0000,  0.0000,  0.0000)
  38 C      1.811713    1.094948   20.309735    ( 0.0000,  0.0000,  0.0000)
  39 C      1.769398    2.419644   20.750502    ( 0.0000,  0.0000,  0.0000)
  40 O      1.797668    3.091411   21.766542    ( 0.0000,  0.0000,  0.0000)

Unit cell:
           periodic     x           y           z      points  spacing
  1. axis:    yes   10.673019    0.000000    0.000000    52     0.1778
  2. axis:    yes   -5.336509    9.243105    0.000000    52     0.1778
  3. axis:    no     0.000000    0.000000   28.714483   160     0.1795

  Lengths:  10.673019  10.673019  28.714483
  Angles:   90.000000  90.000000 120.000000

Effective grid spacing dv^(1/3) = 0.1871

     iter     time        total  log10-change:
                         energy  eigst   dens
iter:   1 02:35:00 -12894.197070  -1.90
iter:   2 02:35:41 -12894.082716  -2.59  -2.33
iter:   3 02:36:23 -12894.012970c -3.17  -2.40
iter:   4 02:37:04 -12893.984404c -3.53  -2.69
iter:   5 02:37:46 -12893.974516c -3.46  -3.11
iter:   6 02:38:27 -12893.970489c -3.44  -3.20
iter:   7 02:39:09 -12893.970416c -3.85  -3.44
iter:   8 02:39:51 -12893.970034c -4.56  -3.51
iter:   9 02:40:32 -12893.970036c -4.63  -3.72
iter:  10 02:41:14 -12893.970023c -5.28  -3.79
iter:  11 02:41:55 -12893.970047c -5.44  -3.94
iter:  12 02:42:37 -12893.970103c -5.81  -4.02c
iter:  13 02:43:18 -12893.970072c -6.60  -4.11c
iter:  14 02:44:00 -12893.970051c -5.78  -4.13c
iter:  15 02:44:41 -12893.970046c -6.29  -4.38c
iter:  16 02:45:23 -12893.970049c -6.83  -4.53c
iter:  17 02:46:04 -12893.970051c -6.92  -4.63c
iter:  18 02:46:46 -12893.970055c -7.22  -4.89c
iter:  19 02:47:27 -12893.970046c -7.53c -4.91c

Converged after 19 iterations.

Dipole moment: (-0.777705, -28.316802, -0.532161) |e|*Ang

Energy contributions relative to reference atoms: (reference = -20428030.132106)

Kinetic:       +1507.129389
Potential:     -1451.248881
External:        +0.000000
XC:            -12946.641877
Entropy (-ST):   -0.620359
Local:           -2.898497
--------------------------
Free energy:   -12894.280225
Extrapolated:  -12893.970046

Showing only first 2 kpts
 Kpt  Band  Eigenvalues  Occupancy
  0   260     -4.42779    1.70211
  0   261     -4.30918    1.27140
  0   262     -4.22068    0.83735
  0   263     -4.13666    0.47429

  1   260     -4.80046    1.99161
  1   261     -4.76979    1.98861
  1   262     -4.66917    1.96916
  1   263     -4.62527    1.95257


Fermi level: -4.25350

No gap

Forces in eV/Ang:
  0 Pb    0.00260   -0.00741    0.13042
  1 Pb    0.00181    0.00974   -0.16520
  2 Pb   -0.10153   -0.04897   -0.05720
  3 Pb    0.06823    0.22479    0.25976
  4 Pb   -0.02033    0.02950    0.11474
  5 Pb    0.00235    0.00517   -0.18723
  6 Pb   -0.00056    0.02960    0.03643
  7 Pb   -0.07586    0.03432   -0.01810
  8 Pb   -0.01104   -0.02001    0.08329
  9 Pb   -0.00334    0.00267   -0.13027
 10 Pb    0.01492   -0.00807    0.00434
 11 Pb    0.00363   -0.02058   -0.00644
 12 Pb    0.01690    0.00355    0.09512
 13 Pb    0.00478   -0.00917   -0.13180
 14 Pb    0.11760   -0.07055   -0.06304
 15 Pb   -0.02539    0.17761    0.17791
 16 Pb    0.01423    0.01305    0.11838
 17 Pb    0.02043    0.01768   -0.16099
 18 Pb    0.00956    0.16886   -0.21178
 19 Pb   -0.03682    0.83069   -0.68447
 20 Pb   -0.03076    0.00396    0.12214
 21 Pb    0.01250    0.04993   -0.03212
 22 Pb    0.16331   -0.07921   -0.17667
 23 Pb    0.01263    0.01079    0.02557
 24 Pb   -0.01822    0.00933    0.13871
 25 Pb   -0.02824   -0.02608   -0.16634
 26 Pb    0.00646   -0.00224    0.06441
 27 Pb    0.00742   -0.06859   -0.02295
 28 Pb   -0.00422    0.03201    0.10413
 29 Pb   -0.02742   -0.00206   -0.12080
 30 Pb    0.00934    0.02785    0.03681
 31 Pb    0.10284    0.04465   -0.02917
 32 Pb    0.03119   -0.02524    0.08954
 33 Pb   -0.01288   -0.03395   -0.13607
 34 Pb   -0.14703   -0.08639   -0.16153
 35 Pb   -0.01562    0.01699    0.01095
 36 H     0.01745    0.46728    1.37246
 37 O    -0.00813   -0.55496   -0.81573
 38 C    -0.13340   -0.74657    0.40042
 39 C     0.15986   -0.20717   -0.04815
 40 O    -0.07955   -0.12814    0.26190

BFGS:    3 02:47:43   -12893.970046        1.4499
System changes: positions 

Initializing position-dependent things.

Density initialized from wave functions
                                                    
                                                    
                                                    
                                                    
                                                    
                                                    
                                                    
                                                    
                      O                             
           Pb       PHC      Pb                     
                    O                               
             Pb      C         Pb                   
             Pb      PPb      Pb                    
                Pb       Pb      Pb                 
               Pb       Pb      Pb                  
                                                    
                PPb      PPb      Pb                
                                                    
                   Pb      Pb       Pb              
                                                    
           Pb       PPb      Pb       Pb            
                                                    
              Pb      Pb       Pb                   
                                                    
                Pb      Pb       Pb                 
                                                    
                                                    
                                                    
                                                    

Positions:
   0 Pb     0.000000    0.000000   10.000000    ( 0.0000,  0.0000,  0.0000)
   1 Pb     1.778836    1.027012   12.904828    ( 0.0000,  0.0000,  0.0000)
   2 Pb    -0.008457    2.053772   15.920954    ( 0.0000,  0.0000,  0.0000)
   3 Pb    -0.000254    0.014938   18.750324    ( 0.0000,  0.0000,  0.0000)
   4 Pb    -1.778836    3.081035   10.000000    ( 0.0000,  0.0000,  0.0000)
   5 Pb    -0.000000    4.108047   12.904828    ( 0.0000,  0.0000,  0.0000)
   6 Pb    -1.779444    5.136739   15.939067    ( 0.0000,  0.0000,  0.0000)
   7 Pb    -1.789807    3.086537   18.757913    ( 0.0000,  0.0000,  0.0000)
   8 Pb    -3.557673    6.162070   10.000000    ( 0.0000,  0.0000,  0.0000)
   9 Pb    -1.778836    7.189082   12.904828    ( 0.0000,  0.0000,  0.0000)
  10 Pb    -3.552762    8.213316   15.925588    ( 0.0000,  0.0000,  0.0000)
  11 Pb    -3.557185    6.156653   18.758471    ( 0.0000,  0.0000,  0.0000)
  12 Pb     3.557673    0.000000   10.000000    ( 0.0000,  0.0000,  0.0000)
  13 Pb     5.336509    1.027012   12.904828    ( 0.0000,  0.0000,  0.0000)
  14 Pb     3.561115    2.044103   15.925844    ( 0.0000,  0.0000,  0.0000)
  15 Pb     3.565636    0.012820   18.766673    ( 0.0000,  0.0000,  0.0000)
  16 Pb     1.778836    3.081035   10.000000    ( 0.0000,  0.0000,  0.0000)
  17 Pb     3.557673    4.108047   12.904828    ( 0.0000,  0.0000,  0.0000)
  18 Pb     1.780427    5.146719   15.921499    ( 0.0000,  0.0000,  0.0000)
  19 Pb     1.780993    3.222675   18.529095    ( 0.0000,  0.0000,  0.0000)
  20 Pb    -0.000000    6.162070   10.000000    ( 0.0000,  0.0000,  0.0000)
  21 Pb     1.778836    7.189082   12.904828    ( 0.0000,  0.0000,  0.0000)
  22 Pb     0.015153    8.209641   15.918831    ( 0.0000,  0.0000,  0.0000)
  23 Pb     0.002008    6.160463   18.759842    ( 0.0000,  0.0000,  0.0000)
  24 Pb     7.115346    0.000000   10.000000    ( 0.0000,  0.0000,  0.0000)
  25 Pb     8.894182    1.027012   12.904828    ( 0.0000,  0.0000,  0.0000)
  26 Pb     7.122790    2.050121   15.936005    ( 0.0000,  0.0000,  0.0000)
  27 Pb     7.114162   -0.005465   18.758046    ( 0.0000,  0.0000,  0.0000)
  28 Pb     5.336509    3.081035   10.000000    ( 0.0000,  0.0000,  0.0000)
  29 Pb     7.115346    4.108047   12.904828    ( 0.0000,  0.0000,  0.0000)
  30 Pb     5.336569    5.145341   15.934268    ( 0.0000,  0.0000,  0.0000)
  31 Pb     5.346650    3.085539   18.753743    ( 0.0000,  0.0000,  0.0000)
  32 Pb     3.557673    6.162070   10.000000    ( 0.0000,  0.0000,  0.0000)
  33 Pb     5.336509    7.189082   12.904828    ( 0.0000,  0.0000,  0.0000)
  34 Pb     3.539524    8.205797   15.909911    ( 0.0000,  0.0000,  0.0000)
  35 Pb     3.555039    6.158941   18.761318    ( 0.0000,  0.0000,  0.0000)
  36 H      1.845133    0.541119   22.172559    ( 0.0000,  0.0000,  0.0000)
  37 O      1.823488    0.084074   21.337512    ( 0.0000,  0.0000,  0.0000)
  38 C      1.806052    1.091081   20.321578    ( 0.0000,  0.0000,  0.0000)
  39 C      1.775453    2.398694   20.756386    ( 0.0000,  0.0000,  0.0000)
  40 O      1.794974    3.083519   21.774006    ( 0.0000,  0.0000,  0.0000)

Unit cell:
           periodic     x           y           z      points  spacing
  1. axis:    yes   10.673019    0.000000    0.000000    52     0.1778
  2. axis:    yes   -5.336509    9.243105    0.000000    52     0.1778
  3. axis:    no     0.000000    0.000000   28.714483   160     0.1795

  Lengths:  10.673019  10.673019  28.714483
  Angles:   90.000000  90.000000 120.000000

Effective grid spacing dv^(1/3) = 0.1871

     iter     time        total  log10-change:
                         energy  eigst   dens
iter:   1 02:48:53 -12894.068723  -2.11
iter:   2 02:49:34 -12894.058149  -2.97  -2.83
iter:   3 02:50:15 -12894.052769c -3.58  -2.88
iter:   4 02:50:57 -12894.049090c -3.93  -3.16
iter:   5 02:51:38 -12894.046752c -3.87  -3.27
iter:   6 02:52:19 -12894.046392c -3.92  -3.42
iter:   7 02:53:00 -12894.046112c -4.94  -3.64
iter:   8 02:53:41 -12894.046149c -5.12  -3.73
iter:   9 02:54:23 -12894.046032c -5.19  -3.78
iter:  10 02:55:04 -12894.046026c -5.45  -3.83
iter:  11 02:55:45 -12894.045998c -5.75  -4.12c
iter:  12 02:56:26 -12894.046024c -6.16  -4.23c
iter:  13 02:57:07 -12894.046041c -6.49  -4.36c
iter:  14 02:57:49 -12894.046051c -6.85  -4.38c
iter:  15 02:58:30 -12894.046045c -7.04  -4.59c
iter:  16 02:59:11 -12894.046049c -7.29  -4.72c
iter:  17 02:59:52 -12894.046046c -7.44c -4.76c

Converged after 17 iterations.

Dipole moment: (-0.779223, -28.675882, -0.549768) |e|*Ang

Energy contributions relative to reference atoms: (reference = -20428030.132106)

Kinetic:       +1505.553801
Potential:     -1450.054150
External:        +0.000000
XC:            -12946.343254
Entropy (-ST):   -0.620809
Local:           -2.892039
--------------------------
Free energy:   -12894.356451
Extrapolated:  -12894.046046

Showing only first 2 kpts
 Kpt  Band  Eigenvalues  Occupancy
  0   260     -4.43955    1.70457
  0   261     -4.31937    1.26869
  0   262     -4.22878    0.82433
  0   263     -4.15334    0.49595

  1   260     -4.81247    1.99171
  1   261     -4.78072    1.98863
  1   262     -4.67575    1.96786
  1   263     -4.63706    1.95304


Fermi level: -4.26428

No gap

Forces in eV/Ang:
  0 Pb    0.00313   -0.00713    0.12733
  1 Pb    0.00112    0.01043   -0.16263
  2 Pb   -0.10312   -0.05407   -0.06495
  3 Pb    0.08600    0.23264    0.25216
  4 Pb   -0.02050    0.02911    0.11242
  5 Pb    0.00002    0.00338   -0.18890
  6 Pb   -0.00449    0.02981    0.03174
  7 Pb   -0.06059    0.02479   -0.01236
  8 Pb   -0.01028   -0.02072    0.08199
  9 Pb   -0.00422    0.00040   -0.13133
 10 Pb    0.01312   -0.00137    0.01230
 11 Pb    0.00378   -0.00540   -0.00124
 12 Pb    0.01636    0.00290    0.09269
 13 Pb    0.00696   -0.00742   -0.13600
 14 Pb    0.11330   -0.07486   -0.07012
 15 Pb   -0.05082    0.16950    0.18205
 16 Pb    0.01517    0.01535    0.11735
 17 Pb    0.02262    0.01535   -0.16388
 18 Pb    0.01586    0.18221   -0.25770
 19 Pb   -0.02397    0.56560   -0.24645
 20 Pb   -0.03129    0.00392    0.11840
 21 Pb    0.01173    0.05343   -0.04742
 22 Pb    0.14178   -0.06039   -0.16264
 23 Pb   -0.00040    0.03491    0.02634
 24 Pb   -0.01847    0.00944    0.13817
 25 Pb   -0.02941   -0.02442   -0.17037
 26 Pb    0.00426   -0.00393    0.05692
 27 Pb    0.00573   -0.06092   -0.02079
 28 Pb   -0.00472    0.03074    0.10104
 29 Pb   -0.02682   -0.00074   -0.11961
 30 Pb    0.01365    0.02494    0.03073
 31 Pb    0.09990    0.04113   -0.02653
 32 Pb    0.03099   -0.02585    0.08626
 33 Pb   -0.01188   -0.03543   -0.13629
 34 Pb   -0.11640   -0.06843   -0.14421
 35 Pb   -0.00061    0.03733    0.01034
 36 H     0.00585    0.21019    0.96432
 37 O    -0.02231   -0.24327   -0.40658
 38 C    -0.08664   -1.14131    0.11871
 39 C     0.12726    0.57394    0.41516
 40 O    -0.06369   -0.38784   -0.32087

BFGS:    4 03:00:08   -12894.046046        1.1507
System changes: positions 

Initializing position-dependent things.

Density initialized from wave functions
                                                    
                                                    
                                                    
                                                    
                                                    
                                                    
                                                    
                                                    
                      O                             
           Pb       PHC      Pb                     
                    O                               
             Pb      C         Pb                   
             Pb      PPb      Pb                    
                Pb       Pb      Pb                 
               Pb       Pb      Pb                  
                                                    
                PPb      PPb      Pb                
                                                    
                   Pb      Pb       Pb              
                                                    
           Pb       PPb      Pb       Pb            
                                                    
              Pb      Pb       Pb                   
                                                    
                Pb      Pb       Pb                 
                                                    
                                                    
                                                    
                                                    

Positions:
   0 Pb     0.000000    0.000000   10.000000    ( 0.0000,  0.0000,  0.0000)
   1 Pb     1.778836    1.027012   12.904828    ( 0.0000,  0.0000,  0.0000)
   2 Pb    -0.016106    2.049934   15.916560    ( 0.0000,  0.0000,  0.0000)
   3 Pb     0.003551    0.031045   18.767807    ( 0.0000,  0.0000,  0.0000)
   4 Pb    -1.778836    3.081035   10.000000    ( 0.0000,  0.0000,  0.0000)
   5 Pb    -0.000000    4.108047   12.904828    ( 0.0000,  0.0000,  0.0000)
   6 Pb    -1.779453    5.138959   15.941832    ( 0.0000,  0.0000,  0.0000)
   7 Pb    -1.795753    3.089194   18.756578    ( 0.0000,  0.0000,  0.0000)
   8 Pb    -3.557673    6.162070   10.000000    ( 0.0000,  0.0000,  0.0000)
   9 Pb    -1.778836    7.189082   12.904828    ( 0.0000,  0.0000,  0.0000)
  10 Pb    -3.551642    8.212849   15.926059    ( 0.0000,  0.0000,  0.0000)
  11 Pb    -3.556923    6.155054   18.757870    ( 0.0000,  0.0000,  0.0000)
  12 Pb     3.557673    0.000000   10.000000    ( 0.0000,  0.0000,  0.0000)
  13 Pb     5.336509    1.027012   12.904828    ( 0.0000,  0.0000,  0.0000)
  14 Pb     3.569937    2.038690   15.921050    ( 0.0000,  0.0000,  0.0000)
  15 Pb     3.565502    0.025320   18.777687    ( 0.0000,  0.0000,  0.0000)
  16 Pb     1.778836    3.081035   10.000000    ( 0.0000,  0.0000,  0.0000)
  17 Pb     3.557673    4.108047   12.904828    ( 0.0000,  0.0000,  0.0000)
  18 Pb     1.781166    5.159208   15.905614    ( 0.0000,  0.0000,  0.0000)
  19 Pb     1.779524    3.288595   18.464376    ( 0.0000,  0.0000,  0.0000)
  20 Pb    -0.000000    6.162070   10.000000    ( 0.0000,  0.0000,  0.0000)
  21 Pb     1.778836    7.189082   12.904828    ( 0.0000,  0.0000,  0.0000)
  22 Pb     0.027153    8.203863   15.905645    ( 0.0000,  0.0000,  0.0000)
  23 Pb     0.002848    6.161282   18.761795    ( 0.0000,  0.0000,  0.0000)
  24 Pb     7.115346    0.000000   10.000000    ( 0.0000,  0.0000,  0.0000)
  25 Pb     8.894182    1.027012   12.904828    ( 0.0000,  0.0000,  0.0000)
  26 Pb     7.123266    2.049956   15.940658    ( 0.0000,  0.0000,  0.0000)
  27 Pb     7.114701   -0.010514   18.756427    ( 0.0000,  0.0000,  0.0000)
  28 Pb     5.336509    3.081035   10.000000    ( 0.0000,  0.0000,  0.0000)
  29 Pb     7.115346    4.108047   12.904828    ( 0.0000,  0.0000,  0.0000)
  30 Pb     5.337217    5.147432   15.937052    ( 0.0000,  0.0000,  0.0000)
  31 Pb     5.354541    3.088947   18.751550    ( 0.0000,  0.0000,  0.0000)
  32 Pb     3.557673    6.162070   10.000000    ( 0.0000,  0.0000,  0.0000)
  33 Pb     5.336509    7.189082   12.904828    ( 0.0000,  0.0000,  0.0000)
  34 Pb     3.528696    8.199503   15.897917    ( 0.0000,  0.0000,  0.0000)
  35 Pb     3.553961    6.160155   18.762169    ( 0.0000,  0.0000,  0.0000)
  36 H      1.844568    0.539467   22.206630    ( 0.0000,  0.0000,  0.0000)
  37 O      1.823465    0.067208   21.363961    ( 0.0000,  0.0000,  0.0000)
  38 C      1.794834    1.062459   20.340453    ( 0.0000,  0.0000,  0.0000)
  39 C      1.788135    2.377804   20.776578    ( 0.0000,  0.0000,  0.0000)
  40 O      1.789326    3.060488   21.777678    ( 0.0000,  0.0000,  0.0000)

Unit cell:
           periodic     x           y           z      points  spacing
  1. axis:    yes   10.673019    0.000000    0.000000    52     0.1778
  2. axis:    yes   -5.336509    9.243105    0.000000    52     0.1778
  3. axis:    no     0.000000    0.000000   28.714483   160     0.1795

  Lengths:  10.673019  10.673019  28.714483
  Angles:   90.000000  90.000000 120.000000

Effective grid spacing dv^(1/3) = 0.1871

     iter     time        total  log10-change:
                         energy  eigst   dens
iter:   1 03:01:18 -12894.189398  -1.59
iter:   2 03:01:59 -12894.179272  -2.49  -2.81
iter:   3 03:02:40 -12894.153776c -2.75  -2.86
iter:   4 03:03:22 -12894.151956c -3.46  -2.99
iter:   5 03:04:04 -12894.147325c -3.84  -2.97
iter:   6 03:04:45 -12894.145572c -3.74  -3.26
iter:   7 03:05:27 -12894.145082c -4.14  -3.36
iter:   8 03:06:08 -12894.145044c -4.38  -3.57
iter:   9 03:06:50 -12894.144983c -5.14  -3.67
iter:  10 03:07:31 -12894.144926c -4.90  -3.73
iter:  11 03:08:13 -12894.145034c -5.17  -3.85
iter:  12 03:08:54 -12894.144977c -5.93  -3.97
iter:  13 03:09:36 -12894.144997c -5.88  -4.05c
iter:  14 03:10:18 -12894.144968c -5.98  -4.10c
iter:  15 03:10:59 -12894.144983c -6.27  -4.20c
iter:  16 03:11:41 -12894.144981c -6.49  -4.34c
iter:  17 03:12:22 -12894.144988c -6.75  -4.54c
iter:  18 03:13:04 -12894.144995c -7.07  -4.74c
iter:  19 03:13:45 -12894.144989c -7.08  -4.74c
iter:  20 03:14:27 -12894.144996c -7.49c -4.82c

Converged after 20 iterations.

Dipole moment: (-0.842939, -29.750645, -0.490221) |e|*Ang

Energy contributions relative to reference atoms: (reference = -20428030.132106)

Kinetic:       +1504.612309
Potential:     -1449.505883
External:        +0.000000
XC:            -12946.058245
Entropy (-ST):   -0.618419
Local:           -2.883967
--------------------------
Free energy:   -12894.454205
Extrapolated:  -12894.144996

Showing only first 2 kpts
 Kpt  Band  Eigenvalues  Occupancy
  0   260     -4.41037    1.71012
  0   261     -4.28565    1.25786
  0   262     -4.19517    0.81362
  0   263     -4.12188    0.49574

  1   260     -4.78471    1.99201
  1   261     -4.74850    1.98854
  1   262     -4.63607    1.96514
  1   263     -4.60833    1.95425


Fermi level: -4.23288

No gap

Forces in eV/Ang:
  0 Pb    0.00171   -0.00680    0.12838
  1 Pb    0.00045    0.01278   -0.15823
  2 Pb   -0.10478   -0.05919   -0.07421
  3 Pb    0.11449    0.23365    0.21677
  4 Pb   -0.02238    0.02816    0.11106
  5 Pb   -0.00055    0.00145   -0.18119
  6 Pb   -0.00237    0.02903    0.02312
  7 Pb   -0.02234    0.01298   -0.00049
  8 Pb   -0.00867   -0.02259    0.08250
  9 Pb   -0.00455   -0.00579   -0.13522
 10 Pb    0.00837    0.01394    0.02854
 11 Pb    0.00303    0.01735    0.00345
 12 Pb    0.01761    0.00203    0.09384
 13 Pb    0.00987   -0.00278   -0.14342
 14 Pb    0.10473   -0.07400   -0.08096
 15 Pb   -0.09522    0.17351    0.17536
 16 Pb    0.01623    0.01878    0.12021
 17 Pb    0.02319    0.01268   -0.15714
 18 Pb    0.02209    0.21538   -0.36246
 19 Pb    0.01046    0.18827    0.36119
 20 Pb   -0.03228    0.00584    0.11557
 21 Pb    0.01015    0.05747   -0.07477
 22 Pb    0.10416   -0.04016   -0.12726
 23 Pb   -0.02976    0.08037    0.02654
 24 Pb   -0.01920    0.00719    0.14430
 25 Pb   -0.02991   -0.01909   -0.17852
 26 Pb    0.00019   -0.00303    0.04097
 27 Pb    0.00501   -0.05009   -0.02514
 28 Pb   -0.00315    0.02882    0.09909
 29 Pb   -0.02610    0.00098   -0.11416
 30 Pb    0.01433    0.01704    0.01578
 31 Pb    0.07942    0.03625   -0.01623
 32 Pb    0.03095   -0.02508    0.08519
 33 Pb   -0.01115   -0.04054   -0.14036
 34 Pb   -0.06487   -0.04274   -0.10219
 35 Pb    0.03171    0.07553    0.00999
 36 H    -0.01069   -0.16500    0.33319
 37 O    -0.00171    0.04538    0.26160
 38 C    -0.00770   -0.71318   -0.07978
 39 C     0.00885    0.00134   -0.48892
 40 O     0.00621    0.01583    0.14940

BFGS:    5 03:14:42   -12894.144996        0.7177
System changes: positions 

Initializing position-dependent things.

Density initialized from wave functions
                                                    
                                                    
                                                    
                                                    
                                                    
                                                    
                                                    
                                                    
                      O                             
           Pb       PHC      Pb                     
                    O                               
             Pb      C         Pb                   
             Pb      PPb      Pb                    
                Pb       Pb      Pb                 
               Pb       Pb      Pb                  
                                                    
                PPb      PPb      Pb                
                                                    
                   Pb      Pb       Pb              
                                                    
           Pb       PPb      Pb       Pb            
                                                    
              Pb      Pb       Pb                   
                                                    
                Pb      Pb       Pb                 
                                                    
                                                    
                                                    
                                                    

Positions:
   0 Pb     0.000000    0.000000   10.000000    ( 0.0000,  0.0000,  0.0000)
   1 Pb     1.778836    1.027012   12.904828    ( 0.0000,  0.0000,  0.0000)
   2 Pb    -0.022472    2.046621   15.912644    ( 0.0000,  0.0000,  0.0000)
   3 Pb     0.007866    0.044634   18.781880    ( 0.0000,  0.0000,  0.0000)
   4 Pb    -1.778836    3.081035   10.000000    ( 0.0000,  0.0000,  0.0000)
   5 Pb    -0.000000    4.108047   12.904828    ( 0.0000,  0.0000,  0.0000)
   6 Pb    -1.779485    5.140780   15.943858    ( 0.0000,  0.0000,  0.0000)
   7 Pb    -1.799594    3.090984   18.755796    ( 0.0000,  0.0000,  0.0000)
   8 Pb    -3.557673    6.162070   10.000000    ( 0.0000,  0.0000,  0.0000)
   9 Pb    -1.778836    7.189082   12.904828    ( 0.0000,  0.0000,  0.0000)
  10 Pb    -3.550843    8.212848   15.926867    ( 0.0000,  0.0000,  0.0000)
  11 Pb    -3.556718    6.154452   18.757579    ( 0.0000,  0.0000,  0.0000)
  12 Pb     3.557673    0.000000   10.000000    ( 0.0000,  0.0000,  0.0000)
  13 Pb     5.336509    1.027012   12.904828    ( 0.0000,  0.0000,  0.0000)
  14 Pb     3.576979    2.034201   15.916774    ( 0.0000,  0.0000,  0.0000)
  15 Pb     3.563664    0.035769   18.787267    ( 0.0000,  0.0000,  0.0000)
  16 Pb     1.778836    3.081035   10.000000    ( 0.0000,  0.0000,  0.0000)
  17 Pb     3.557673    4.108047   12.904828    ( 0.0000,  0.0000,  0.0000)
  18 Pb     1.781993    5.170443   15.889655    ( 0.0000,  0.0000,  0.0000)
  19 Pb     1.778946    3.330445   18.433183    ( 0.0000,  0.0000,  0.0000)
  20 Pb    -0.000000    6.162070   10.000000    ( 0.0000,  0.0000,  0.0000)
  21 Pb     1.778836    7.189082   12.904828    ( 0.0000,  0.0000,  0.0000)
  22 Pb     0.036018    8.199757   15.895680    ( 0.0000,  0.0000,  0.0000)
  23 Pb     0.002768    6.163253   18.763414    ( 0.0000,  0.0000,  0.0000)
  24 Pb     7.115346    0.000000   10.000000    ( 0.0000,  0.0000,  0.0000)
  25 Pb     8.894182    1.027012   12.904828    ( 0.0000,  0.0000,  0.0000)
  26 Pb     7.123544    2.049811   15.944104    ( 0.0000,  0.0000,  0.0000)
  27 Pb     7.115110   -0.014364   18.755005    ( 0.0000,  0.0000,  0.0000)
  28 Pb     5.336509    3.081035   10.000000    ( 0.0000,  0.0000,  0.0000)
  29 Pb     7.115346    4.108047   12.904828    ( 0.0000,  0.0000,  0.0000)
  30 Pb     5.337845    5.148951   15.938945    ( 0.0000,  0.0000,  0.0000)
  31 Pb     5.360556    3.091596   18.749987    ( 0.0000,  0.0000,  0.0000)
  32 Pb     3.557673    6.162070   10.000000    ( 0.0000,  0.0000,  0.0000)
  33 Pb     5.336509    7.189082   12.904828    ( 0.0000,  0.0000,  0.0000)
  34 Pb     3.521233    8.195066   15.889110    ( 0.0000,  0.0000,  0.0000)
  35 Pb     3.553938    6.162261   18.762847    ( 0.0000,  0.0000,  0.0000)
  36 H      1.844005    0.534774   22.231135    ( 0.0000,  0.0000,  0.0000)
  37 O      1.823495    0.058844   21.385196    ( 0.0000,  0.0000,  0.0000)
  38 C      1.788135    1.034935   20.350883    ( 0.0000,  0.0000,  0.0000)
  39 C      1.795589    2.362784   20.777647    ( 0.0000,  0.0000,  0.0000)
  40 O      1.786212    3.047965   21.783624    ( 0.0000,  0.0000,  0.0000)

Unit cell:
           periodic     x           y           z      points  spacing
  1. axis:    yes   10.673019    0.000000    0.000000    52     0.1778
  2. axis:    yes   -5.336509    9.243105    0.000000    52     0.1778
  3. axis:    no     0.000000    0.000000   28.714483   160     0.1795

  Lengths:  10.673019  10.673019  28.714483
  Angles:   90.000000  90.000000 120.000000

Effective grid spacing dv^(1/3) = 0.1871

     iter     time        total  log10-change:
                         energy  eigst   dens
iter:   1 03:15:52 -12894.229260  -1.93
iter:   2 03:16:34 -12894.205394  -2.81  -2.68
iter:   3 03:17:15 -12894.194912c -3.42  -2.74
iter:   4 03:17:56 -12894.186898c -3.72  -2.98
iter:   5 03:18:37 -12894.185406c -3.76  -3.25
iter:   6 03:19:19 -12894.185171c -3.99  -3.37
iter:   7 03:20:00 -12894.185045c -4.73  -3.58
iter:   8 03:20:41 -12894.185226c -5.12  -3.65
iter:   9 03:21:22 -12894.185189c -5.29  -3.67
iter:  10 03:22:03 -12894.185116c -5.45  -3.65
iter:  11 03:22:45 -12894.185102c -6.05  -4.02c
iter:  12 03:23:26 -12894.185131c -6.05  -4.14c
iter:  13 03:24:07 -12894.185144c -6.35  -4.29c
iter:  14 03:24:48 -12894.185143c -6.47  -4.39c
iter:  15 03:25:30 -12894.185135c -6.63  -4.48c
iter:  16 03:26:11 -12894.185132c -7.05  -4.69c
iter:  17 03:26:52 -12894.185132c -7.32  -4.72c
iter:  18 03:27:33 -12894.185128c -7.65c -4.78c

Converged after 18 iterations.

Dipole moment: (-0.933887, -30.860606, -0.483887) |e|*Ang

Energy contributions relative to reference atoms: (reference = -20428030.132106)

Kinetic:       +1503.162598
Potential:     -1448.426823
External:        +0.000000
XC:            -12945.727816
Entropy (-ST):   -0.616607
Local:           -2.884783
--------------------------
Free energy:   -12894.493431
Extrapolated:  -12894.185128

Showing only first 2 kpts
 Kpt  Band  Eigenvalues  Occupancy
  0   260     -4.40818    1.71308
  0   261     -4.27876    1.24148
  0   262     -4.19190    0.81420
  0   263     -4.11570    0.48541

  1   260     -4.78294    1.99213
  1   261     -4.74291    1.98828
  1   262     -4.62905    1.96387
  1   263     -4.60453    1.95406


Fermi level: -4.22949

No gap

Forces in eV/Ang:
  0 Pb    0.00249   -0.00501    0.12845
  1 Pb    0.00045    0.01261   -0.15781
  2 Pb   -0.09486   -0.05586   -0.07192
  3 Pb    0.10233    0.20043    0.18326
  4 Pb   -0.02278    0.02764    0.11052
  5 Pb   -0.00334   -0.00208   -0.18174
  6 Pb   -0.00191    0.02688    0.01912
  7 Pb   -0.00405    0.01082    0.00586
  8 Pb   -0.00753   -0.02277    0.08258
  9 Pb   -0.00616   -0.00805   -0.13555
 10 Pb    0.00626    0.02364    0.04076
 11 Pb    0.00322    0.03447    0.00889
 12 Pb    0.01646    0.00341    0.09443
 13 Pb    0.01132   -0.00154   -0.14739
 14 Pb    0.09544   -0.06779   -0.07994
 15 Pb   -0.09923    0.16194    0.15353
 16 Pb    0.01698    0.01839    0.12362
 17 Pb    0.02572    0.00882   -0.15948
 18 Pb    0.01305    0.21476   -0.38671
 19 Pb    0.01226   -0.05478    0.61791
 20 Pb   -0.03341    0.00592    0.11336
 21 Pb    0.00949    0.06465   -0.09247
 22 Pb    0.06805   -0.02754   -0.09525
 23 Pb   -0.04855    0.11323    0.02532
 24 Pb   -0.01983    0.00705    0.14459
 25 Pb   -0.03006   -0.01735   -0.18107
 26 Pb   -0.00133   -0.00478    0.03070
 27 Pb    0.00380   -0.04079   -0.02519
 28 Pb   -0.00295    0.02748    0.09894
 29 Pb   -0.02518    0.00195   -0.10975
 30 Pb    0.01634    0.01167    0.00800
 31 Pb    0.06481    0.03237   -0.00950
 32 Pb    0.03157   -0.02561    0.08413
 33 Pb   -0.00934   -0.04214   -0.14103
 34 Pb   -0.02693   -0.01832   -0.07737
 35 Pb    0.04936    0.09743    0.00836
 36 H    -0.02202   -0.22334    0.10507
 37 O     0.00041    0.04614    0.49755
 38 C     0.04735   -0.32191   -0.00193
 39 C    -0.06928    0.08670   -0.34052
 40 O     0.02373   -0.26463   -0.30939

BFGS:    6 03:27:49   -12894.185128        0.6205
System changes: positions 

Initializing position-dependent things.

Density initialized from wave functions
                                                    
                                                    
                                                    
                                                    
                                                    
                                                    
                                                    
                                                    
                      O                             
           Pb       PHC      Pb                     
                    O                               
             Pb      C         Pb                   
             Pb      PPb      Pb                    
                Pb       Pb      Pb                 
               Pb       Pb      Pb                  
                                                    
                PPb      PPb      Pb                
                                                    
                   Pb      Pb       Pb              
                                                    
           Pb       PPb      Pb       Pb            
                                                    
              Pb      Pb       Pb                   
                                                    
                Pb      Pb       Pb                 
                                                    
                                                    
                                                    
                                                    

Positions:
   0 Pb     0.000000    0.000000   10.000000    ( 0.0000,  0.0000,  0.0000)
   1 Pb     1.778836    1.027012   12.904828    ( 0.0000,  0.0000,  0.0000)
   2 Pb    -0.030354    2.042397   15.907528    ( 0.0000,  0.0000,  0.0000)
   3 Pb     0.013933    0.061384   18.798861    ( 0.0000,  0.0000,  0.0000)
   4 Pb    -1.778836    3.081035   10.000000    ( 0.0000,  0.0000,  0.0000)
   5 Pb    -0.000000    4.108047   12.904828    ( 0.0000,  0.0000,  0.0000)
   6 Pb    -1.779549    5.143035   15.946159    ( 0.0000,  0.0000,  0.0000)
   7 Pb    -1.803287    3.092915   18.755178    ( 0.0000,  0.0000,  0.0000)
   8 Pb    -3.557673    6.162070   10.000000    ( 0.0000,  0.0000,  0.0000)
   9 Pb    -1.778836    7.189082   12.904828    ( 0.0000,  0.0000,  0.0000)
  10 Pb    -3.549961    8.213333   15.928471    ( 0.0000,  0.0000,  0.0000)
  11 Pb    -3.556457    6.154606   18.757497    ( 0.0000,  0.0000,  0.0000)
  12 Pb     3.557673    0.000000   10.000000    ( 0.0000,  0.0000,  0.0000)
  13 Pb     5.336509    1.027012   12.904828    ( 0.0000,  0.0000,  0.0000)
  14 Pb     3.585541    2.028628   15.911149    ( 0.0000,  0.0000,  0.0000)
  15 Pb     3.559943    0.048905   18.799408    ( 0.0000,  0.0000,  0.0000)
  16 Pb     1.778836    3.081035   10.000000    ( 0.0000,  0.0000,  0.0000)
  17 Pb     3.557673    4.108047   12.904828    ( 0.0000,  0.0000,  0.0000)
  18 Pb     1.782976    5.185342   15.866857    ( 0.0000,  0.0000,  0.0000)
  19 Pb     1.778545    3.368507   18.416525    ( 0.0000,  0.0000,  0.0000)
  20 Pb    -0.000000    6.162070   10.000000    ( 0.0000,  0.0000,  0.0000)
  21 Pb     1.778836    7.189082   12.904828    ( 0.0000,  0.0000,  0.0000)
  22 Pb     0.045699    8.195311   15.884414    ( 0.0000,  0.0000,  0.0000)
  23 Pb     0.001688    6.167457   18.765446    ( 0.0000,  0.0000,  0.0000)
  24 Pb     7.115346    0.000000   10.000000    ( 0.0000,  0.0000,  0.0000)
  25 Pb     8.894182    1.027012   12.904828    ( 0.0000,  0.0000,  0.0000)
  26 Pb     7.123782    2.049571   15.947973    ( 0.0000,  0.0000,  0.0000)
  27 Pb     7.115571   -0.018816   18.753149    ( 0.0000,  0.0000,  0.0000)
  28 Pb     5.336509    3.081035   10.000000    ( 0.0000,  0.0000,  0.0000)
  29 Pb     7.115346    4.108047   12.904828    ( 0.0000,  0.0000,  0.0000)
  30 Pb     5.338771    5.150613   15.940888    ( 0.0000,  0.0000,  0.0000)
  31 Pb     5.367507    3.094746   18.748330    ( 0.0000,  0.0000,  0.0000)
  32 Pb     3.557673    6.162070   10.000000    ( 0.0000,  0.0000,  0.0000)
  33 Pb     5.336509    7.189082   12.904828    ( 0.0000,  0.0000,  0.0000)
  34 Pb     3.513685    8.190544   15.879249    ( 0.0000,  0.0000,  0.0000)
  35 Pb     3.554925    6.166241   18.763650    ( 0.0000,  0.0000,  0.0000)
  36 H      1.843072    0.527548   22.258871    ( 0.0000,  0.0000,  0.0000)
  37 O      1.823524    0.050324   21.412164    ( 0.0000,  0.0000,  0.0000)
  38 C      1.782873    1.003428   20.362300    ( 0.0000,  0.0000,  0.0000)
  39 C      1.801049    2.350324   20.771574    ( 0.0000,  0.0000,  0.0000)
  40 O      1.783707    3.029894   21.781954    ( 0.0000,  0.0000,  0.0000)

Unit cell:
           periodic     x           y           z      points  spacing
  1. axis:    yes   10.673019    0.000000    0.000000    52     0.1778
  2. axis:    yes   -5.336509    9.243105    0.000000    52     0.1778
  3. axis:    no     0.000000    0.000000   28.714483   160     0.1795

  Lengths:  10.673019  10.673019  28.714483
  Angles:   90.000000  90.000000 120.000000

Effective grid spacing dv^(1/3) = 0.1871

     iter     time        total  log10-change:
                         energy  eigst   dens
iter:   1 03:28:59 -12894.244113  -1.90
iter:   2 03:29:40 -12894.238817  -2.80  -2.80
iter:   3 03:30:21 -12894.233341c -3.42  -2.85
iter:   4 03:31:03 -12894.228230c -3.44  -3.09
iter:   5 03:31:44 -12894.227867c -3.96  -3.30
iter:   6 03:32:25 -12894.227890c -4.17  -3.43
iter:   7 03:33:07 -12894.227725c -4.63  -3.57
iter:   8 03:33:48 -12894.227834c -4.79  -3.68
iter:   9 03:34:29 -12894.227792c -5.52  -3.81
iter:  10 03:35:11 -12894.227769c -5.42  -3.96
iter:  11 03:35:52 -12894.227771c -5.90  -4.13c
iter:  12 03:36:33 -12894.227754c -6.49  -4.25c
iter:  13 03:37:15 -12894.227771c -6.88  -4.35c
iter:  14 03:37:56 -12894.227777c -6.58  -4.42c
iter:  15 03:38:37 -12894.227768c -6.79  -4.61c
iter:  16 03:39:18 -12894.227769c -7.37  -4.73c
iter:  17 03:40:00 -12894.227775c -7.27  -4.82c
iter:  18 03:40:41 -12894.227772c -7.90c -5.00c

Converged after 18 iterations.

Dipole moment: (-1.167602, -32.254165, -0.473457) |e|*Ang

Energy contributions relative to reference atoms: (reference = -20428030.132106)

Kinetic:       +1502.363720
Potential:     -1447.864083
External:        +0.000000
XC:            -12945.542091
Entropy (-ST):   -0.614073
Local:           -2.878280
--------------------------
Free energy:   -12894.534809
Extrapolated:  -12894.227772

Showing only first 2 kpts
 Kpt  Band  Eigenvalues  Occupancy
  0   260     -4.40449    1.71767
  0   261     -4.26802    1.21697
  0   262     -4.18835    0.82398
  0   263     -4.10507    0.46706

  1   260     -4.77861    1.99223
  1   261     -4.73435    1.98793
  1   262     -4.62226    1.96344
  1   263     -4.59769    1.95349


Fermi level: -4.22392

No gap

Forces in eV/Ang:
  0 Pb    0.00052   -0.00495    0.12842
  1 Pb    0.00074    0.01135   -0.15640
  2 Pb   -0.06520   -0.04703   -0.05212
  3 Pb    0.07898    0.15546    0.13562
  4 Pb   -0.02547    0.02864    0.10864
  5 Pb   -0.00687   -0.00350   -0.18271
  6 Pb    0.00256    0.02424    0.01549
  7 Pb    0.01472    0.01276    0.01112
  8 Pb   -0.00653   -0.02473    0.08273
  9 Pb   -0.00817   -0.01099   -0.13844
 10 Pb    0.00373    0.03485    0.05639
 11 Pb    0.00273    0.05017    0.01296
 12 Pb    0.01788    0.00335    0.09482
 13 Pb    0.01469   -0.00049   -0.15330
 14 Pb    0.07883   -0.04918   -0.06283
 15 Pb   -0.08905    0.15892    0.12252
 16 Pb    0.01745    0.02039    0.12510
 17 Pb    0.02931    0.00726   -0.16216
 18 Pb    0.00364    0.18379   -0.36704
 19 Pb    0.03460   -0.20626    0.73870
 20 Pb   -0.03348    0.00615    0.11142
 21 Pb    0.00925    0.07058   -0.11647
 22 Pb    0.02501   -0.01481   -0.05489
 23 Pb   -0.07087    0.14964    0.01929
 24 Pb   -0.02030    0.00632    0.14365
 25 Pb   -0.03237   -0.01615   -0.18502
 26 Pb   -0.00186   -0.00565    0.01915
 27 Pb    0.00457   -0.03281   -0.02764
 28 Pb   -0.00020    0.02778    0.09816
 29 Pb   -0.02469    0.00214   -0.10700
 30 Pb    0.01432    0.00665    0.00116
 31 Pb    0.03892    0.02550   -0.00362
 32 Pb    0.03126   -0.02575    0.08387
 33 Pb   -0.00715   -0.04466   -0.14475
 34 Pb    0.02406    0.01163   -0.03969
 35 Pb    0.06780    0.11811    0.00298
 36 H    -0.02379   -0.18236    0.00372
 37 O    -0.02004   -0.04293    0.53789
 38 C     0.09476    0.03405    0.11723
 39 C    -0.13683   -0.03538   -0.42687
 40 O     0.04426   -0.33548   -0.35403

BFGS:    7 03:40:57   -12894.227772        0.7677
System changes: positions 

Initializing position-dependent things.

Density initialized from wave functions
                                                    
                                                    
                                                    
                                                    
                                                    
                                                    
                                                    
                                                    
                      O                             
           Pb       PH       Pb                     
                    O C                             
             Pb      C         Pb                   
             Pb      PPb      Pb                    
                Pb       Pb                         
               Pb       Pb      PPb                 
                                                    
                PPb      PPb      Pb                
                                                    
                   Pb      Pb       Pb              
                                                    
           Pb       PPb      Pb       Pb            
                                                    
[...]
  36 H      1.777035    0.371956   22.573591    ( 0.0000,  0.0000,  0.0000)
  37 O      1.825328   -0.191575   21.783023    ( 0.0000,  0.0000,  0.0000)
  38 C      1.815228    0.628947   20.649205    ( 0.0000,  0.0000,  0.0000)
  39 C      1.783537    2.043324   20.898803    ( 0.0000,  0.0000,  0.0000)
  40 O      1.746727    2.640651   21.966433    ( 0.0000,  0.0000,  0.0000)

Unit cell:
           periodic     x           y           z      points  spacing
  1. axis:    yes   10.673019    0.000000    0.000000    52     0.1778
  2. axis:    yes   -5.336509    9.243105    0.000000    52     0.1778
  3. axis:    no     0.000000    0.000000   28.714483   160     0.1795

  Lengths:  10.673019  10.673019  28.714483
  Angles:   90.000000  90.000000 120.000000

Effective grid spacing dv^(1/3) = 0.1871

     iter     time        total  log10-change:
                         energy  eigst   dens
iter:   1 11:44:59 -12894.601833  -2.46
iter:   2 11:45:40 -12894.588640  -3.30  -2.75
iter:   3 11:46:21 -12894.576553c -3.92  -2.81
iter:   4 11:47:02 -12894.574142c -4.23  -3.23
iter:   5 11:47:43 -12894.573859c -4.55  -3.61
iter:   6 11:48:25 -12894.573794c -4.64  -3.65
iter:   7 11:49:06 -12894.573830c -5.28  -3.96
iter:   8 11:49:47 -12894.573748c -5.45  -4.05c
iter:   9 11:50:28 -12894.573755c -5.52  -4.10c
iter:  10 11:51:09 -12894.573765c -6.19  -4.27c
iter:  11 11:51:50 -12894.573772c -6.66  -4.41c
iter:  12 11:52:31 -12894.573775c -6.47  -4.51c
iter:  13 11:53:12 -12894.573782c -7.05  -4.64c
iter:  14 11:53:53 -12894.573777c -7.11  -4.68c
iter:  15 11:54:34 -12894.573778c -7.78c -5.10c

Converged after 15 iterations.

Dipole moment: (-14.913821, -23.674877, -0.635905) |e|*Ang

Energy contributions relative to reference atoms: (reference = -20428030.132106)

Kinetic:       +1493.198596
Potential:     -1440.455724
External:        +0.000000
XC:            -12944.085547
Entropy (-ST):   -0.605113
Local:           -2.928546
--------------------------
Free energy:   -12894.876334
Extrapolated:  -12894.573778

Showing only first 2 kpts
 Kpt  Band  Eigenvalues  Occupancy
  0   260     -4.46098    1.66263
  0   261     -4.33033    1.14325
  0   262     -4.28419    0.91380
  0   263     -4.18874    0.48928

  1   260     -4.84576    1.99138
  1   261     -4.80529    1.98711
  1   262     -4.70829    1.96635
  1   263     -4.68205    1.95648


Fermi level: -4.30148

No gap

Forces in eV/Ang:
  0 Pb   -0.00761   -0.00997    0.15184
  1 Pb    0.00717    0.01075   -0.09832
  2 Pb   -0.01920   -0.00452   -0.01096
  3 Pb   -0.01767    0.00135   -0.01851
  4 Pb   -0.05245    0.04764    0.10350
  5 Pb   -0.00248   -0.01643   -0.12970
  6 Pb    0.00059   -0.00216   -0.00768
  7 Pb   -0.00554    0.01044    0.00606
  8 Pb    0.00088   -0.03447    0.10333
  9 Pb   -0.03985    0.01530   -0.11834
 10 Pb    0.00889    0.00343   -0.00362
 11 Pb   -0.00630   -0.00071    0.00300
 12 Pb    0.02314    0.00418    0.12467
 13 Pb   -0.00053    0.02220   -0.13368
 14 Pb    0.01632   -0.00232   -0.01289
 15 Pb   -0.00678   -0.00572   -0.00342
 16 Pb    0.01701    0.01845    0.14162
 17 Pb    0.03237   -0.00161   -0.12853
 18 Pb   -0.00441   -0.01245   -0.00690
 19 Pb   -0.00668    0.00466    0.00047
 20 Pb   -0.02916   -0.00383    0.13211
 21 Pb    0.01155    0.04166   -0.07560
 22 Pb   -0.00704   -0.01362   -0.00227
 23 Pb   -0.02712    0.00267    0.00186
 24 Pb   -0.01893    0.02657    0.12967
 25 Pb   -0.01369    0.00950   -0.15226
 26 Pb   -0.00012   -0.00124    0.00822
 27 Pb   -0.00534   -0.01158    0.00287
 28 Pb    0.02311    0.03365    0.11541
 29 Pb   -0.02094    0.01115   -0.10645
 30 Pb    0.00493   -0.00121   -0.00706
 31 Pb   -0.00968   -0.00263    0.00365
 32 Pb    0.02677   -0.02805    0.11668
 33 Pb    0.02095   -0.02542   -0.12874
 34 Pb    0.01650   -0.02821   -0.00320
 35 Pb    0.00907   -0.01741    0.00142
 36 H    -0.00221   -0.01864    0.00099
 37 O     0.01385   -0.04616    0.04160
 38 C     0.00742    0.00329    0.00248
 39 C     0.00638   -0.03293    0.01430
 40 O     0.00117   -0.01818    0.01817

BFGS:   50 11:54:50   -12894.573778        0.0637
System changes: positions 

Initializing position-dependent things.

Density initialized from wave functions
                                                    
                                                    
                                                    
                                                    
                                                    
                                                    
                                                    
                                                    
                      O                             
                    H                               
           Pb       ObC      Pb                     
                     CPb                            
             PPb     Pb       PPb                   
                Pb       Pb                         
               Pb       Pb      PPb                 
                                                    
                PPb      PPb      PPb               
                                                    
                   Pb      Pb       Pb              
                                                    
           Pb       PPb      PPb      Pb            
                                                    
              Pb      Pb       Pb                   
                                                    
                Pb       Pb      Pb                 
                                                    
                                                    
                                                    
                                                    

Positions:
   0 Pb     0.000000    0.000000   10.000000    ( 0.0000,  0.0000,  0.0000)
   1 Pb     1.778836    1.027012   12.904828    ( 0.0000,  0.0000,  0.0000)
   2 Pb     0.036757    2.076502   16.018504    ( 0.0000,  0.0000,  0.0000)
   3 Pb     0.045191    0.084999   18.994071    ( 0.0000,  0.0000,  0.0000)
   4 Pb    -1.778836    3.081035   10.000000    ( 0.0000,  0.0000,  0.0000)
   5 Pb    -0.000000    4.108047   12.904828    ( 0.0000,  0.0000,  0.0000)
   6 Pb    -1.755252    5.181754   15.975509    ( 0.0000,  0.0000,  0.0000)
   7 Pb    -1.777563    3.137768   18.799124    ( 0.0000,  0.0000,  0.0000)
   8 Pb    -3.557673    6.162070   10.000000    ( 0.0000,  0.0000,  0.0000)
   9 Pb    -1.778836    7.189082   12.904828    ( 0.0000,  0.0000,  0.0000)
  10 Pb    -3.543782    8.272468   16.082444    ( 0.0000,  0.0000,  0.0000)
  11 Pb    -3.520389    6.210032   18.812930    ( 0.0000,  0.0000,  0.0000)
  12 Pb     3.557673    0.000000   10.000000    ( 0.0000,  0.0000,  0.0000)
  13 Pb     5.336509    1.027012   12.904828    ( 0.0000,  0.0000,  0.0000)
  14 Pb     3.557182    2.082944   16.014466    ( 0.0000,  0.0000,  0.0000)
  15 Pb     3.578658    0.098979   18.990804    ( 0.0000,  0.0000,  0.0000)
  16 Pb     1.778836    3.081035   10.000000    ( 0.0000,  0.0000,  0.0000)
  17 Pb     3.557673    4.108047   12.904828    ( 0.0000,  0.0000,  0.0000)
  18 Pb     1.793513    5.217953   15.831304    ( 0.0000,  0.0000,  0.0000)
  19 Pb     1.798557    3.304552   18.794280    ( 0.0000,  0.0000,  0.0000)
  20 Pb    -0.000000    6.162070   10.000000    ( 0.0000,  0.0000,  0.0000)
  21 Pb     1.778836    7.189082   12.904828    ( 0.0000,  0.0000,  0.0000)
  22 Pb     0.043078    8.257921   15.858793    ( 0.0000,  0.0000,  0.0000)
  23 Pb     0.031461    6.243247   18.754119    ( 0.0000,  0.0000,  0.0000)
  24 Pb     7.115346    0.000000   10.000000    ( 0.0000,  0.0000,  0.0000)
  25 Pb     8.894182    1.027012   12.904828    ( 0.0000,  0.0000,  0.0000)
  26 Pb     7.145715    2.100829   15.970033    ( 0.0000,  0.0000,  0.0000)
  27 Pb     7.145850    0.050347   18.725883    ( 0.0000,  0.0000,  0.0000)
  28 Pb     5.336509    3.081035   10.000000    ( 0.0000,  0.0000,  0.0000)
  29 Pb     7.115346    4.108047   12.904828    ( 0.0000,  0.0000,  0.0000)
  30 Pb     5.345156    5.180702   15.980167    ( 0.0000,  0.0000,  0.0000)
  31 Pb     5.372939    3.161471   18.783716    ( 0.0000,  0.0000,  0.0000)
  32 Pb     3.557673    6.162070   10.000000    ( 0.0000,  0.0000,  0.0000)
  33 Pb     5.336509    7.189082   12.904828    ( 0.0000,  0.0000,  0.0000)
  34 Pb     3.545607    8.265392   15.853977    ( 0.0000,  0.0000,  0.0000)
  35 Pb     3.577258    6.270013   18.757674    ( 0.0000,  0.0000,  0.0000)
  36 H      1.775933    0.366497   22.577861    ( 0.0000,  0.0000,  0.0000)
  37 O      1.826162   -0.197931   21.788692    ( 0.0000,  0.0000,  0.0000)
  38 C      1.816345    0.622761   20.654836    ( 0.0000,  0.0000,  0.0000)
  39 C      1.782073    2.037057   20.903390    ( 0.0000,  0.0000,  0.0000)
  40 O      1.744860    2.635773   21.970370    ( 0.0000,  0.0000,  0.0000)

Unit cell:
           periodic     x           y           z      points  spacing
  1. axis:    yes   10.673019    0.000000    0.000000    52     0.1778
  2. axis:    yes   -5.336509    9.243105    0.000000    52     0.1778
  3. axis:    no     0.000000    0.000000   28.714483   160     0.1795

  Lengths:  10.673019  10.673019  28.714483
  Angles:   90.000000  90.000000 120.000000

Effective grid spacing dv^(1/3) = 0.1871

     iter     time        total  log10-change:
                         energy  eigst   dens
iter:   1 11:56:00 -12894.575490  -3.22
iter:   2 11:56:41 -12894.574784  -4.15  -3.44
iter:   3 11:57:22 -12894.574421c -4.83  -3.47
iter:   4 11:58:03 -12894.574166c -5.14  -3.76
iter:   5 11:58:44 -12894.574113c -5.23  -3.98
iter:   6 11:59:25 -12894.574079c -5.31  -4.08c
iter:   7 12:00:06 -12894.574052c -6.13  -4.25c
iter:   8 12:00:47 -12894.574080c -6.21  -4.36c
iter:   9 12:01:28 -12894.574069c -6.67  -4.37c
iter:  10 12:02:09 -12894.574077c -6.85  -4.34c
iter:  11 12:02:51 -12894.574072c -7.28  -4.74c
iter:  12 12:03:32 -12894.574070c -7.18  -4.80c
iter:  13 12:04:13 -12894.574074c -7.39  -4.94c
iter:  14 12:04:54 -12894.574075c -7.87c -5.12c

Converged after 14 iterations.

Dipole moment: (-15.120929, -23.580505, -0.637533) |e|*Ang

Energy contributions relative to reference atoms: (reference = -20428030.132106)

Kinetic:       +1493.028950
Potential:     -1440.321600
External:        +0.000000
XC:            -12944.053774
Entropy (-ST):   -0.605221
Local:           -2.925040
--------------------------
Free energy:   -12894.876685
Extrapolated:  -12894.574075

Showing only first 2 kpts
 Kpt  Band  Eigenvalues  Occupancy
  0   260     -4.46145    1.66191
  0   261     -4.33140    1.14492
  0   262     -4.28456    0.91198
  0   263     -4.19022    0.49208

  1   260     -4.84640    1.99138
  1   261     -4.80596    1.98710
  1   262     -4.70945    1.96650
  1   263     -4.68298    1.95657


Fermi level: -4.30221

No gap

Forces in eV/Ang:
  0 Pb   -0.00761   -0.00984    0.15204
  1 Pb    0.00702    0.01023   -0.09747
  2 Pb   -0.02274   -0.00416   -0.00892
  3 Pb   -0.01760    0.00190   -0.01450
  4 Pb   -0.05288    0.04777    0.10273
  5 Pb   -0.00408   -0.01709   -0.12906
  6 Pb    0.00025   -0.00040   -0.01100
  7 Pb   -0.00514    0.01052    0.00647
  8 Pb    0.00104   -0.03457    0.10315
  9 Pb   -0.04004    0.01504   -0.11633
 10 Pb    0.00829    0.00365   -0.00785
 11 Pb   -0.00545   -0.00577    0.00717
 12 Pb    0.02299    0.00443    0.12481
 13 Pb   -0.00007    0.02250   -0.13247
 14 Pb    0.02030   -0.00377   -0.00915
 15 Pb   -0.00471   -0.00762   -0.00294
 16 Pb    0.01698    0.01822    0.14163
 17 Pb    0.03337   -0.00204   -0.12912
 18 Pb   -0.00641   -0.00626    0.00262
 19 Pb   -0.00553    0.00437    0.00310
 20 Pb   -0.02936   -0.00385    0.13184
 21 Pb    0.01158    0.04252   -0.07379
 22 Pb   -0.00767   -0.01319   -0.00451
 23 Pb   -0.02192   -0.00541    0.00104
 24 Pb   -0.01893    0.02712    0.12925
 25 Pb   -0.01404    0.00983   -0.15074
 26 Pb    0.00072   -0.00087    0.00827
 27 Pb   -0.00805   -0.00611    0.00524
 28 Pb    0.02358    0.03303    0.11504
 29 Pb   -0.02026    0.01128   -0.10453
 30 Pb    0.00745   -0.00227   -0.00892
 31 Pb   -0.00966   -0.00168    0.00286
 32 Pb    0.02685   -0.02799    0.11668
 33 Pb    0.02148   -0.02503   -0.12752
 34 Pb    0.01534   -0.02813   -0.00485
 35 Pb    0.00559   -0.02423    0.00147
 36 H    -0.00032   -0.00950    0.02145
 37 O     0.01791   -0.01128   -0.00914
 38 C    -0.00059    0.00177    0.00064
 39 C     0.01372    0.00361    0.01450
 40 O     0.00230   -0.00220   -0.00691

BFGS:   51 12:05:09   -12894.574075        0.0324
Timing:                                      incl.     excl.
-------------------------------------------------------------------
Density initialized from wave functions:    32.652    32.651   0.1% |
 Symmetrize density:                         0.001     0.001   0.0% |
Forces:                                    820.788   820.788   2.2% ||
Hamiltonian:                               247.541     0.007   0.0% |
 Atomic:                                     6.817     0.032   0.0% |
  XC Correction:                             6.785     6.785   0.0% |
 Calculate atomic Hamiltonians:              1.549     1.549   0.0% |
 Communicate:                                0.386     0.386   0.0% |
 Hartree integrate/restrict:                 0.858     0.858   0.0% |
 Initialize Hamiltonian:                     0.000     0.000   0.0% |
 Poisson:                                   13.321     0.649   0.0% |
  Communicate from 1D:                       1.380     1.380   0.0% |
  Communicate from 2D:                       2.277     2.277   0.0% |
  Communicate to 1D:                         0.581     0.581   0.0% |
  Communicate to 2D:                         2.461     2.461   0.0% |
  FFT 1D:                                    2.101     2.101   0.0% |
  FFT 2D:                                    3.872     3.872   0.0% |
 XC 3D grid:                               224.281    58.017   0.2% |
  VdW-DF integral:                         166.265     2.175   0.0% |
   Convolution:                             23.604    23.604   0.1% |
   FFT:                                     13.170    13.170   0.0% |
   gather:                                  44.329    44.329   0.1% |
   hmm1:                                     3.468     3.468   0.0% |
   hmm2:                                     7.577     7.577   0.0% |
   iFFT:                                    13.935    13.935   0.0% |
   potential:                               54.009     1.278   0.0% |
    collect:                                 5.259     5.259   0.0% |
    p1:                                     31.952    31.952   0.1% |
    p2:                                     11.133    11.133   0.0% |
    sum:                                     4.388     4.388   0.0% |
   splines:                                  3.998     3.998   0.0% |
 vbar:                                       0.322     0.322   0.0% |
LCAO initialization:                        21.863     2.153   0.0% |
 LCAO eigensolver:                           3.984     0.003   0.0% |
  Calculate projections:                     0.000     0.000   0.0% |
  DenseAtomicCorrection:                     0.000     0.000   0.0% |
  Distribute overlap matrix:                 3.480     3.480   0.0% |
  Orbital Layouts:                           0.454     0.454   0.0% |
  Potential matrix:                          0.009     0.009   0.0% |
  Sum over cells:                            0.038     0.038   0.0% |
 LCAO to grid:                              15.383    15.383   0.0% |
 Set positions (LCAO WFS):                   0.343     0.188   0.0% |
  Basic WFS set positions:                   0.001     0.001   0.0% |
  Basis functions set positions:             0.000     0.000   0.0% |
  P tci:                                     0.000     0.000   0.0% |
  ST tci:                                    0.111     0.111   0.0% |
  mktci:                                     0.042     0.042   0.0% |
Redistribute:                                0.025     0.025   0.0% |
SCF-cycle:                               35137.414   358.303   1.0% |
 Davidson:                               30743.845  8423.096  22.5% |--------|
  Apply hamiltonian:                      1098.032  1098.032   2.9% ||
  Subspace diag:                          4028.073     0.102   0.0% |
   calc_h_matrix:                         2083.586  1075.017   2.9% ||
    Apply hamiltonian:                    1008.570  1008.570   2.7% ||
   diagonalize:                             46.472    46.472   0.1% |
   rotate_psi:                            1897.913  1897.913   5.1% |-|
  calc. matrices:                        13018.567  7126.671  19.0% |-------|
   Apply hamiltonian:                     5891.896  5891.896  15.7% |-----|
  diagonalize:                             292.478   292.478   0.8% |
  rotate_psi:                             3883.599  3883.599  10.4% |---|
 Density:                                   81.659     0.020   0.0% |
  Atomic density matrices:                   4.181     4.181   0.0% |
  Mix:                                      19.200    19.200   0.1% |
  Multipole moments:                         0.276     0.276   0.0% |
  Pseudo density:                           57.981    57.957   0.2% |
   Symmetrize density:                       0.025     0.025   0.0% |
 Hamiltonian:                             3748.043     0.097   0.0% |
  Atomic:                                  105.129     0.510   0.0% |
   XC Correction:                          104.619   104.619   0.3% |
  Calculate atomic Hamiltonians:            23.565    23.565   0.1% |
  Communicate:                               3.710     3.710   0.0% |
  Hartree integrate/restrict:               13.138    13.138   0.0% |
  Poisson:                                 205.507     9.690   0.0% |
   Communicate from 1D:                     22.105    22.105   0.1% |
   Communicate from 2D:                     35.122    35.122   0.1% |
   Communicate to 1D:                        9.001     9.001   0.0% |
   Communicate to 2D:                       37.992    37.992   0.1% |
   FFT 1D:                                  32.125    32.125   0.1% |
   FFT 2D:                                  59.472    59.472   0.2% |
  XC 3D grid:                             3394.479   886.645   2.4% ||
   VdW-DF integral:                       2507.835    33.164   0.1% |
    Convolution:                           363.479   363.479   1.0% |
    FFT:                                   204.178   204.178   0.5% |
    gather:                                687.843   687.843   1.8% ||
    hmm1:                                   53.959    53.959   0.1% |
    hmm2:                                  117.006   117.006   0.3% |
    iFFT:                                  214.982   214.982   0.6% |
    potential:                             833.218    19.800   0.1% |
     collect:                               81.374    81.374   0.2% |
     p1:                                   491.484   491.484   1.3% ||
     p2:                                   171.935   171.935   0.5% |
     sum:                                   68.625    68.625   0.2% |
    splines:                                 0.005     0.005   0.0% |
  vbar:                                      2.417     2.417   0.0% |
 Orthonormalize:                           205.565     0.009   0.0% |
  calc_s_matrix:                            27.466    27.466   0.1% |
  inverse-cholesky:                        119.171   119.171   0.3% |
  projections:                               0.002     0.002   0.0% |
  rotate_psi_s:                             58.916    58.916   0.2% |
Set symmetry:                                0.002     0.002   0.0% |
Other:                                    1250.276  1250.276   3.3% ||
-------------------------------------------------------------------
Total:                                             37510.561 100.0%

Memory usage: 2.37 GiB
Date: Fri Sep 29 12:05:10 2023
