
  ___ ___ ___ _ _ _  
 |   |   |_  | | | | 
 | | | | | . | | | | 
 |__ |  _|___|_____|  22.8.0
 |___|_|             

User:   s204775@a081.nifl.fysik.dtu.dk
Date:   Fri Sep 29 01:40:11 2023
Arch:   x86_64
Pid:    3716
CWD:    /home/cat/s204775/projects/Bachelor_project/OCCOH_missing_features
Python: 3.10.4
gpaw:   /home/modules/software/GPAW/22.8.0-intel-2022a/lib/python3.10/site-packages/gpaw
_gpaw:  /home/modules/software/GPAW/22.8.0-intel-2022a/lib/python3.10/site-packages/
        _gpaw.cpython-310-x86_64-linux-gnu.so
ase:    /home/modules/software/ASE/3.22.1-intel-2022a/lib/python3.10/site-packages/ase (version 3.22.1)
numpy:  /home/modules/software/SciPy-bundle/2022.05-intel-2022a/lib/python3.10/site-packages/numpy (version 1.22.3)
scipy:  /home/modules/software/SciPy-bundle/2022.05-intel-2022a/lib/python3.10/site-packages/scipy (version 1.8.1)
libxc:  5.2.3
units:  Angstrom and eV
cores: 40
OpenMP: False
OMP_NUM_THREADS: 1

Input parameters:
  basis: dzp
  h: 0.18
  kpts: {size: (4, 4, 1)}
  xc: BEEF-vdW

System changes: positions, numbers, cell, pbc, initial_charges, initial_magmoms 

Initialize ...

species:
  Pd:
    name: Palladium
    id: c3f348c122b85aed3f99c4295cac773c
    Z: 46.0
    valence: 16
    core: 30
    charge: 0.0
    file: /home/modules/software/GPAW-setups/0.9.20000/Pd.PBE.gz
    compensation charges: {type: gauss,
                           rc: 0.38,
                           lmax: 2}
    cutoffs: {filter: 2.38,
              core: 2.28}
    valence states:
      #              energy  rcut
      - 5s(0.00)    -3.315   1.228
      - 4p(6.00)   -51.209   1.360
      - 5p(0.00)    -0.314   1.360
      - 4d(10.00)    -4.047   1.228
      -  s          23.896   1.228
      -  d          23.165   1.228
  
    # LCAO basis set for Pd:
    #   Name: dzp
    #   File: /home/modules/software/GPAW-setups/0.9.20000/Pd.dzp.basis.gz
    #   Number of radial functions: 9
    #   Number of spherical harmonics: 27
    #     l=0, rc=10.0312 Bohr: 5s-sz confined orbital
    #     l=1, rc=3.5312 Bohr: 4p-sz confined orbital
    #     l=1, rc=16.0000 Bohr: 5p-sz confined orbital
    #     l=2, rc=6.2031 Bohr: 4d-sz confined orbital
    #     l=0, rc=6.0156 Bohr: 5s-dz split-valence wave
    #     l=1, rc=2.4062 Bohr: 4p-dz split-valence wave
    #     l=1, rc=9.9375 Bohr: 5p-dz split-valence wave
    #     l=2, rc=3.6719 Bohr: 4d-dz split-valence wave
    #     l=1, rc=10.0312 Bohr: p-type Gaussian polarization
    #   Number of RI-basis functions 0

  H:
    name: Hydrogen
    id: d65de229564ff8ea4db303e23b6d1ecf
    Z: 1.0
    valence: 1
    core: 0
    charge: 0.0
    file: /home/modules/software/GPAW-setups/0.9.20000/H.PBE.gz
    compensation charges: {type: gauss,
                           rc: 0.15,
                           lmax: 2}
    cutoffs: {filter: 0.85,
              core: 0.53}
    valence states:
      #              energy  rcut
      - 1s(1.00)    -6.494   0.476
      -  s          20.717   0.476
      -  p           0.000   0.476
  
    # LCAO basis set for H:
    #   Name: dzp
    #   File: /home/modules/software/GPAW-setups/0.9.20000/H.dzp.basis.gz
    #   Number of radial functions: 3
    #   Number of spherical harmonics: 5
    #     l=0, rc=6.4219 Bohr: 1s-sz confined orbital
    #     l=0, rc=3.6094 Bohr: 1s-dz split-valence wave
    #     l=1, rc=6.4219 Bohr: p-type Gaussian polarization
    #   Number of RI-basis functions 0

  O:
    name: Oxygen
    id: 32ecd46bf208036f09c70b0ec9a88b78
    Z: 8.0
    valence: 6
    core: 2
    charge: 0.0
    file: /home/modules/software/GPAW-setups/0.9.20000/O.PBE.gz
    compensation charges: {type: gauss,
                           rc: 0.21,
                           lmax: 2}
    cutoffs: {filter: 1.17,
              core: 0.83}
    valence states:
      #              energy  rcut
      - 2s(2.00)   -23.961   0.688
      - 2p(4.00)    -9.029   0.598
      -  s           3.251   0.688
      -  p          18.182   0.598
      -  d           0.000   0.619
  
    # LCAO basis set for O:
    #   Name: dzp
    #   File: /home/modules/software/GPAW-setups/0.9.20000/O.dzp.basis.gz
    #   Number of radial functions: 5
    #   Number of spherical harmonics: 13
    #     l=0, rc=4.3438 Bohr: 2s-sz confined orbital
    #     l=1, rc=5.3906 Bohr: 2p-sz confined orbital
    #     l=0, rc=2.2969 Bohr: 2s-dz split-valence wave
    #     l=1, rc=2.8906 Bohr: 2p-dz split-valence wave
    #     l=2, rc=5.3906 Bohr: d-type Gaussian polarization
    #   Number of RI-basis functions 0

  C:
    name: Carbon
    id: 4aa54d4b901d75f77cc0ea3eec22967b
    Z: 6.0
    valence: 4
    core: 2
    charge: 0.0
    file: /home/modules/software/GPAW-setups/0.9.20000/C.PBE.gz
    compensation charges: {type: gauss,
                           rc: 0.20,
                           lmax: 2}
    cutoffs: {filter: 1.14,
              core: 1.14}
    valence states:
      #              energy  rcut
      - 2s(2.00)   -13.751   0.635
      - 2p(2.00)    -5.284   0.635
      -  s          13.461   0.635
      -  p          21.927   0.635
      -  d           0.000   0.635
  
    # LCAO basis set for C:
    #   Name: dzp
    #   File: /home/modules/software/GPAW-setups/0.9.20000/C.dzp.basis.gz
    #   Number of radial functions: 5
    #   Number of spherical harmonics: 13
    #     l=0, rc=5.5469 Bohr: 2s-sz confined orbital
    #     l=1, rc=6.6719 Bohr: 2p-sz confined orbital
    #     l=0, rc=3.0312 Bohr: 2s-dz split-valence wave
    #     l=1, rc=3.7500 Bohr: 2p-dz split-valence wave
    #     l=2, rc=6.6719 Bohr: d-type Gaussian polarization
    #   Number of RI-basis functions 0

Reference energy: -4946339.116847  # eV

Spin-paired calculation

Convergence criteria:
 Maximum [total energy] change in last 3 cyles: 0.0005 eV / electron
 Maximum integral of absolute [dens]ity change: 0.0001 electrons / valence electron
 Maximum integral of absolute [eigenst]ate change: 4e-08 eV^2 / valence electron
 Maximum number of scf [iter]ations: 333
 (Square brackets indicate name in SCF output, whereas a 'c' in
 the SCF output indicates the quantity has converged.)

Symmetries present (total): 1

  ( 1  0  0)
  ( 0  1  0)
  ( 0  0  1)

16 k-points: 4 x 4 x 1 Monkhorst-Pack grid
8 k-points in the irreducible part of the Brillouin zone
       k-points in crystal coordinates                weights
   0:     0.12500000   -0.37500000    0.00000000          2/16
   1:     0.12500000   -0.12500000    0.00000000          2/16
   2:     0.12500000    0.12500000    0.00000000          2/16
   3:     0.12500000    0.37500000    0.00000000          2/16
   4:     0.37500000   -0.37500000    0.00000000          2/16
   5:     0.37500000   -0.12500000    0.00000000          2/16
   6:     0.37500000    0.12500000    0.00000000          2/16
   7:     0.37500000    0.37500000    0.00000000          2/16

Wave functions: Uniform real-space grid
  Kinetic energy operator: 8*3+1=25 point O(h^6) finite-difference Laplacian
  ScaLapack parameters: grid=1x1, blocksize=None
  Wavefunction extrapolation:
    Improved wavefunction reuse through dual PAW basis 

Occupation numbers: Fermi-Dirac:
  width: 0.1000  # eV
 

Eigensolver
   Davidson(niter=2) 

Densities:
  Coarse grid: 40*40*148 grid
  Fine grid: 80*80*296 grid
  Total Charge: 0.000000 

Density mixing:
  Method: separate
  Backend: pulay
  Linear mixing parameter: 0.05
  old densities: 5
  Damping of long wavelength oscillations: 50 

Hamiltonian:
  XC and Coulomb potentials evaluated on a 80*80*296 grid
  Using the BEEF-vdW Exchange-Correlation functional
  Interpolation: tri-quintic (5. degree polynomial)
  Poisson solver: FastPoissonSolver using
    Stencil: 8*3+1=25 point O(h^6) finite-difference Laplacian
    FFT axes: [0, 1]
    FST axes: [2]
 

XC parameters: BEEF-vdW with 2 nearest neighbor stencil

Memory estimate:
  Process memory now: 199.26 MiB
  Calculator: 616.62 MiB
    Density: 60.63 MiB
      Arrays: 9.35 MiB
      Localized functions: 47.74 MiB
      Mixer: 3.54 MiB
    Hamiltonian: 9.64 MiB
      Arrays: 6.12 MiB
      XC: 0.00 MiB
      Poisson: 0.00 MiB
      vbar: 3.53 MiB
    Wavefunctions: 546.35 MiB
      Arrays psit_nG: 257.01 MiB
      Eigensolver: 280.66 MiB
      Projections: 0.78 MiB
      Projectors: 7.90 MiB

Total number of cores used: 40
Parallelization over k-points: 8
Domain decomposition: 1 x 1 x 5

Number of atoms: 41
Number of atomic orbitals: 1029
Number of bands in calculation: 363
Number of valence electrons: 597
Bands to converge: occupied

... initialized

Initializing position-dependent things.

Density initialized from atomic densities
Creating initial wave functions:
  363 bands from LCAO basis set

                                                 
                                                 
                                                 
                                                 
                                                 
                                                 
                                                 
                           O                     
                         H                       
                  Pd     OC     Pd               
                         C                       
            Pd     PPd    PPd     Pd             
              Pd     PPd    PPd     Pd           
                                                 
               PPd    PPd    PPd                 
                                                 
                 Pd     Pd     Pd                
                   Pd     Pd     Pd              
           Pd     Pd     Pd                      
             Pd     Pd     Pd                    
                                                 
               Pd     Pd     Pd                  
                                                 
                                                 
                                                 
                                                 

Positions:
   0 Pd     0.000000    0.000000    9.999999    ( 0.0000,  0.0000,  0.0000)
   1 Pd     1.418446    0.818940   12.316312    ( 0.0000,  0.0000,  0.0000)
   2 Pd    -0.000000    1.637341   14.614319    ( 0.0000,  0.0000,  0.0000)
   3 Pd     2.836318   -0.000221   16.938702    ( 0.0000,  0.0000,  0.0000)
   4 Pd    -1.418446    2.456821    9.999999    ( 0.0000,  0.0000,  0.0000)
   5 Pd    -0.000000    3.275761   12.316312    ( 0.0000,  0.0000,  0.0000)
   6 Pd    -1.417250    4.095392   14.618454    ( 0.0000,  0.0000,  0.0000)
   7 Pd     1.417968    2.456434   16.938702    ( 0.0000,  0.0000,  0.0000)
   8 Pd    -2.836893    4.913642    9.999999    ( 0.0000,  0.0000,  0.0000)
   9 Pd    -1.418446    5.732582   12.316312    ( 0.0000,  0.0000,  0.0000)
  10 Pd    -2.837360    6.551793   14.614319    ( 0.0000,  0.0000,  0.0000)
  11 Pd    -0.000000    4.913642   16.946916    ( 0.0000,  0.0000,  0.0000)
  12 Pd     2.836893    0.000000    9.999999    ( 0.0000,  0.0000,  0.0000)
  13 Pd     4.255339    0.818940   12.316312    ( 0.0000,  0.0000,  0.0000)
  14 Pd     2.837300    1.638116   14.617798    ( 0.0000,  0.0000,  0.0000)
  15 Pd     5.674360   -0.000221   16.938702    ( 0.0000,  0.0000,  0.0000)
  16 Pd     1.418446    2.456821    9.999999    ( 0.0000,  0.0000,  0.0000)
  17 Pd     2.836893    3.275761   12.316312    ( 0.0000,  0.0000,  0.0000)
  18 Pd     1.417250    4.095392   14.618454    ( 0.0000,  0.0000,  0.0000)
  19 Pd     4.255339    2.456821   16.946466    ( 0.0000,  0.0000,  0.0000)
  20 Pd     0.000000    4.913642    9.999999    ( 0.0000,  0.0000,  0.0000)
  21 Pd     1.418446    5.732582   12.316312    ( 0.0000,  0.0000,  0.0000)
  22 Pd    -0.000000    6.550142   14.618454    ( 0.0000,  0.0000,  0.0000)
  23 Pd     2.836989    4.914250   16.938702    ( 0.0000,  0.0000,  0.0000)
  24 Pd     5.673785    0.000000    9.999999    ( 0.0000,  0.0000,  0.0000)
  25 Pd     7.092231    0.818940   12.316312    ( 0.0000,  0.0000,  0.0000)
  26 Pd     5.673378    1.638116   14.617798    ( 0.0000,  0.0000,  0.0000)
  27 Pd     8.510678    0.000000   16.935460    ( 0.0000,  0.0000,  0.0000)
  28 Pd     4.255339    2.456821    9.999999    ( 0.0000,  0.0000,  0.0000)
  29 Pd     5.673785    3.275761   12.316312    ( 0.0000,  0.0000,  0.0000)
  30 Pd     4.255339    4.094232   14.617798    ( 0.0000,  0.0000,  0.0000)
  31 Pd     7.092710    2.456434   16.938702    ( 0.0000,  0.0000,  0.0000)
  32 Pd     2.836893    4.913642    9.999999    ( 0.0000,  0.0000,  0.0000)
  33 Pd     4.255339    5.732582   12.316312    ( 0.0000,  0.0000,  0.0000)
  34 Pd     2.837360    6.551793   14.614319    ( 0.0000,  0.0000,  0.0000)
  35 Pd     5.673689    4.914250   16.938702    ( 0.0000,  0.0000,  0.0000)
  36 H      4.320006   -0.105759   20.283711    ( 0.0000,  0.0000,  0.0000)
  37 O      4.297489   -0.471395   19.491638    ( 0.0000,  0.0000,  0.0000)
  38 C      4.301242    0.395060   18.492545    ( 0.0000,  0.0000,  0.0000)
  39 C      4.227928    1.891028   18.734652    ( 0.0000,  0.0000,  0.0000)
  40 O      4.280481    2.519576   20.018032    ( 0.0000,  0.0000,  0.0000)

Unit cell:
           periodic     x           y           z      points  spacing
  1. axis:    yes    8.510678    0.000000    0.000000    40     0.1843
  2. axis:    yes   -4.255339    7.370463    0.000000    40     0.1843
  3. axis:    no     0.000000    0.000000   26.948937   148     0.1821

  Lengths:   8.510678   8.510678  26.948937
  Angles:   90.000000  90.000000 120.000000

Effective grid spacing dv^(1/3) = 0.1925

     iter     time        total  log10-change:
                         energy  eigst   dens
iter:   1 01:42:17 -5375.100064
iter:   2 01:42:55 -5655.015495  +0.99  -1.03
iter:   3 01:43:34 -5312.519923  -0.39  -0.84
iter:   4 01:44:12 -5284.350834  -0.78  -1.17
iter:   5 01:44:50 -5292.364900  -0.95  -1.29
iter:   6 01:45:29 -5277.136833  -1.10  -1.31
iter:   7 01:46:07 -5274.067069  -0.90  -1.46
iter:   8 01:46:46 -5274.812995  -1.43  -1.69
iter:   9 01:47:24 -5271.271180  -1.96  -1.70
iter:  10 01:48:03 -5271.125301  -1.99  -1.81
iter:  11 01:48:41 -5270.532288  -1.81  -1.91
iter:  12 01:49:20 -5270.366315  -2.14  -2.06
iter:  13 01:49:58 -5270.570319c -2.53  -2.13
iter:  14 01:50:36 -5270.296159c -2.93  -2.17
iter:  15 01:51:15 -5270.119965  -2.72  -2.23
iter:  16 01:51:53 -5270.034950c -2.85  -2.32
iter:  17 01:52:31 -5270.032311c -2.96  -2.47
iter:  18 01:53:10 -5269.991535c -3.42  -2.57
iter:  19 01:53:48 -5269.993335c -3.61  -2.68
iter:  20 01:54:27 -5270.031170c -3.55  -2.77
iter:  21 01:55:05 -5269.995990c -4.00  -2.74
iter:  22 01:55:44 -5269.999938c -4.31  -3.02
iter:  23 01:56:22 -5269.995130c -4.66  -3.00
iter:  24 01:57:00 -5269.992942c -4.55  -3.21
iter:  25 01:57:39 -5269.992062c -4.97  -3.44
iter:  26 01:58:17 -5269.992146c -4.84  -3.58
iter:  27 01:58:56 -5269.992528c -5.31  -3.69
iter:  28 01:59:34 -5269.992363c -5.86  -3.71
iter:  29 02:00:13 -5269.992420c -6.30  -3.84
iter:  30 02:00:51 -5269.992464c -6.36  -3.85
iter:  31 02:01:29 -5269.992449c -5.90  -3.95
iter:  32 02:02:08 -5269.992460c -6.44  -4.13c
iter:  33 02:02:46 -5269.992417c -6.50  -4.15c
iter:  34 02:03:25 -5269.992484c -6.81  -4.33c
iter:  35 02:04:03 -5269.992505c -6.98  -4.31c
iter:  36 02:04:41 -5269.992510c -7.41c -4.53c

Converged after 36 iterations.

Dipole moment: (-4.961543, -6.892063, -0.178692) |e|*Ang

Energy contributions relative to reference atoms: (reference = -4946339.116847)

Kinetic:       +835.515788
Potential:     -934.151865
External:        +0.000000
XC:            -5161.318188
Entropy (-ST):   -2.389364
Local:           -8.843563
--------------------------
Free energy:   -5271.187192
Extrapolated:  -5269.992510

Showing only first 2 kpts
 Kpt  Band  Eigenvalues  Occupancy
  0   296     -5.62622    1.46818
  0   297     -5.59655    1.34468
  0   298     -5.56273    1.18803
  0   299     -5.54834    1.11780

  1   296     -5.68124    1.65434
  1   297     -5.66289    1.59870
  1   298     -5.66041    1.59068
  1   299     -5.63458    1.50019


Fermi level: -5.52467

No gap

Forces in eV/Ang:
  0 Pd    0.00259   -0.00084   -0.00793
  1 Pd   -0.02911   -0.02328   -0.00998
  2 Pd    0.00059   -0.00106    0.01209
  3 Pd    0.37693    0.02616    0.66307
  4 Pd    0.00810    0.00465   -0.02911
  5 Pd    0.00559    0.01336    0.02562
  6 Pd    0.00493   -0.01340   -0.00698
  7 Pd   -0.14294    0.05356    0.00142
  8 Pd    0.00767   -0.00172   -0.02674
  9 Pd    0.00336   -0.00938    0.00499
 10 Pd    0.01787    0.02618    0.10266
 11 Pd   -0.01047   -0.23956   -0.09401
 12 Pd    0.00280    0.00422   -0.01489
 13 Pd   -0.00341    0.00497    0.07531
 14 Pd   -0.06007    0.06160   -0.15830
 15 Pd   -0.24792    0.03113    0.55970
 16 Pd   -0.00838    0.00234   -0.03225
 17 Pd    0.00381    0.00833    0.04083
 18 Pd   -0.00100   -0.01239   -0.00746
 19 Pd   -0.06044    1.13079   -0.79674
 20 Pd   -0.00197   -0.00754   -0.05374
 21 Pd   -0.00100   -0.01257    0.01029
 22 Pd   -0.00034   -0.04624   -0.15779
 23 Pd    0.05308   -0.01716   -0.01245
 24 Pd   -0.00798    0.00520   -0.01466
 25 Pd    0.03022   -0.02241   -0.01604
 26 Pd    0.05400    0.07110   -0.15519
 27 Pd    0.00529   -0.01551   -0.02309
 28 Pd   -0.00164   -0.00434   -0.04541
 29 Pd   -0.00282    0.00895    0.03360
 30 Pd    0.00013    0.01681   -0.02152
 31 Pd    0.13943    0.06272   -0.00722
 32 Pd   -0.00295   -0.00381   -0.02980
 33 Pd    0.00258    0.00774   -0.22128
 34 Pd   -0.02433    0.02808    0.12257
 35 Pd   -0.03848   -0.00825    0.00176
 36 H     0.11917    3.14252    6.18440
 37 O    -0.10993   -3.48975   -5.39938
 38 C    -0.36000    1.43080   -0.87253
 39 C     0.63275    1.09795    7.17465
 40 O    -0.37974   -3.31726   -6.76438

      Step     Time          Energy         fmax
BFGS:    0 02:05:02    -5269.992510        7.5436
System changes: positions 

Initializing position-dependent things.

Density initialized from wave functions
                                                 
                                                 
                                                 
                                                 
                                                 
                                                 
                                                 
                           O                     
                         H                       
                  Pd     OC     Pd               
                         C                       
            Pd     PPd    PPd     Pd             
                      Pd     Pd     Pd           
              Pd     Pd     Pd                   
               PPd    PPd    PPd                 
                                                 
                 Pd     Pd     Pd                
                   Pd     Pd     Pd              
           Pd     Pd     Pd                      
             Pd     Pd     Pd                    
                                                 
               Pd     Pd     Pd                  
                                                 
                                                 
                                                 
                                                 

Positions:
   0 Pd     0.000000    0.000000    9.999999    ( 0.0000,  0.0000,  0.0000)
   1 Pd     1.418446    0.818940   12.316312    ( 0.0000,  0.0000,  0.0000)
   2 Pd     0.000008    1.637326   14.614491    ( 0.0000,  0.0000,  0.0000)
   3 Pd     2.841703    0.000153   16.948174    ( 0.0000,  0.0000,  0.0000)
   4 Pd    -1.418446    2.456821    9.999999    ( 0.0000,  0.0000,  0.0000)
   5 Pd    -0.000000    3.275761   12.316312    ( 0.0000,  0.0000,  0.0000)
   6 Pd    -1.417180    4.095201   14.618355    ( 0.0000,  0.0000,  0.0000)
   7 Pd     1.415926    2.457199   16.938722    ( 0.0000,  0.0000,  0.0000)
   8 Pd    -2.836893    4.913642    9.999999    ( 0.0000,  0.0000,  0.0000)
   9 Pd    -1.418446    5.732582   12.316312    ( 0.0000,  0.0000,  0.0000)
  10 Pd    -2.837105    6.552167   14.615785    ( 0.0000,  0.0000,  0.0000)
  11 Pd    -0.000150    4.910220   16.945573    ( 0.0000,  0.0000,  0.0000)
  12 Pd     2.836893    0.000000    9.999999    ( 0.0000,  0.0000,  0.0000)
  13 Pd     4.255339    0.818940   12.316312    ( 0.0000,  0.0000,  0.0000)
  14 Pd     2.836442    1.638996   14.615537    ( 0.0000,  0.0000,  0.0000)
  15 Pd     5.670818    0.000224   16.946697    ( 0.0000,  0.0000,  0.0000)
  16 Pd     1.418446    2.456821    9.999999    ( 0.0000,  0.0000,  0.0000)
  17 Pd     2.836893    3.275761   12.316312    ( 0.0000,  0.0000,  0.0000)
  18 Pd     1.417236    4.095215   14.618348    ( 0.0000,  0.0000,  0.0000)
  19 Pd     4.254475    2.472975   16.935084    ( 0.0000,  0.0000,  0.0000)
  20 Pd     0.000000    4.913642    9.999999    ( 0.0000,  0.0000,  0.0000)
  21 Pd     1.418446    5.732582   12.316312    ( 0.0000,  0.0000,  0.0000)
  22 Pd    -0.000005    6.549481   14.616200    ( 0.0000,  0.0000,  0.0000)
  23 Pd     2.837747    4.914005   16.938524    ( 0.0000,  0.0000,  0.0000)
  24 Pd     5.673785    0.000000    9.999999    ( 0.0000,  0.0000,  0.0000)
  25 Pd     7.092231    0.818940   12.316312    ( 0.0000,  0.0000,  0.0000)
  26 Pd     5.674149    1.639131   14.615581    ( 0.0000,  0.0000,  0.0000)
  27 Pd     8.510753   -0.000222   16.935130    ( 0.0000,  0.0000,  0.0000)
  28 Pd     4.255339    2.456821    9.999999    ( 0.0000,  0.0000,  0.0000)
  29 Pd     5.673785    3.275761   12.316312    ( 0.0000,  0.0000,  0.0000)
  30 Pd     4.255341    4.094472   14.617491    ( 0.0000,  0.0000,  0.0000)
  31 Pd     7.094701    2.457330   16.938599    ( 0.0000,  0.0000,  0.0000)
  32 Pd     2.836893    4.913642    9.999999    ( 0.0000,  0.0000,  0.0000)
  33 Pd     4.255339    5.732582   12.316312    ( 0.0000,  0.0000,  0.0000)
  34 Pd     2.837013    6.552194   14.616070    ( 0.0000,  0.0000,  0.0000)
  35 Pd     5.673139    4.914132   16.938727    ( 0.0000,  0.0000,  0.0000)
  36 H      4.321708   -0.060866   20.372060    ( 0.0000,  0.0000,  0.0000)
  37 O      4.295919   -0.521249   19.414504    ( 0.0000,  0.0000,  0.0000)
  38 C      4.296099    0.415500   18.480081    ( 0.0000,  0.0000,  0.0000)
  39 C      4.236967    1.906713   18.837147    ( 0.0000,  0.0000,  0.0000)
  40 O      4.275056    2.472186   19.921398    ( 0.0000,  0.0000,  0.0000)

Unit cell:
           periodic     x           y           z      points  spacing
  1. axis:    yes    8.510678    0.000000    0.000000    40     0.1843
  2. axis:    yes   -4.255339    7.370463    0.000000    40     0.1843
  3. axis:    no     0.000000    0.000000   26.948937   148     0.1821

  Lengths:   8.510678   8.510678  26.948937
  Angles:   90.000000  90.000000 120.000000

Effective grid spacing dv^(1/3) = 0.1925

     iter     time        total  log10-change:
                         energy  eigst   dens
iter:   1 02:06:35 -5274.265043  -0.97
iter:   2 02:07:13 -5273.169859  -1.80  -2.28
iter:   3 02:07:52 -5291.849200  -1.49  -2.18
iter:   4 02:08:31 -5273.347967  -2.17  -1.57
iter:   5 02:09:10 -5272.336369  -2.09  -2.03
iter:   6 02:09:49 -5271.593889  -2.39  -2.18
iter:   7 02:10:28 -5271.567854  -2.81  -2.48
iter:   8 02:11:07 -5271.455353c -2.82  -2.45
iter:   9 02:11:46 -5271.314236c -2.89  -2.52
iter:  10 02:12:25 -5271.283461c -3.01  -2.84
iter:  11 02:13:04 -5271.276027c -3.35  -3.05
iter:  12 02:13:43 -5271.271366c -3.73  -3.16
iter:  13 02:14:21 -5271.279061c -3.91  -3.26
iter:  14 02:15:00 -5271.278789c -4.44  -3.09
iter:  15 02:15:39 -5271.269675c -4.79  -3.06
iter:  16 02:16:18 -5271.268757c -4.71  -3.45
iter:  17 02:16:57 -5271.269280c -5.13  -3.64
iter:  18 02:17:36 -5271.269098c -4.57  -3.61
iter:  19 02:18:15 -5271.269046c -5.11  -3.88
iter:  20 02:18:54 -5271.269765c -5.62  -4.01c
iter:  21 02:19:33 -5271.268773c -5.78  -3.64
iter:  22 02:20:11 -5271.268885c -5.94  -4.20c
iter:  23 02:20:50 -5271.268756c -6.17  -4.15c
iter:  24 02:21:29 -5271.268831c -6.67  -4.40c
iter:  25 02:22:08 -5271.268856c -7.05  -4.45c
iter:  26 02:22:47 -5271.268899c -6.74  -4.48c
iter:  27 02:23:26 -5271.268865c -7.17  -4.27c
iter:  28 02:24:05 -5271.268800c -7.29  -4.54c
iter:  29 02:24:44 -5271.268821c -7.56c -4.76c

Converged after 29 iterations.

Dipole moment: (-3.995866, -8.423446, 0.159023) |e|*Ang

Energy contributions relative to reference atoms: (reference = -4946339.116847)

Kinetic:       +835.445858
Potential:     -935.211153
External:        +0.000000
XC:            -5161.466614
Entropy (-ST):   -2.384158
Local:           -8.844833
--------------------------
Free energy:   -5272.460900
Extrapolated:  -5271.268821

Showing only first 2 kpts
 Kpt  Band  Eigenvalues  Occupancy
  0   296     -5.32156    1.47285
  0   297     -5.29015    1.34232
  0   298     -5.25598    1.18375
  0   299     -5.24186    1.11478

  1   296     -5.37425    1.65110
  1   297     -5.35845    1.60322
  1   298     -5.35443    1.59029
  1   299     -5.32888    1.50079


Fermi level: -5.21881

No gap

Forces in eV/Ang:
  0 Pd    0.00243   -0.00144   -0.00809
  1 Pd   -0.02989   -0.02427   -0.00973
  2 Pd    0.00103   -0.00603    0.00721
  3 Pd    0.29581    0.14079    0.54186
  4 Pd    0.00786    0.00419   -0.03075
  5 Pd    0.00561    0.01396    0.02203
  6 Pd    0.00301   -0.01146   -0.00783
  7 Pd   -0.11912    0.04001   -0.00580
  8 Pd    0.00772   -0.00114   -0.02848
  9 Pd    0.00064   -0.01062    0.00269
 10 Pd    0.02600    0.03307    0.10920
 11 Pd   -0.00940   -0.25078   -0.10863
 12 Pd    0.00274    0.00381   -0.01809
 13 Pd   -0.00333    0.00566    0.06581
 14 Pd   -0.05541    0.03326   -0.12597
 15 Pd   -0.16772    0.15684    0.42935
 16 Pd   -0.00799    0.00194   -0.03400
 17 Pd    0.00342    0.01213    0.03294
 18 Pd    0.00019   -0.01049   -0.00771
 19 Pd   -0.06372    0.57761    0.32529
 20 Pd   -0.00174   -0.00696   -0.05705
 21 Pd    0.00189   -0.01414    0.00771
 22 Pd    0.00007   -0.03203   -0.12504
 23 Pd    0.04200   -0.01446   -0.01609
 24 Pd   -0.00788    0.00489   -0.01820
 25 Pd    0.03075   -0.02314   -0.01393
 26 Pd    0.04848    0.04146   -0.12616
 27 Pd    0.00846   -0.01149   -0.01397
 28 Pd   -0.00150   -0.00461   -0.04786
 29 Pd   -0.00226    0.01247    0.02682
 30 Pd   -0.00033    0.03856   -0.04309
 31 Pd    0.11444    0.04839   -0.01219
 32 Pd   -0.00343   -0.00340   -0.03173
 33 Pd    0.00199    0.00586   -0.21176
 34 Pd   -0.02907    0.03133    0.12119
 35 Pd   -0.02857   -0.00395   -0.00385
 36 H    -0.10508   -1.24585   -2.38286
 37 O     0.12616    0.92198    3.76150
 38 C    -0.30666    1.02585   -1.32038
 39 C     0.38645   -0.60689    0.66713
 40 O    -0.24529   -0.88375   -1.35917

BFGS:    1 02:25:04    -5271.268821        3.8749
System changes: positions 

Initializing position-dependent things.

Density initialized from wave functions
                                                 
                                                 
                                                 
                                                 
                                                 
                                                 
                                                 
                           O                     
                         H                       
                  Pd     OC     Pd               
                         C                       
            Pd     PPd    PPd     Pd             
                      Pd     Pd     Pd           
              Pd     Pd     Pd                   
               PPd    PPd    PPd                 
                                                 
                 Pd     Pd     Pd                
                   Pd     Pd     Pd              
           Pd     Pd     Pd                      
             Pd     Pd     Pd                    
                                                 
               Pd     Pd     Pd                  
                                                 
                                                 
                                                 
                                                 

Positions:
   0 Pd     0.000000    0.000000    9.999999    ( 0.0000,  0.0000,  0.0000)
   1 Pd     1.418446    0.818940   12.316312    ( 0.0000,  0.0000,  0.0000)
   2 Pd     0.000023    1.637246   14.614604    ( 0.0000,  0.0000,  0.0000)
   3 Pd     2.846125    0.002015   16.956232    ( 0.0000,  0.0000,  0.0000)
   4 Pd    -1.418446    2.456821    9.999999    ( 0.0000,  0.0000,  0.0000)
   5 Pd    -0.000000    3.275761   12.316312    ( 0.0000,  0.0000,  0.0000)
   6 Pd    -1.417133    4.095031   14.618242    ( 0.0000,  0.0000,  0.0000)
   7 Pd     1.414159    2.457801   16.938649    ( 0.0000,  0.0000,  0.0000)
   8 Pd    -2.836893    4.913642    9.999999    ( 0.0000,  0.0000,  0.0000)
   9 Pd    -1.418446    5.732582   12.316312    ( 0.0000,  0.0000,  0.0000)
  10 Pd    -2.836740    6.552636   14.617360    ( 0.0000,  0.0000,  0.0000)
  11 Pd    -0.000288    4.906597   16.944019    ( 0.0000,  0.0000,  0.0000)
  12 Pd     2.836893    0.000000    9.999999    ( 0.0000,  0.0000,  0.0000)
  13 Pd     4.255339    0.818940   12.316312    ( 0.0000,  0.0000,  0.0000)
  14 Pd     2.835630    1.639524   14.613657    ( 0.0000,  0.0000,  0.0000)
  15 Pd     5.668256    0.002302   16.953137    ( 0.0000,  0.0000,  0.0000)
  16 Pd     1.418446    2.456821    9.999999    ( 0.0000,  0.0000,  0.0000)
  17 Pd     2.836893    3.275761   12.316312    ( 0.0000,  0.0000,  0.0000)
  18 Pd     1.417237    4.095060   14.618236    ( 0.0000,  0.0000,  0.0000)
  19 Pd     4.253556    2.482237   16.938028    ( 0.0000,  0.0000,  0.0000)
  20 Pd     0.000000    4.913642    9.999999    ( 0.0000,  0.0000,  0.0000)
  21 Pd     1.418446    5.732582   12.316312    ( 0.0000,  0.0000,  0.0000)
  22 Pd    -0.000005    6.548994   14.614333    ( 0.0000,  0.0000,  0.0000)
  23 Pd     2.838374    4.913790   16.938296    ( 0.0000,  0.0000,  0.0000)
  24 Pd     5.673785    0.000000    9.999999    ( 0.0000,  0.0000,  0.0000)
  25 Pd     7.092231    0.818940   12.316312    ( 0.0000,  0.0000,  0.0000)
  26 Pd     5.674862    1.639780   14.613703    ( 0.0000,  0.0000,  0.0000)
  27 Pd     8.510871   -0.000395   16.934912    ( 0.0000,  0.0000,  0.0000)
  28 Pd     4.255339    2.456821    9.999999    ( 0.0000,  0.0000,  0.0000)
  29 Pd     5.673785    3.275761   12.316312    ( 0.0000,  0.0000,  0.0000)
  30 Pd     4.255337    4.094997   14.616899    ( 0.0000,  0.0000,  0.0000)
  31 Pd     7.096402    2.458055   16.938429    ( 0.0000,  0.0000,  0.0000)
  32 Pd     2.836893    4.913642    9.999999    ( 0.0000,  0.0000,  0.0000)
  33 Pd     4.255339    5.732582   12.316312    ( 0.0000,  0.0000,  0.0000)
  34 Pd     2.836598    6.552644   14.617831    ( 0.0000,  0.0000,  0.0000)
  35 Pd     5.672709    4.914068   16.938680    ( 0.0000,  0.0000,  0.0000)
  36 H      4.320538   -0.071996   20.351047    ( 0.0000,  0.0000,  0.0000)
  37 O      4.297376   -0.514857   19.454590    ( 0.0000,  0.0000,  0.0000)
  38 C      4.291563    0.431033   18.461623    ( 0.0000,  0.0000,  0.0000)
  39 C      4.242968    1.900605   18.857146    ( 0.0000,  0.0000,  0.0000)
  40 O      4.271282    2.455500   19.893100    ( 0.0000,  0.0000,  0.0000)

Unit cell:
           periodic     x           y           z      points  spacing
  1. axis:    yes    8.510678    0.000000    0.000000    40     0.1843
  2. axis:    yes   -4.255339    7.370463    0.000000    40     0.1843
  3. axis:    no     0.000000    0.000000   26.948937   148     0.1821

  Lengths:   8.510678   8.510678  26.948937
  Angles:   90.000000  90.000000 120.000000

Effective grid spacing dv^(1/3) = 0.1925

     iter     time        total  log10-change:
                         energy  eigst   dens
iter:   1 02:26:36 -5273.171229  -1.75
iter:   2 02:27:15 -5284.114538  -1.61  -2.11
iter:   3 02:27:55 -5272.777176  -1.96  -1.69
iter:   4 02:28:34 -5271.858561  -2.69  -2.20
iter:   5 02:29:13 -5271.667842  -2.71  -2.47
iter:   6 02:29:53 -5271.602875c -3.16  -2.50
iter:   7 02:30:32 -5271.475467c -3.48  -2.58
iter:   8 02:31:11 -5271.466624c -3.41  -3.06
iter:   9 02:31:50 -5271.459773c -3.63  -3.14
iter:  10 02:32:30 -5271.455858c -4.06  -3.27
iter:  11 02:33:09 -5271.454614c -4.42  -3.46
iter:  12 02:33:48 -5271.455924c -4.57  -3.64
iter:  13 02:34:28 -5271.455816c -5.03  -3.45
iter:  14 02:35:07 -5271.453774c -5.08  -3.52
iter:  15 02:35:46 -5271.453614c -5.45  -3.82
iter:  16 02:36:25 -5271.453708c -5.90  -4.06c
iter:  17 02:37:05 -5271.453776c -6.08  -3.96
iter:  18 02:37:44 -5271.453826c -6.23  -4.17c
iter:  19 02:38:23 -5271.453926c -5.90  -4.14c
iter:  20 02:39:03 -5271.453622c -6.50  -3.84
iter:  21 02:39:42 -5271.453558c -6.98  -4.46c
iter:  22 02:40:21 -5271.453571c -7.27  -4.63c
iter:  23 02:41:00 -5271.453582c -7.13  -4.58c
iter:  24 02:41:40 -5271.453617c -7.44c -4.85c

Converged after 24 iterations.

Dipole moment: (-4.209606, -8.071521, 0.186238) |e|*Ang

Energy contributions relative to reference atoms: (reference = -4946339.116847)

Kinetic:       +840.442813
Potential:     -939.174638
External:        +0.000000
XC:            -5162.697953
Entropy (-ST):   -2.383287
Local:           -8.832196
--------------------------
Free energy:   -5272.645260
Extrapolated:  -5271.453617

Showing only first 2 kpts
 Kpt  Band  Eigenvalues  Occupancy
  0   296     -5.29722    1.47421
  0   297     -5.26565    1.34316
  0   298     -5.23124    1.18351
  0   299     -5.21735    1.11565

  1   296     -5.34879    1.64889
  1   297     -5.33435    1.60511
  1   298     -5.32961    1.58987
  1   299     -5.30345    1.49802


Fermi level: -5.19412

No gap

Forces in eV/Ang:
  0 Pd    0.00220   -0.00125   -0.00611
  1 Pd   -0.03171   -0.02659   -0.00735
  2 Pd    0.00056   -0.00894    0.00117
  3 Pd    0.23395    0.13035    0.49304
  4 Pd    0.00799    0.00396   -0.02969
  5 Pd    0.00561    0.01472    0.02076
  6 Pd   -0.00031   -0.00995   -0.01246
  7 Pd   -0.10657    0.03088   -0.00904
  8 Pd    0.00758   -0.00132   -0.02680
  9 Pd   -0.00174   -0.01100    0.00220
 10 Pd    0.03385    0.03826    0.11765
 11 Pd   -0.00740   -0.21517   -0.09207
 12 Pd    0.00250    0.00432   -0.01619
 13 Pd   -0.00323    0.00476    0.05941
 14 Pd   -0.04385    0.02454   -0.09897
 15 Pd   -0.10970    0.14272    0.37827
 16 Pd   -0.00829    0.00187   -0.03305
 17 Pd    0.00255    0.01509    0.02674
 18 Pd    0.00327   -0.00953   -0.01150
 19 Pd   -0.04501    0.50187    0.36487
 20 Pd   -0.00156   -0.00755   -0.05592
 21 Pd    0.00426   -0.01452    0.00623
 22 Pd    0.00001   -0.02048   -0.09712
 23 Pd    0.03104   -0.00551   -0.01359
 24 Pd   -0.00763    0.00536   -0.01660
 25 Pd    0.03259   -0.02557   -0.01090
 26 Pd    0.03809    0.03158   -0.10352
 27 Pd    0.01070   -0.00973   -0.01050
 28 Pd   -0.00118   -0.00492   -0.04650
 29 Pd   -0.00113    0.01562    0.02133
 30 Pd   -0.00071    0.04457   -0.05274
 31 Pd    0.09768    0.03807   -0.01199
 32 Pd   -0.00366   -0.00326   -0.03016
 33 Pd    0.00168    0.00792   -0.20638
 34 Pd   -0.03332    0.03436    0.12087
 35 Pd   -0.02064    0.00402   -0.00280
 36 H    -0.05435   -0.44423   -0.91256
 37 O     0.06389    0.87986    1.11629
 38 C    -0.27307   -0.06180   -0.06967
 39 C     0.25019   -1.90859   -2.47044
 40 O    -0.09889    0.79367    1.78166

BFGS:    2 02:42:00    -5271.453617        3.1318
System changes: positions 

Initializing position-dependent things.

Density initialized from wave functions
                                                 
                                                 
                                                 
                                                 
                                                 
                                                 
                                                 
                           O                     
                         H                       
                  Pd     OC     Pd               
                         C                       
            Pd     PPd    PPd     Pd             
                      Pd     Pd     Pd           
              Pd     Pd     Pd                   
               PPd    PPd    PPd                 
                                                 
                 Pd     Pd     Pd                
                   Pd     Pd     Pd              
           Pd     Pd     Pd                      
             Pd     Pd     Pd                    
                                                 
               Pd     Pd     Pd                  
                                                 
                                                 
                                                 
                                                 

Positions:
   0 Pd     0.000000    0.000000    9.999999    ( 0.0000,  0.0000,  0.0000)
   1 Pd     1.418446    0.818940   12.316312    ( 0.0000,  0.0000,  0.0000)
   2 Pd     0.000037    1.637084   14.614672    ( 0.0000,  0.0000,  0.0000)
   3 Pd     2.851429    0.004692   16.966831    ( 0.0000,  0.0000,  0.0000)
   4 Pd    -1.418446    2.456821    9.999999    ( 0.0000,  0.0000,  0.0000)
   5 Pd    -0.000000    3.275761   12.316312    ( 0.0000,  0.0000,  0.0000)
   6 Pd    -1.417116    4.094814   14.618016    ( 0.0000,  0.0000,  0.0000)
   7 Pd     1.411857    2.458510   16.938489    ( 0.0000,  0.0000,  0.0000)
   8 Pd    -2.836893    4.913642    9.999999    ( 0.0000,  0.0000,  0.0000)
   9 Pd    -1.418446    5.732582   12.316312    ( 0.0000,  0.0000,  0.0000)
  10 Pd    -2.836099    6.553387   14.619730    ( 0.0000,  0.0000,  0.0000)
  11 Pd    -0.000455    4.901924   16.942018    ( 0.0000,  0.0000,  0.0000)
  12 Pd     2.836893    0.000000    9.999999    ( 0.0000,  0.0000,  0.0000)
  13 Pd     4.255339    0.818940   12.316312    ( 0.0000,  0.0000,  0.0000)
  14 Pd     2.834644    1.640109   14.611409    ( 0.0000,  0.0000,  0.0000)
  15 Pd     5.665545    0.005250   16.961386    ( 0.0000,  0.0000,  0.0000)
  16 Pd     1.418446    2.456821    9.999999    ( 0.0000,  0.0000,  0.0000)
  17 Pd     2.836893    3.275761   12.316312    ( 0.0000,  0.0000,  0.0000)
  18 Pd     1.417283    4.094855   14.618024    ( 0.0000,  0.0000,  0.0000)
  19 Pd     4.252504    2.493518   16.944467    ( 0.0000,  0.0000,  0.0000)
  20 Pd     0.000000    4.913642    9.999999    ( 0.0000,  0.0000,  0.0000)
  21 Pd     1.418446    5.732582   12.316312    ( 0.0000,  0.0000,  0.0000)
  22 Pd    -0.000004    6.548484   14.612117    ( 0.0000,  0.0000,  0.0000)
  23 Pd     2.839097    4.913615   16.938001    ( 0.0000,  0.0000,  0.0000)
  24 Pd     5.673785    0.000000    9.999999    ( 0.0000,  0.0000,  0.0000)
  25 Pd     7.092231    0.818940   12.316312    ( 0.0000,  0.0000,  0.0000)
  26 Pd     5.675722    1.640520   14.611393    ( 0.0000,  0.0000,  0.0000)
  27 Pd     8.511075   -0.000611   16.934666    ( 0.0000,  0.0000,  0.0000)
  28 Pd     4.255339    2.456821    9.999999    ( 0.0000,  0.0000,  0.0000)
  29 Pd     5.673785    3.275761   12.316312    ( 0.0000,  0.0000,  0.0000)
  30 Pd     4.255325    4.095861   14.615890    ( 0.0000,  0.0000,  0.0000)
  31 Pd     7.098550    2.458920   16.938184    ( 0.0000,  0.0000,  0.0000)
  32 Pd     2.836893    4.913642    9.999999    ( 0.0000,  0.0000,  0.0000)
  33 Pd     4.255339    5.732582   12.316312    ( 0.0000,  0.0000,  0.0000)
  34 Pd     2.835942    6.553331   14.620331    ( 0.0000,  0.0000,  0.0000)
  35 Pd     5.672222    4.914095   16.938619    ( 0.0000,  0.0000,  0.0000)
  36 H      4.319246   -0.083226   20.328816    ( 0.0000,  0.0000,  0.0000)
  37 O      4.298933   -0.499687   19.488385    ( 0.0000,  0.0000,  0.0000)
  38 C      4.285660    0.437277   18.452216    ( 0.0000,  0.0000,  0.0000)
  39 C      4.249223    1.871089   18.831784    ( 0.0000,  0.0000,  0.0000)
  40 O      4.268168    2.458950   19.905034    ( 0.0000,  0.0000,  0.0000)

Unit cell:
           periodic     x           y           z      points  spacing
  1. axis:    yes    8.510678    0.000000    0.000000    40     0.1843
  2. axis:    yes   -4.255339    7.370463    0.000000    40     0.1843
  3. axis:    no     0.000000    0.000000   26.948937   148     0.1821

  Lengths:   8.510678   8.510678  26.948937
  Angles:   90.000000  90.000000 120.000000

Effective grid spacing dv^(1/3) = 0.1925

     iter     time        total  log10-change:
                         energy  eigst   dens
iter:   1 02:43:32 -5271.687524  -1.85
iter:   2 02:44:11 -5272.088486  -2.62  -2.72
iter:   3 02:44:51 -5272.005217  -2.83  -2.29
iter:   4 02:45:30 -5271.548509  -2.94  -2.32
iter:   5 02:46:09 -5271.539996  -3.68  -2.93
iter:   6 02:46:48 -5271.519405c -3.84  -2.91
iter:   7 02:47:27 -5271.505599c -3.68  -3.06
iter:   8 02:48:07 -5271.505455c -4.03  -3.31
iter:   9 02:48:46 -5271.544203c -4.00  -3.24
iter:  10 02:49:25 -5271.500977c -4.11  -2.82
iter:  11 02:50:04 -5271.500099c -4.47  -3.68
iter:  12 02:50:44 -5271.499373c -4.89  -3.83
iter:  13 02:51:23 -5271.499531c -5.38  -3.91
iter:  14 02:52:02 -5271.499257c -5.64  -3.89
iter:  15 02:52:41 -5271.499724c -5.76  -3.97
iter:  16 02:53:20 -5271.499454c -6.15  -3.85
iter:  17 02:54:00 -5271.499525c -6.36  -3.92
iter:  18 02:54:39 -5271.499557c -6.35  -4.32c
iter:  19 02:55:18 -5271.499390c -6.43  -4.48c
iter:  20 02:55:57 -5271.499413c -7.11  -4.64c
iter:  21 02:56:36 -5271.499388c -7.47c -4.75c

Converged after 21 iterations.

Dipole moment: (-4.535487, -7.706477, 0.057309) |e|*Ang

Energy contributions relative to reference atoms: (reference = -4946339.116847)

Kinetic:       +839.313220
Potential:     -938.046275
External:        +0.000000
XC:            -5162.728817
Entropy (-ST):   -2.385753
Local:           -8.844641
--------------------------
Free energy:   -5272.692264
Extrapolated:  -5271.499388

Showing only first 2 kpts
 Kpt  Band  Eigenvalues  Occupancy
  0   296     -5.41365    1.47327
  0   297     -5.38259    1.34431
  0   298     -5.34790    1.18342
  0   299     -5.33439    1.11743

  1   296     -5.46575    1.64969
  1   297     -5.45099    1.60498
  1   298     -5.44647    1.59046
  1   299     -5.41987    1.49706


Fermi level: -5.31079

No gap

Forces in eV/Ang:
  0 Pd    0.00233    0.00020   -0.00320
  1 Pd   -0.03309   -0.02944   -0.00662
  2 Pd   -0.00028   -0.00936   -0.00543
  3 Pd    0.14310    0.09761    0.37750
  4 Pd    0.00817    0.00458   -0.02931
  5 Pd    0.00568    0.01413    0.01971
  6 Pd   -0.00359   -0.00547   -0.01609
  7 Pd   -0.08724    0.01862   -0.01809
  8 Pd    0.00769   -0.00211   -0.02515
  9 Pd   -0.00583   -0.01058    0.00236
 10 Pd    0.04013    0.03993    0.11812
 11 Pd   -0.00496   -0.17243   -0.08659
 12 Pd    0.00243    0.00488   -0.01426
 13 Pd   -0.00340    0.00493    0.05407
 14 Pd   -0.03079    0.01869   -0.06847
 15 Pd   -0.05006    0.10690    0.27983
 16 Pd   -0.00876    0.00252   -0.03284
 17 Pd    0.00324    0.01790    0.02172
 18 Pd    0.00622   -0.00590   -0.01470
 19 Pd   -0.02081    0.47889    0.18857
 20 Pd   -0.00143   -0.00867   -0.05543
 21 Pd    0.00849   -0.01408    0.00505
 22 Pd    0.00004   -0.00828   -0.05914
 23 Pd    0.01278    0.01654   -0.01942
 24 Pd   -0.00771    0.00584   -0.01492
 25 Pd    0.03410   -0.02856   -0.00986
 26 Pd    0.02677    0.02456   -0.07669
 27 Pd    0.01302   -0.00849   -0.00922
 28 Pd   -0.00102   -0.00522   -0.04546
 29 Pd   -0.00184    0.01864    0.01703
 30 Pd   -0.00018    0.04103   -0.04910
 31 Pd    0.07417    0.02546   -0.01830
 32 Pd   -0.00398   -0.00389   -0.02883
 33 Pd    0.00152    0.01483   -0.20531
 34 Pd   -0.03504    0.03468    0.11174
 35 Pd   -0.00630    0.02370   -0.01075
 36 H     0.01899    0.99864    1.59855
 37 O    -0.02969   -0.34295   -2.05377
 38 C    -0.18736   -0.62577    0.70622
 39 C     0.21844    0.20085    0.81616
 40 O    -0.13225   -0.90307   -1.37265

BFGS:    3 02:56:56    -5271.499388        2.0824
System changes: positions 

Initializing position-dependent things.

Density initialized from wave functions
                                                 
                                                 
                                                 
                                                 
                                                 
                                                 
                                                 
                           O                     
                         H                       
                  Pd     OC     Pd               
                         C                       
            Pd     PPd    PPd     Pd             
                      Pd     Pd     Pd           
              Pd     Pd     Pd                   
               PPd    PPd    PPd                 
                                                 
                 Pd     Pd     Pd                
                   Pd     Pd     Pd              
           Pd     Pd     Pd                      
             Pd     Pd     Pd                    
                                                 
               Pd     Pd     Pd                  
                                                 
                                                 
                                                 
                                                 

Positions:
   0 Pd     0.000000    0.000000    9.999999    ( 0.0000,  0.0000,  0.0000)
   1 Pd     1.418446    0.818940   12.316312    ( 0.0000,  0.0000,  0.0000)
   2 Pd     0.000034    1.637002   14.614617    ( 0.0000,  0.0000,  0.0000)
   3 Pd     2.852515    0.005522   16.969868    ( 0.0000,  0.0000,  0.0000)
   4 Pd    -1.418446    2.456821    9.999999    ( 0.0000,  0.0000,  0.0000)
   5 Pd    -0.000000    3.275761   12.316312    ( 0.0000,  0.0000,  0.0000)
   6 Pd    -1.417151    4.094772   14.617876    ( 0.0000,  0.0000,  0.0000)
   7 Pd     1.411152    2.458649   16.938330    ( 0.0000,  0.0000,  0.0000)
   8 Pd    -2.836893    4.913642    9.999999    ( 0.0000,  0.0000,  0.0000)
   9 Pd    -1.418446    5.732582   12.316312    ( 0.0000,  0.0000,  0.0000)
  10 Pd    -2.835752    6.553728   14.620727    ( 0.0000,  0.0000,  0.0000)
  11 Pd    -0.000493    4.900526   16.941307    ( 0.0000,  0.0000,  0.0000)
  12 Pd     2.836893    0.000000    9.999999    ( 0.0000,  0.0000,  0.0000)
  13 Pd     4.255339    0.818940   12.316312    ( 0.0000,  0.0000,  0.0000)
  14 Pd     2.834403    1.640247   14.610881    ( 0.0000,  0.0000,  0.0000)
  15 Pd     5.665223    0.006157   16.963608    ( 0.0000,  0.0000,  0.0000)
  16 Pd     1.418446    2.456821    9.999999    ( 0.0000,  0.0000,  0.0000)
  17 Pd     2.836893    3.275761   12.316312    ( 0.0000,  0.0000,  0.0000)
  18 Pd     1.417339    4.094808   14.617897    ( 0.0000,  0.0000,  0.0000)
  19 Pd     4.252354    2.497279   16.946359    ( 0.0000,  0.0000,  0.0000)
  20 Pd     0.000000    4.913642    9.999999    ( 0.0000,  0.0000,  0.0000)
  21 Pd     1.418446    5.732582   12.316312    ( 0.0000,  0.0000,  0.0000)
  22 Pd    -0.000004    6.548433   14.611671    ( 0.0000,  0.0000,  0.0000)
  23 Pd     2.839184    4.913770   16.937838    ( 0.0000,  0.0000,  0.0000)
  24 Pd     5.673785    0.000000    9.999999    ( 0.0000,  0.0000,  0.0000)
  25 Pd     7.092231    0.818940   12.316312    ( 0.0000,  0.0000,  0.0000)
  26 Pd     5.675931    1.640706   14.610790    ( 0.0000,  0.0000,  0.0000)
  27 Pd     8.511187   -0.000678   16.934595    ( 0.0000,  0.0000,  0.0000)
  28 Pd     4.255339    2.456821    9.999999    ( 0.0000,  0.0000,  0.0000)
  29 Pd     5.673785    3.275761   12.316312    ( 0.0000,  0.0000,  0.0000)
  30 Pd     4.255323    4.096215   14.615466    ( 0.0000,  0.0000,  0.0000)
  31 Pd     7.099140    2.459115   16.938028    ( 0.0000,  0.0000,  0.0000)
  32 Pd     2.836893    4.913642    9.999999    ( 0.0000,  0.0000,  0.0000)
  33 Pd     4.255339    5.732582   12.316312    ( 0.0000,  0.0000,  0.0000)
  34 Pd     2.835643    6.553624   14.621261    ( 0.0000,  0.0000,  0.0000)
  35 Pd     5.672184    4.914308   16.938526    ( 0.0000,  0.0000,  0.0000)
  36 H      4.319407   -0.075006   20.341744    ( 0.0000,  0.0000,  0.0000)
  37 O      4.298669   -0.501664   19.470558    ( 0.0000,  0.0000,  0.0000)
  38 C      4.284168    0.430761   18.459364    ( 0.0000,  0.0000,  0.0000)
  39 C      4.250842    1.871775   18.834901    ( 0.0000,  0.0000,  0.0000)
  40 O      4.267224    2.453087   19.896979    ( 0.0000,  0.0000,  0.0000)

Unit cell:
           periodic     x           y           z      points  spacing
  1. axis:    yes    8.510678    0.000000    0.000000    40     0.1843
  2. axis:    yes   -4.255339    7.370463    0.000000    40     0.1843
  3. axis:    no     0.000000    0.000000   26.948937   148     0.1821

  Lengths:   8.510678   8.510678  26.948937
  Angles:   90.000000  90.000000 120.000000

Effective grid spacing dv^(1/3) = 0.1925

     iter     time        total  log10-change:
                         energy  eigst   dens
iter:   1 02:58:28 -5271.640519  -2.64
iter:   2 02:59:07 -5272.601904  -2.86  -2.75
iter:   3 02:59:46 -5271.610567  -3.19  -2.18
iter:   4 03:00:26 -5271.583881  -3.91  -2.86
iter:   5 03:01:05 -5271.565002c -4.12  -3.07
iter:   6 03:01:44 -5271.562058c -4.35  -3.36
iter:   7 03:02:23 -5271.560875c -4.17  -3.53
iter:   8 03:03:02 -5271.561082c -4.68  -3.83
iter:   9 03:03:41 -5271.561686c -5.08  -3.66
iter:  10 03:04:20 -5271.560291c -5.42  -3.60
iter:  11 03:04:59 -5271.560257c -5.91  -4.07c
iter:  12 03:05:38 -5271.560310c -6.33  -4.37c
iter:  13 03:06:17 -5271.560252c -6.26  -4.25c
iter:  14 03:06:56 -5271.560277c -6.59  -4.43c
iter:  15 03:07:36 -5271.560258c -7.05  -4.59c
iter:  16 03:08:15 -5271.560256c -7.08  -4.70c
iter:  17 03:08:54 -5271.560321c -7.28  -4.77c
iter:  18 03:09:33 -5271.560255c -7.41c -4.35c

Converged after 18 iterations.

Dipole moment: (-4.366222, -8.036535, 0.109874) |e|*Ang

Energy contributions relative to reference atoms: (reference = -4946339.116847)

Kinetic:       +839.628755
Potential:     -938.402484
External:        +0.000000
XC:            -5162.752450
Entropy (-ST):   -2.383802
Local:           -8.842176
--------------------------
Free energy:   -5272.752156
Extrapolated:  -5271.560255

Showing only first 2 kpts
 Kpt  Band  Eigenvalues  Occupancy
  0   296     -5.36603    1.47369
  0   297     -5.33480    1.34402
  0   298     -5.30014    1.18324
  0   299     -5.28649    1.11656

  1   296     -5.41808    1.64985
  1   297     -5.40335    1.60527
  1   298     -5.39885    1.59082
  1   299     -5.37215    1.49706


Fermi level: -5.26307

No gap

Forces in eV/Ang:
  0 Pd    0.00231    0.00028   -0.00319
  1 Pd   -0.03351   -0.03042   -0.00721
  2 Pd   -0.00042   -0.00891   -0.00395
  3 Pd    0.13680    0.09089    0.35459
  4 Pd    0.00811    0.00445   -0.02936
  5 Pd    0.00564    0.01405    0.01875
  6 Pd   -0.00452   -0.00618   -0.01823
  7 Pd   -0.08300    0.01545   -0.01733
  8 Pd    0.00754   -0.00201   -0.02519
  9 Pd   -0.00691   -0.01044    0.00249
 10 Pd    0.03818    0.03993    0.11292
 11 Pd   -0.00463   -0.15585   -0.08209
 12 Pd    0.00241    0.00479   -0.01479
 13 Pd   -0.00337    0.00471    0.05230
 14 Pd   -0.02373    0.01902   -0.05590
 15 Pd   -0.05774    0.10223    0.26775
 16 Pd   -0.00867    0.00247   -0.03290
 17 Pd    0.00303    0.01862    0.01928
 18 Pd    0.00697   -0.00677   -0.01676
 19 Pd   -0.01613    0.44758    0.19562
 20 Pd   -0.00143   -0.00847   -0.05543
 21 Pd    0.00953   -0.01394    0.00492
 22 Pd    0.00007   -0.00441   -0.05003
 23 Pd    0.00800    0.01990   -0.01280
 24 Pd   -0.00769    0.00575   -0.01550
 25 Pd    0.03453   -0.02946   -0.01027
 26 Pd    0.02000    0.02464   -0.06468
 27 Pd    0.01295   -0.00294   -0.00684
 28 Pd   -0.00100   -0.00523   -0.04571
 29 Pd   -0.00157    0.01942    0.01473
 30 Pd   -0.00010    0.03630   -0.04478
 31 Pd    0.06972    0.02246   -0.01718
 32 Pd   -0.00389   -0.00384   -0.02901
 33 Pd    0.00157    0.01707   -0.20266
 34 Pd   -0.03242    0.03473    0.10545
 35 Pd   -0.00194    0.02613   -0.00430
 36 H    -0.02209    0.20001    0.13151
 37 O     0.01902    0.16557   -0.11148
 38 C    -0.16887   -0.32016    0.21491
 39 C     0.18136   -0.23864    0.01100
 40 O    -0.09799   -0.45369   -0.54657

BFGS:    4 03:09:53    -5271.560255        0.7171
System changes: positions 

Initializing position-dependent things.

Density initialized from wave functions
                                                 
                                                 
                                                 
                                                 
                                                 
                                                 
                                                 
                           O                     
                         H                       
                  Pd     OC     Pd               
                         C                       
            Pd     PPd    PPd     Pd             
                      Pd     Pd     Pd           
              Pd     Pd     Pd                   
               PPd    PPd    PPd                 
                                                 
                 Pd     Pd     Pd                
                   Pd     Pd     Pd              
           Pd     Pd     Pd                      
             Pd     Pd     Pd                    
                                                 
               Pd     Pd     Pd                  
                                                 
                                                 
                                                 
                                                 

Positions:
   0 Pd     0.000000    0.000000    9.999999    ( 0.0000,  0.0000,  0.0000)
   1 Pd     1.418446    0.818940   12.316312    ( 0.0000,  0.0000,  0.0000)
   2 Pd     0.000029    1.636780   14.614544    ( 0.0000,  0.0000,  0.0000)
   3 Pd     2.856505    0.008000   16.979580    ( 0.0000,  0.0000,  0.0000)
   4 Pd    -1.418446    2.456821    9.999999    ( 0.0000,  0.0000,  0.0000)
   5 Pd    -0.000000    3.275761   12.316312    ( 0.0000,  0.0000,  0.0000)
   6 Pd    -1.417240    4.094599   14.617453    ( 0.0000,  0.0000,  0.0000)
   7 Pd     1.408919    2.459130   16.937931    ( 0.0000,  0.0000,  0.0000)
   8 Pd    -2.836893    4.913642    9.999999    ( 0.0000,  0.0000,  0.0000)
   9 Pd    -1.418446    5.732582   12.316312    ( 0.0000,  0.0000,  0.0000)
  10 Pd    -2.834812    6.554722   14.623604    ( 0.0000,  0.0000,  0.0000)
  11 Pd    -0.000626    4.896238   16.939156    ( 0.0000,  0.0000,  0.0000)
  12 Pd     2.836893    0.000000    9.999999    ( 0.0000,  0.0000,  0.0000)
  13 Pd     4.255339    0.818940   12.316312    ( 0.0000,  0.0000,  0.0000)
  14 Pd     2.833680    1.640768   14.609204    ( 0.0000,  0.0000,  0.0000)
  15 Pd     5.663471    0.008923   16.970978    ( 0.0000,  0.0000,  0.0000)
  16 Pd     1.418446    2.456821    9.999999    ( 0.0000,  0.0000,  0.0000)
  17 Pd     2.836893    3.275761   12.316312    ( 0.0000,  0.0000,  0.0000)
  18 Pd     1.417493    4.094626   14.617506    ( 0.0000,  0.0000,  0.0000)
  19 Pd     4.251785    2.509126   16.951737    ( 0.0000,  0.0000,  0.0000)
  20 Pd     0.000000    4.913642    9.999999    ( 0.0000,  0.0000,  0.0000)
  21 Pd     1.418446    5.732582   12.316312    ( 0.0000,  0.0000,  0.0000)
  22 Pd    -0.000003    6.548223   14.610134    ( 0.0000,  0.0000,  0.0000)
  23 Pd     2.839516    4.914142   16.937489    ( 0.0000,  0.0000,  0.0000)
  24 Pd     5.673785    0.000000    9.999999    ( 0.0000,  0.0000,  0.0000)
  25 Pd     7.092231    0.818940   12.316312    ( 0.0000,  0.0000,  0.0000)
  26 Pd     5.676548    1.641377   14.608918    ( 0.0000,  0.0000,  0.0000)
  27 Pd     8.511502   -0.000801   16.934393    ( 0.0000,  0.0000,  0.0000)
  28 Pd     4.255339    2.456821    9.999999    ( 0.0000,  0.0000,  0.0000)
  29 Pd     5.673785    3.275761   12.316312    ( 0.0000,  0.0000,  0.0000)
  30 Pd     4.255318    4.097170   14.614304    ( 0.0000,  0.0000,  0.0000)
  31 Pd     7.101062    2.459775   16.937613    ( 0.0000,  0.0000,  0.0000)
  32 Pd     2.836893    4.913642    9.999999    ( 0.0000,  0.0000,  0.0000)
  33 Pd     4.255339    5.732582   12.316312    ( 0.0000,  0.0000,  0.0000)
  34 Pd     2.834818    6.554496   14.624013    ( 0.0000,  0.0000,  0.0000)
  35 Pd     5.672030    4.914856   16.938405    ( 0.0000,  0.0000,  0.0000)
  36 H      4.318807   -0.070585   20.344596    ( 0.0000,  0.0000,  0.0000)
  37 O      4.299237   -0.496713   19.469060    ( 0.0000,  0.0000,  0.0000)
  38 C      4.279344    0.424406   18.463436    ( 0.0000,  0.0000,  0.0000)
  39 C      4.256060    1.861969   18.832395    ( 0.0000,  0.0000,  0.0000)
  40 O      4.264420    2.442913   19.885438    ( 0.0000,  0.0000,  0.0000)

Unit cell:
           periodic     x           y           z      points  spacing
  1. axis:    yes    8.510678    0.000000    0.000000    40     0.1843
  2. axis:    yes   -4.255339    7.370463    0.000000    40     0.1843
  3. axis:    no     0.000000    0.000000   26.948937   148     0.1821

  Lengths:   8.510678   8.510678  26.948937
  Angles:   90.000000  90.000000 120.000000

Effective grid spacing dv^(1/3) = 0.1925

     iter     time        total  log10-change:
                         energy  eigst   dens
iter:   1 03:11:26 -5271.861769  -2.55
iter:   2 03:12:05 -5274.401011  -2.38  -2.49
iter:   3 03:12:44 -5271.852349  -2.65  -1.99
iter:   4 03:13:23 -5271.634481  -3.52  -2.53
iter:   5 03:14:02 -5271.608435c -3.70  -2.90
iter:   6 03:14:42 -5271.594120c -4.46  -3.06
iter:   7 03:15:21 -5271.591085c -4.99  -3.37
iter:   8 03:16:00 -5271.589549c -4.69  -3.57
iter:   9 03:16:39 -5271.588890c -4.99  -3.75
iter:  10 03:17:18 -5271.588928c -5.53  -3.86
iter:  11 03:17:57 -5271.588750c -5.94  -3.90
iter:  12 03:18:36 -5271.588799c -6.09  -4.14c
iter:  13 03:19:15 -5271.588818c -6.41  -4.22c
iter:  14 03:19:54 -5271.588799c -6.47  -4.42c
iter:  15 03:20:33 -5271.588820c -6.60  -4.45c
iter:  16 03:21:12 -5271.588827c -7.10  -4.47c
iter:  17 03:21:51 -5271.588816c -7.41c -4.49c

Converged after 17 iterations.

Dipole moment: (-4.299158, -8.305593, 0.132849) |e|*Ang

Energy contributions relative to reference atoms: (reference = -4946339.116847)

Kinetic:       +841.447467
Potential:     -939.895721
External:        +0.000000
XC:            -5163.146704
Entropy (-ST):   -2.381850
Local:           -8.802933
--------------------------
Free energy:   -5272.779741
Extrapolated:  -5271.588816

Showing only first 2 kpts
 Kpt  Band  Eigenvalues  Occupancy
  0   296     -5.34489    1.47409
  0   297     -5.31358    1.34411
  0   298     -5.27885    1.18305
  0   299     -5.26515    1.11607

  1   296     -5.39692    1.65010
  1   297     -5.38228    1.60580
  1   298     -5.37780    1.59143
  1   299     -5.35077    1.49654


Fermi level: -5.24183

No gap

Forces in eV/Ang:
  0 Pd    0.00230    0.00085   -0.00190
  1 Pd   -0.03405   -0.03247   -0.00626
  2 Pd   -0.00122   -0.00648   -0.00358
  3 Pd    0.07158    0.07979    0.25913
  4 Pd    0.00815    0.00440   -0.02918
  5 Pd    0.00562    0.01355    0.01810
  6 Pd   -0.00673   -0.00447   -0.01543
  7 Pd   -0.06599    0.00500   -0.01868
  8 Pd    0.00744   -0.00216   -0.02440
  9 Pd   -0.01024   -0.01018    0.00335
 10 Pd    0.03637    0.03728    0.10497
 11 Pd   -0.00299   -0.12742   -0.08588
 12 Pd    0.00254    0.00498   -0.01427
 13 Pd   -0.00336    0.00513    0.04707
 14 Pd   -0.01103    0.01471   -0.02078
 15 Pd   -0.03085    0.09412    0.20092
 16 Pd   -0.00876    0.00257   -0.03283
 17 Pd    0.00287    0.02000    0.01430
 18 Pd    0.00871   -0.00530   -0.01370
 19 Pd    0.00164    0.34742    0.13154
 20 Pd   -0.00133   -0.00851   -0.05536
 21 Pd    0.01278   -0.01363    0.00480
 22 Pd    0.00025    0.00354   -0.01338
 23 Pd   -0.00953    0.04028   -0.01256
 24 Pd   -0.00788    0.00583   -0.01523
 25 Pd    0.03517   -0.03152   -0.00878
 26 Pd    0.00855    0.01950   -0.03104
 27 Pd    0.01379    0.00046    0.00175
 28 Pd   -0.00084   -0.00572   -0.04543
 29 Pd   -0.00122    0.02117    0.01011
 30 Pd    0.00013    0.03781   -0.04191
 31 Pd    0.05133    0.01189   -0.01642
 32 Pd   -0.00404   -0.00384   -0.02839
 33 Pd    0.00163    0.02329   -0.19616
 34 Pd   -0.02896    0.03206    0.09327
 35 Pd    0.01249    0.04417   -0.00529
 36 H    -0.02724    0.13071   -0.01259
 37 O     0.00084   -0.01764    0.28491
 38 C    -0.08813   -0.19350   -0.02480
 39 C     0.10530   -0.36775   -0.44638
 40 O    -0.03488   -0.14383    0.03580

BFGS:    5 03:22:11    -5271.588816        0.5879
System changes: positions 

Initializing position-dependent things.

Density initialized from wave functions
                                                 
                                                 
                                                 
                                                 
                                                 
                                                 
                                                 
                           O                     
                         H                       
                  Pd     OC     Pd               
                         C                       
            Pd     PPd    PPd     Pd             
                      Pd     Pd     Pd           
              Pd     Pd     Pd                   
               PPd    PPd    PPd                 
                                                 
                 Pd     Pd     Pd                
                   Pd     Pd     Pd              
           Pd     Pd     Pd                      
             Pd     Pd     Pd                    
                                                 
               Pd     Pd     Pd                  
                                                 
                                                 
                                                 
                                                 

Positions:
   0 Pd     0.000000    0.000000    9.999999    ( 0.0000,  0.0000,  0.0000)
   1 Pd     1.418446    0.818940   12.316312    ( 0.0000,  0.0000,  0.0000)
   2 Pd    -0.000011    1.636309   14.614366    ( 0.0000,  0.0000,  0.0000)
   3 Pd     2.864193    0.013733   17.000406    ( 0.0000,  0.0000,  0.0000)
   4 Pd    -1.418446    2.456821    9.999999    ( 0.0000,  0.0000,  0.0000)
   5 Pd    -0.000000    3.275761   12.316312    ( 0.0000,  0.0000,  0.0000)
   6 Pd    -1.417532    4.094233   14.616491    ( 0.0000,  0.0000,  0.0000)
   7 Pd     1.403962    2.459973   16.936888    ( 0.0000,  0.0000,  0.0000)
   8 Pd    -2.836893    4.913642    9.999999    ( 0.0000,  0.0000,  0.0000)
   9 Pd    -1.418446    5.732582   12.316312    ( 0.0000,  0.0000,  0.0000)
  10 Pd    -2.832538    6.557095   14.630464    ( 0.0000,  0.0000,  0.0000)
  11 Pd    -0.000899    4.886583   16.933718    ( 0.0000,  0.0000,  0.0000)
  12 Pd     2.836893    0.000000    9.999999    ( 0.0000,  0.0000,  0.0000)
  13 Pd     4.255339    0.818940   12.316312    ( 0.0000,  0.0000,  0.0000)
  14 Pd     2.832307    1.641913   14.606202    ( 0.0000,  0.0000,  0.0000)
  15 Pd     5.660058    0.015458   16.986948    ( 0.0000,  0.0000,  0.0000)
  16 Pd     1.418446    2.456821    9.999999    ( 0.0000,  0.0000,  0.0000)
  17 Pd     2.836893    3.275761   12.316312    ( 0.0000,  0.0000,  0.0000)
  18 Pd     1.417931    4.094229   14.616636    ( 0.0000,  0.0000,  0.0000)
  19 Pd     4.250966    2.535240   16.962732    ( 0.0000,  0.0000,  0.0000)
  20 Pd     0.000000    4.913642    9.999999    ( 0.0000,  0.0000,  0.0000)
  21 Pd     1.418446    5.732582   12.316312    ( 0.0000,  0.0000,  0.0000)
  22 Pd     0.000007    6.547969   14.607540    ( 0.0000,  0.0000,  0.0000)
  23 Pd     2.839758    4.915736   16.936621    ( 0.0000,  0.0000,  0.0000)
  24 Pd     5.673785    0.000000    9.999999    ( 0.0000,  0.0000,  0.0000)
  25 Pd     7.092231    0.818940   12.316312    ( 0.0000,  0.0000,  0.0000)
  26 Pd     5.677703    1.642867   14.605382    ( 0.0000,  0.0000,  0.0000)
  27 Pd     8.512308   -0.000997   16.934165    ( 0.0000,  0.0000,  0.0000)
  28 Pd     4.255339    2.456821    9.999999    ( 0.0000,  0.0000,  0.0000)
  29 Pd     5.673785    3.275761   12.316312    ( 0.0000,  0.0000,  0.0000)
  30 Pd     4.255315    4.099570   14.611533    ( 0.0000,  0.0000,  0.0000)
  31 Pd     7.105204    2.461058   16.936601    ( 0.0000,  0.0000,  0.0000)
  32 Pd     2.836893    4.913642    9.999999    ( 0.0000,  0.0000,  0.0000)
  33 Pd     4.255339    5.732582   12.316312    ( 0.0000,  0.0000,  0.0000)
  34 Pd     2.832888    6.556565   14.630414    ( 0.0000,  0.0000,  0.0000)
  35 Pd     5.672124    4.916807   16.938057    ( 0.0000,  0.0000,  0.0000)
  36 H      4.317252   -0.059913   20.350391    ( 0.0000,  0.0000,  0.0000)
  37 O      4.299945   -0.492233   19.474122    ( 0.0000,  0.0000,  0.0000)
  38 C      4.270092    0.412344   18.466550    ( 0.0000,  0.0000,  0.0000)
  39 C      4.266586    1.838104   18.819258    ( 0.0000,  0.0000,  0.0000)
  40 O      4.259331    2.423589   19.867966    ( 0.0000,  0.0000,  0.0000)

Unit cell:
           periodic     x           y           z      points  spacing
  1. axis:    yes    8.510678    0.000000    0.000000    40     0.1843
  2. axis:    yes   -4.255339    7.370463    0.000000    40     0.1843
  3. axis:    no     0.000000    0.000000   26.948937   148     0.1821

  Lengths:   8.510678   8.510678  26.948937
  Angles:   90.000000  90.000000 120.000000

Effective grid spacing dv^(1/3) = 0.1925

     iter     time        total  log10-change:
                         energy  eigst   dens
iter:   1 03:23:44 -5271.991199  -2.00
iter:   2 03:24:23 -5274.179733  -2.25  -2.43
iter:   3 03:25:02 -5272.208471  -2.50  -2.02
iter:   4 03:25:41 -5271.667953  -3.43  -2.34
iter:   5 03:26:20 -5271.670078  -3.70  -2.94
iter:   6 03:26:59 -5271.631636c -4.01  -2.85
iter:   7 03:27:38 -5271.626858c -4.41  -3.29
iter:   8 03:28:17 -5271.625660c -4.56  -3.48
iter:   9 03:28:56 -5271.626630c -4.63  -3.65
iter:  10 03:29:35 -5271.625104c -5.07  -3.51
iter:  11 03:30:14 -5271.624933c -5.63  -3.77
iter:  12 03:30:53 -5271.624871c -5.55  -3.90
iter:  13 03:31:32 -5271.624807c -5.73  -4.00
iter:  14 03:32:11 -5271.624761c -6.11  -4.23c
iter:  15 03:32:50 -5271.624775c -6.26  -4.36c
iter:  16 03:33:29 -5271.624822c -6.59  -4.49c
iter:  17 03:34:08 -5271.624836c -6.71  -4.31c
iter:  18 03:34:47 -5271.624811c -6.94  -4.26c
iter:  19 03:35:26 -5271.624806c -7.13  -4.73c
iter:  20 03:36:05 -5271.624806c -7.36  -4.70c
iter:  21 03:36:44 -5271.624803c -7.66c -4.91c

Converged after 21 iterations.

Dipole moment: (-4.098077, -9.061444, 0.137984) |e|*Ang

Energy contributions relative to reference atoms: (reference = -4946339.116847)

Kinetic:       +843.191481
Potential:     -941.201975
External:        +0.000000
XC:            -5163.584169
Entropy (-ST):   -2.378882
Local:           -8.840700
--------------------------
Free energy:   -5272.814244
Extrapolated:  -5271.624803

Showing only first 2 kpts
 Kpt  Band  Eigenvalues  Occupancy
  0   296     -5.34152    1.47487
  0   297     -5.31028    1.34533
  0   298     -5.27525    1.18292
  0   299     -5.26149    1.11568

  1   296     -5.39354    1.65064
  1   297     -5.37902    1.60679
  1   298     -5.37452    1.59239
  1   299     -5.34678    1.49500


Fermi level: -5.23825

No gap

Forces in eV/Ang:
  0 Pd    0.00239    0.00159   -0.00209
  1 Pd   -0.03535   -0.04014   -0.00198
  2 Pd   -0.00161   -0.00910   -0.01796
  3 Pd   -0.05888    0.04539    0.07351
  4 Pd    0.00861    0.00507   -0.03256
  5 Pd    0.00580    0.01272    0.01372
  6 Pd   -0.01461    0.00221   -0.02917
  7 Pd   -0.01970   -0.01788   -0.01011
  8 Pd    0.00683   -0.00214   -0.02638
  9 Pd   -0.01856   -0.00674    0.00731
 10 Pd    0.03830    0.03950    0.07915
 11 Pd   -0.00011   -0.05624   -0.06707
 12 Pd    0.00161    0.00463   -0.01601
 13 Pd   -0.00390    0.00454    0.04131
 14 Pd    0.02054    0.00447    0.03760
 15 Pd    0.02609    0.06353    0.07806
 16 Pd   -0.00933    0.00333   -0.03639
 17 Pd    0.00371    0.02435    0.00244
 18 Pd    0.01529   -0.00037   -0.02720
 19 Pd    0.03468    0.16850    0.00568
 20 Pd   -0.00134   -0.00931   -0.05876
 21 Pd    0.02079   -0.01048    0.00611
 22 Pd   -0.00019    0.02955    0.04518
 23 Pd   -0.03924    0.07408    0.00277
 24 Pd   -0.00705    0.00537   -0.01716
 25 Pd    0.03716   -0.03932   -0.00502
 26 Pd   -0.02161    0.00762    0.02344
 27 Pd    0.01331    0.01292    0.02576
 28 Pd   -0.00062   -0.00545   -0.04757
 29 Pd   -0.00206    0.02655   -0.00140
 30 Pd    0.00047    0.03026   -0.03489
 31 Pd    0.00434   -0.01174   -0.00474
 32 Pd   -0.00386   -0.00370   -0.03103
 33 Pd    0.00209    0.03915   -0.18396
 34 Pd   -0.02534    0.03339    0.05807
 35 Pd    0.03659    0.07234    0.00757
 36 H    -0.02191    0.07395   -0.14317
 37 O    -0.02696   -0.23651    0.66980
 38 C     0.02871   -0.23483   -0.15013
 39 C    -0.05383   -0.07288   -0.50454
 40 O     0.00940   -0.01688    0.29791

BFGS:    6 03:37:04    -5271.624803        0.7108
System changes: positions 

Initializing position-dependent things.

Density initialized from wave functions
                                                 
                                                 
                                                 
                                                 
                                                 
                                                 
                                                 
                           O                     
                         H                       
                  Pd     OC     Pd               
                         C                       
            Pd     PPd    PPd     Pd             
                      Pd     Pd     Pd           
              Pd     Pd     Pd                   
               PPd    PPd    PPd                 
                                                 
                 Pd     Pd     Pd                
                   Pd     Pd     Pd              
           Pd     Pd     Pd                      
             Pd     Pd     Pd                    
                                                 
               Pd     Pd     Pd                  
                                                 
                                                 
                                                 
                                                 

Positions:
   0 Pd     0.000000    0.000000    9.999999    ( 0.0000,  0.0000,  0.0000)
   1 Pd     1.418446    0.818940   12.316312    ( 0.0000,  0.0000,  0.0000)
   2 Pd    -0.000062    1.635808   14.613871    ( 0.0000,  0.0000,  0.0000)
   3 Pd     2.868249    0.018337   17.015624    ( 0.0000,  0.0000,  0.0000)
   4 Pd    -1.418446    2.456821    9.999999    ( 0.0000,  0.0000,  0.0000)
   5 Pd    -0.000000    3.275761   12.316312    ( 0.0000,  0.0000,  0.0000)
   6 Pd    -1.418001    4.094043   14.615267    ( 0.0000,  0.0000,  0.0000)
   7 Pd     1.400350    2.460208   16.936057    ( 0.0000,  0.0000,  0.0000)
   8 Pd    -2.836893    4.913642    9.999999    ( 0.0000,  0.0000,  0.0000)
   9 Pd    -1.418446    5.732582   12.316312    ( 0.0000,  0.0000,  0.0000)
  10 Pd    -2.830318    6.559408   14.636416    ( 0.0000,  0.0000,  0.0000)
  11 Pd    -0.001085    4.879157   16.928961    ( 0.0000,  0.0000,  0.0000)
  12 Pd     2.836893    0.000000    9.999999    ( 0.0000,  0.0000,  0.0000)
  13 Pd     4.255339    0.818940   12.316312    ( 0.0000,  0.0000,  0.0000)
  14 Pd     2.831775    1.642751   14.604828    ( 0.0000,  0.0000,  0.0000)
  15 Pd     5.658265    0.020918   16.999043    ( 0.0000,  0.0000,  0.0000)
  16 Pd     1.418446    2.456821    9.999999    ( 0.0000,  0.0000,  0.0000)
  17 Pd     2.836893    3.275761   12.316312    ( 0.0000,  0.0000,  0.0000)
  18 Pd     1.418508    4.093966   14.615506    ( 0.0000,  0.0000,  0.0000)
  19 Pd     4.251031    2.555751   16.970057    ( 0.0000,  0.0000,  0.0000)
  20 Pd     0.000000    4.913642    9.999999    ( 0.0000,  0.0000,  0.0000)
  21 Pd     1.418446    5.732582   12.316312    ( 0.0000,  0.0000,  0.0000)
  22 Pd     0.000007    6.548360   14.606569    ( 0.0000,  0.0000,  0.0000)
  23 Pd     2.839234    4.918113   16.936135    ( 0.0000,  0.0000,  0.0000)
  24 Pd     5.673785    0.000000    9.999999    ( 0.0000,  0.0000,  0.0000)
  25 Pd     7.092231    0.818940   12.316312    ( 0.0000,  0.0000,  0.0000)
  26 Pd     5.678065    1.643992   14.603396    ( 0.0000,  0.0000,  0.0000)
  27 Pd     8.513076   -0.000884   16.934508    ( 0.0000,  0.0000,  0.0000)
  28 Pd     4.255339    2.456821    9.999999    ( 0.0000,  0.0000,  0.0000)
  29 Pd     5.673785    3.275761   12.316312    ( 0.0000,  0.0000,  0.0000)
  30 Pd     4.255321    4.101685   14.609062    ( 0.0000,  0.0000,  0.0000)
  31 Pd     7.108006    2.461695   16.935882    ( 0.0000,  0.0000,  0.0000)
  32 Pd     2.836893    4.913642    9.999999    ( 0.0000,  0.0000,  0.0000)
  33 Pd     4.255339    5.732582   12.316312    ( 0.0000,  0.0000,  0.0000)
  34 Pd     2.831136    6.558563   14.635685    ( 0.0000,  0.0000,  0.0000)
  35 Pd     5.672826    4.919386   16.938004    ( 0.0000,  0.0000,  0.0000)
  36 H      4.315928   -0.050128   20.354261    ( 0.0000,  0.0000,  0.0000)
  37 O      4.299875   -0.494101   19.486056    ( 0.0000,  0.0000,  0.0000)
  38 C      4.264292    0.399210   18.467174    ( 0.0000,  0.0000,  0.0000)
  39 C      4.272667    1.823302   18.805774    ( 0.0000,  0.0000,  0.0000)
  40 O      4.255764    2.408049   19.857311    ( 0.0000,  0.0000,  0.0000)

Unit cell:
           periodic     x           y           z      points  spacing
  1. axis:    yes    8.510678    0.000000    0.000000    40     0.1843
  2. axis:    yes   -4.255339    7.370463    0.000000    40     0.1843
  3. axis:    no     0.000000    0.000000   26.948937   148     0.1821

  Lengths:   8.510678   8.510678  26.948937
  Angles:   90.000000  90.000000 120.000000

Effective grid spacing dv^(1/3) = 0.1925

     iter     time        total  log10-change:
                         energy  eigst   dens
iter:   1 03:38:37 -5271.779047  -2.25
iter:   2 03:39:17 -5273.253168  -2.53  -2.62
iter:   3 03:39:56 -5271.721562  -2.93  -2.10
iter:   4 03:40:36 -5271.652322  -3.72  -2.79
iter:   5 03:41:15 -5271.650761c -4.15  -3.20
iter:   6 03:41:55 -5271.643684c -4.62  -3.18
iter:   7 03:42:34 -5271.642976c -4.80  -3.55
iter:   8 03:43:14 -5271.642519c -4.90  -3.62
iter:   9 03:43:53 -5271.642615c -5.24  -3.96
iter:  10 03:44:32 -5271.642556c -5.76  -3.84
iter:  11 03:45:12 -5271.642360c -5.97  -3.90
iter:  12 03:45:51 -5271.642372c -5.93  -4.16c
iter:  13 03:46:31 -5271.642273c -5.99  -4.01c
iter:  14 03:47:10 -5271.642302c -6.46  -4.51c
iter:  15 03:47:50 -5271.642326c -6.83  -4.60c
iter:  16 03:48:29 -5271.642345c -7.03  -4.56c
iter:  17 03:49:09 -5271.642326c -7.19  -4.46c
iter:  18 03:49:48 -5271.642339c -7.60c -4.88c

Converged after 18 iterations.

Dipole moment: (-3.843352, -9.877134, 0.124024) |e|*Ang

Energy contributions relative to reference atoms: (reference = -4946339.116847)

Kinetic:       +843.900166
Potential:     -941.758088
External:        +0.000000
XC:            -5163.750750
Entropy (-ST):   -2.376148
Local:           -8.845593
--------------------------
Free energy:   -5272.830413
Extrapolated:  -5271.642339

Showing only first 2 kpts
 Kpt  Band  Eigenvalues  Occupancy
  0   296     -5.35418    1.47505
  0   297     -5.32301    1.34587
  0   298     -5.28801    1.18362
  0   299     -5.27404    1.11537

  1   296     -5.40653    1.65173
  1   297     -5.39178    1.60726
  1   298     -5.38757    1.59380
  1   299     -5.35909    1.49385


Fermi level: -5.25087

No gap

Forces in eV/Ang:
  0 Pd    0.00244    0.00216   -0.00102
  1 Pd   -0.03498   -0.04445    0.00323
  2 Pd   -0.00211   -0.00754   -0.02061
  3 Pd   -0.15388    0.00198   -0.06146
  4 Pd    0.00869    0.00535   -0.03357
  5 Pd    0.00576    0.01205    0.01070
  6 Pd   -0.01897    0.00593   -0.03111
  7 Pd    0.01272   -0.03090   -0.00572
  8 Pd    0.00632   -0.00231   -0.02646
  9 Pd   -0.02351   -0.00385    0.01201
 10 Pd    0.03185    0.03617    0.05473
 11 Pd    0.00121    0.00029   -0.05171
 12 Pd    0.00153    0.00465   -0.01602
 13 Pd   -0.00433    0.00427    0.03747
 14 Pd    0.03743    0.00093    0.07691
 15 Pd    0.06429    0.02336   -0.01130
 16 Pd   -0.00950    0.00371   -0.03747
 17 Pd    0.00339    0.02565   -0.00530
 18 Pd    0.01894    0.00273   -0.02921
 19 Pd    0.04739    0.03660   -0.08710
 20 Pd   -0.00131   -0.00955   -0.05963
 21 Pd    0.02529   -0.00794    0.00889
 22 Pd   -0.00000    0.04142    0.08740
 23 Pd   -0.06250    0.10066    0.01103
 24 Pd   -0.00703    0.00531   -0.01756
 25 Pd    0.03735   -0.04347   -0.00049
 26 Pd   -0.03737    0.00307    0.06187
 27 Pd    0.01199    0.02157    0.03877
 28 Pd   -0.00042   -0.00577   -0.04829
 29 Pd   -0.00155    0.02870   -0.00951
 30 Pd    0.00044    0.03084   -0.02570
 31 Pd   -0.02458   -0.02444    0.00115
 32 Pd   -0.00370   -0.00368   -0.03141
 33 Pd    0.00274    0.05258   -0.17243
 34 Pd   -0.01772    0.03038    0.03227
 35 Pd    0.05647    0.09629    0.01461
 36 H    -0.01613    0.11445   -0.06667
 37 O    -0.03928   -0.24861    0.51641
 38 C     0.12380   -0.26510   -0.03230
 39 C    -0.11216    0.10859   -0.26474
 40 O     0.04543   -0.02856    0.21554

BFGS:    7 03:50:08    -5271.642339        0.5745
System changes: positions 

Initializing position-dependent things.

Density initialized from wave functions
                                                 
                                                 
                                                 
                                                 
                                                 
                                                 
                                                 
                           O                     
                         H                       
                  Pd     OC     Pd               
                         C                       
            Pd     PPd    PPd     Pd             
                      Pd     Pd     Pd           
              Pd     Pd     Pd                   
               PPd    PPd    PPd                 
                                                 
                 Pd     Pd     Pd                
                   Pd     Pd     Pd              
           Pd     Pd     Pd                      
             Pd     Pd     Pd                    
                                                 
               Pd     Pd     Pd                  
                                                 
                                                 
                                                 
                                                 

Positions:
   0 Pd     0.000000    0.000000    9.999999    ( 0.0000,  0.0000,  0.0000)
   1 Pd     1.418446    0.818940   12.316312    ( 0.0000,  0.0000,  0.0000)
   2 Pd    -0.000137    1.635335   14.613161    ( 0.0000,  0.0000,  0.0000)
   3 Pd     2.867986    0.021358   17.024592    ( 0.0000,  0.0000,  0.0000)
   4 Pd    -1.418446    2.456821    9.999999    ( 0.0000,  0.0000,  0.0000)
   5 Pd    -0.000000    3.275761   12.316312    ( 0.0000,  0.0000,  0.0000)
   6 Pd    -1.418675    4.094029   14.613866    ( 0.0000,  0.0000,  0.0000)
   7 Pd     1.398190    2.459783   16.935389    ( 0.0000,  0.0000,  0.0000)
   8 Pd    -2.836893    4.913642    9.999999    ( 0.0000,  0.0000,  0.0000)
   9 Pd    -1.418446    5.732582   12.316312    ( 0.0000,  0.0000,  0.0000)
  10 Pd    -2.828248    6.561634   14.641415    ( 0.0000,  0.0000,  0.0000)
  11 Pd    -0.001189    4.874249   16.924829    ( 0.0000,  0.0000,  0.0000)
  12 Pd     2.836893    0.000000    9.999999    ( 0.0000,  0.0000,  0.0000)
  13 Pd     4.255339    0.818940   12.316312    ( 0.0000,  0.0000,  0.0000)
[...]
  28 Pd     4.255339    2.456821    9.999999    ( 0.0000,  0.0000,  0.0000)
  29 Pd     5.673785    3.275761   12.316312    ( 0.0000,  0.0000,  0.0000)
  30 Pd     4.256568    4.118225   14.619173    ( 0.0000,  0.0000,  0.0000)
  31 Pd     7.098025    2.469942   16.935050    ( 0.0000,  0.0000,  0.0000)
  32 Pd     2.836893    4.913642    9.999999    ( 0.0000,  0.0000,  0.0000)
  33 Pd     4.255339    5.732582   12.316312    ( 0.0000,  0.0000,  0.0000)
  34 Pd     2.829432    6.578517   14.643600    ( 0.0000,  0.0000,  0.0000)
  35 Pd     5.673396    4.939921   16.944958    ( 0.0000,  0.0000,  0.0000)
  36 H      4.289644    0.029600   20.409241    ( 0.0000,  0.0000,  0.0000)
  37 O      4.295985   -0.521928   19.603610    ( 0.0000,  0.0000,  0.0000)
  38 C      4.272606    0.290025   18.513914    ( 0.0000,  0.0000,  0.0000)
  39 C      4.259378    1.739154   18.795160    ( 0.0000,  0.0000,  0.0000)
  40 O      4.257651    2.301642   19.864322    ( 0.0000,  0.0000,  0.0000)

Unit cell:
           periodic     x           y           z      points  spacing
  1. axis:    yes    8.510678    0.000000    0.000000    40     0.1843
  2. axis:    yes   -4.255339    7.370463    0.000000    40     0.1843
  3. axis:    no     0.000000    0.000000   26.948937   148     0.1821

  Lengths:   8.510678   8.510678  26.948937
  Angles:   90.000000  90.000000 120.000000

Effective grid spacing dv^(1/3) = 0.1925

     iter     time        total  log10-change:
                         energy  eigst   dens
iter:   1 06:28:23 -5271.723465  -4.33
iter:   2 06:29:02 -5272.103455  -3.39  -3.04
iter:   3 06:29:41 -5271.705454  -3.89  -2.39
iter:   4 06:30:20 -5271.704882  -4.72  -3.78
iter:   5 06:30:59 -5271.704810c -5.38  -4.28c
iter:   6 06:31:38 -5271.704658c -6.01  -4.40c
iter:   7 06:32:17 -5271.704635c -6.33  -4.57c
iter:   8 06:32:57 -5271.704657c -6.77  -4.69c
iter:   9 06:33:36 -5271.704662c -7.20  -4.91c
iter:  10 06:34:15 -5271.704653c -7.50c -4.92c

Converged after 10 iterations.

Dipole moment: (-3.042429, -12.077239, 0.059301) |e|*Ang

Energy contributions relative to reference atoms: (reference = -4946339.116847)

Kinetic:       +840.104473
Potential:     -938.699698
External:        +0.000000
XC:            -5163.068617
Entropy (-ST):   -2.373990
Local:           -8.853815
--------------------------
Free energy:   -5272.891648
Extrapolated:  -5271.704653

Showing only first 2 kpts
 Kpt  Band  Eigenvalues  Occupancy
  0   296     -5.41330    1.47342
  0   297     -5.38142    1.34090
  0   298     -5.34955    1.19327
  0   299     -5.33082    1.10175

  1   296     -5.46919    1.66063
  1   297     -5.45206    1.60962
  1   298     -5.44903    1.59999
  1   299     -5.41742    1.48925


Fermi level: -5.31040

No gap

Forces in eV/Ang:
  0 Pd    0.00181   -0.00076   -0.00348
  1 Pd   -0.00850   -0.02348    0.04706
  2 Pd   -0.00007    0.00431   -0.00398
  3 Pd    0.00400   -0.00426    0.01120
  4 Pd    0.01170    0.00272   -0.03284
  5 Pd    0.00595    0.02325   -0.00219
  6 Pd   -0.00118    0.00135    0.00354
  7 Pd    0.00239   -0.01466    0.00182
  8 Pd    0.00568   -0.00119   -0.02718
  9 Pd   -0.01959    0.02462    0.03299
 10 Pd   -0.00196   -0.00758    0.00564
 11 Pd    0.00035   -0.01209    0.00972
 12 Pd   -0.00119    0.00099   -0.01383
 13 Pd   -0.00552    0.01869    0.09428
 14 Pd   -0.00126   -0.00146    0.01278
 15 Pd    0.01371   -0.00534    0.00229
 16 Pd   -0.01199    0.00071   -0.03637
 17 Pd    0.02466    0.01490    0.02098
 18 Pd    0.00238    0.00100    0.00390
 19 Pd   -0.00420   -0.02455    0.02794
 20 Pd   -0.00203   -0.01071   -0.05783
 21 Pd    0.02088    0.02081    0.02789
 22 Pd    0.00016    0.00782    0.01778
 23 Pd   -0.00647   -0.00168    0.00637
 24 Pd   -0.00429    0.00131   -0.01488
 25 Pd    0.01585   -0.02373    0.03452
 26 Pd    0.00065   -0.00091    0.01184
 27 Pd    0.00044   -0.01294    0.00678
 28 Pd   -0.00100   -0.00609   -0.04111
 29 Pd   -0.02086    0.02095    0.00999
 30 Pd    0.00033   -0.00993   -0.00782
 31 Pd    0.00090   -0.01225    0.00402
 32 Pd   -0.00318   -0.00203   -0.03239
 33 Pd    0.00650    0.06717   -0.13037
 34 Pd    0.00200   -0.00511    0.00947
 35 Pd    0.00897   -0.00310    0.00513
 36 H    -0.00684   -0.03492    0.01939
 37 O    -0.00429   -0.02282   -0.00679
 38 C    -0.00593   -0.02363    0.02089
 39 C     0.02150    0.06337   -0.00288
 40 O     0.00528   -0.02385   -0.00601

BFGS:   23 06:34:35    -5271.704653        0.0670
System changes: positions 

Initializing position-dependent things.

Density initialized from wave functions
                                                 
                                                 
                                                 
                                                 
                                                 
                                                 
                                                 
                           O                     
                         H                       
                  Pd     OC     Pd               
                         C                       
            Pd     PPd    PPd     Pd             
                      Pd     Pd     Pd           
              Pd     Pd     Pd                   
               PPd    PPd    PPd                 
                                                 
                 Pd     Pd     Pd                
                                                 
           Pd     PPd    PPd     Pd              
             Pd     Pd     Pd                    
                                                 
               Pd     Pd     Pd                  
                                                 
                                                 
                                                 
                                                 

Positions:
   0 Pd     0.000000    0.000000    9.999999    ( 0.0000,  0.0000,  0.0000)
   1 Pd     1.418446    0.818940   12.316312    ( 0.0000,  0.0000,  0.0000)
   2 Pd     0.000728    1.649595   14.611956    ( 0.0000,  0.0000,  0.0000)
   3 Pd     2.857136   -0.004799   17.047152    ( 0.0000,  0.0000,  0.0000)
   4 Pd    -1.418446    2.456821    9.999999    ( 0.0000,  0.0000,  0.0000)
   5 Pd    -0.000000    3.275761   12.316312    ( 0.0000,  0.0000,  0.0000)
   6 Pd    -1.423732    4.104914   14.608207    ( 0.0000,  0.0000,  0.0000)
   7 Pd     1.410171    2.467949   16.935831    ( 0.0000,  0.0000,  0.0000)
   8 Pd    -2.836893    4.913642    9.999999    ( 0.0000,  0.0000,  0.0000)
   9 Pd    -1.418446    5.732582   12.316312    ( 0.0000,  0.0000,  0.0000)
  10 Pd    -2.824830    6.580869   14.648499    ( 0.0000,  0.0000,  0.0000)
  11 Pd    -0.000840    4.882210   16.913113    ( 0.0000,  0.0000,  0.0000)
  12 Pd     2.836893    0.000000    9.999999    ( 0.0000,  0.0000,  0.0000)
  13 Pd     4.255339    0.818940   12.316312    ( 0.0000,  0.0000,  0.0000)
  14 Pd     2.841218    1.652224   14.626968    ( 0.0000,  0.0000,  0.0000)
  15 Pd     5.662855   -0.000244   17.032206    ( 0.0000,  0.0000,  0.0000)
  16 Pd     1.418446    2.456821    9.999999    ( 0.0000,  0.0000,  0.0000)
  17 Pd     2.836893    3.275761   12.316312    ( 0.0000,  0.0000,  0.0000)
  18 Pd     1.425217    4.104223   14.608153    ( 0.0000,  0.0000,  0.0000)
  19 Pd     4.255436    2.545681   16.988540    ( 0.0000,  0.0000,  0.0000)
  20 Pd     0.000000    4.913642    9.999999    ( 0.0000,  0.0000,  0.0000)
  21 Pd     1.418446    5.732582   12.316312    ( 0.0000,  0.0000,  0.0000)
  22 Pd     0.001002    6.564767   14.618944    ( 0.0000,  0.0000,  0.0000)
  23 Pd     2.838552    4.939242   16.941080    ( 0.0000,  0.0000,  0.0000)
  24 Pd     5.673785    0.000000    9.999999    ( 0.0000,  0.0000,  0.0000)
  25 Pd     7.092231    0.818940   12.316312    ( 0.0000,  0.0000,  0.0000)
  26 Pd     5.671946    1.652707   14.622316    ( 0.0000,  0.0000,  0.0000)
  27 Pd     8.512940    0.020818   16.944248    ( 0.0000,  0.0000,  0.0000)
  28 Pd     4.255339    2.456821    9.999999    ( 0.0000,  0.0000,  0.0000)
  29 Pd     5.673785    3.275761   12.316312    ( 0.0000,  0.0000,  0.0000)
  30 Pd     4.256610    4.117205   14.618434    ( 0.0000,  0.0000,  0.0000)
  31 Pd     7.097780    2.469184   16.935427    ( 0.0000,  0.0000,  0.0000)
  32 Pd     2.836893    4.913642    9.999999    ( 0.0000,  0.0000,  0.0000)
  33 Pd     4.255339    5.732582   12.316312    ( 0.0000,  0.0000,  0.0000)
  34 Pd     2.829426    6.578616   14.644828    ( 0.0000,  0.0000,  0.0000)
  35 Pd     5.673114    4.939239   16.945385    ( 0.0000,  0.0000,  0.0000)
  36 H      4.287477    0.027706   20.411426    ( 0.0000,  0.0000,  0.0000)
  37 O      4.295723   -0.523281   19.605859    ( 0.0000,  0.0000,  0.0000)
  38 C      4.272875    0.286948   18.515369    ( 0.0000,  0.0000,  0.0000)
  39 C      4.259529    1.738499   18.795476    ( 0.0000,  0.0000,  0.0000)
  40 O      4.258245    2.298011   19.865992    ( 0.0000,  0.0000,  0.0000)

Unit cell:
           periodic     x           y           z      points  spacing
  1. axis:    yes    8.510678    0.000000    0.000000    40     0.1843
  2. axis:    yes   -4.255339    7.370463    0.000000    40     0.1843
  3. axis:    no     0.000000    0.000000   26.948937   148     0.1821

  Lengths:   8.510678   8.510678  26.948937
  Angles:   90.000000  90.000000 120.000000

Effective grid spacing dv^(1/3) = 0.1925

     iter     time        total  log10-change:
                         energy  eigst   dens
iter:   1 06:36:07 -5271.708583  -3.67
iter:   2 06:36:46 -5271.708560  -4.32  -3.43
iter:   3 06:37:25 -5271.709548c -4.90  -3.49
iter:   4 06:38:04 -5271.705471c -5.48  -3.35
iter:   5 06:38:43 -5271.705395c -6.07  -4.13c
iter:   6 06:39:22 -5271.705323c -5.98  -4.21c
iter:   7 06:40:02 -5271.705343c -6.23  -4.32c
iter:   8 06:40:41 -5271.705355c -6.86  -4.55c
iter:   9 06:41:20 -5271.705365c -7.07  -4.57c
iter:  10 06:41:59 -5271.705381c -7.26  -4.64c
iter:  11 06:42:38 -5271.705345c -7.27  -4.48c
iter:  12 06:43:17 -5271.705335c -7.61c -4.77c

Converged after 12 iterations.

Dipole moment: (-3.018050, -11.998460, 0.059101) |e|*Ang

Energy contributions relative to reference atoms: (reference = -4946339.116847)

Kinetic:       +840.000095
Potential:     -938.611386
External:        +0.000000
XC:            -5163.052898
Entropy (-ST):   -2.373519
Local:           -8.854387
--------------------------
Free energy:   -5272.892094
Extrapolated:  -5271.705335

Showing only first 2 kpts
 Kpt  Band  Eigenvalues  Occupancy
  0   296     -5.41387    1.47317
  0   297     -5.38207    1.34096
  0   298     -5.35018    1.19324
  0   299     -5.33147    1.10179

  1   296     -5.46984    1.66067
  1   297     -5.45278    1.60988
  1   298     -5.44972    1.60018
  1   299     -5.41799    1.48901


Fermi level: -5.31104

No gap

Forces in eV/Ang:
  0 Pd    0.00180   -0.00094   -0.00500
  1 Pd   -0.00839   -0.02438    0.04802
  2 Pd   -0.00095   -0.00153   -0.00490
  3 Pd    0.00516   -0.00319   -0.00076
  4 Pd    0.01156    0.00288   -0.03442
  5 Pd    0.00603    0.02407   -0.00308
  6 Pd   -0.00123   -0.00637    0.00168
  7 Pd    0.00110   -0.01333    0.00150
  8 Pd    0.00565   -0.00122   -0.02884
  9 Pd   -0.01981    0.02569    0.03353
 10 Pd   -0.00175   -0.00749   -0.00262
 11 Pd    0.00066   -0.00752    0.00987
 12 Pd   -0.00135    0.00105   -0.01591
 13 Pd   -0.00528    0.02023    0.09544
 14 Pd    0.00121   -0.00044    0.01290
 15 Pd    0.01015   -0.00580   -0.00947
 16 Pd   -0.01183    0.00084   -0.03799
 17 Pd    0.02322    0.01380    0.02053
 18 Pd    0.00121   -0.00692    0.00157
 19 Pd   -0.00642    0.00070   -0.00813
 20 Pd   -0.00206   -0.01091   -0.05972
 21 Pd    0.02123    0.02195    0.02858
 22 Pd   -0.00009    0.00278    0.02066
 23 Pd   -0.00926   -0.00197    0.00613
 24 Pd   -0.00414    0.00131   -0.01688
 25 Pd    0.01560   -0.02452    0.03587
 26 Pd   -0.00220    0.00054    0.00969
 27 Pd    0.00068   -0.01193    0.01181
 28 Pd   -0.00104   -0.00604   -0.04291
 29 Pd   -0.01933    0.01960    0.00974
 30 Pd   -0.00011   -0.00691   -0.00094
 31 Pd    0.00487   -0.01037    0.00275
 32 Pd   -0.00314   -0.00211   -0.03412
 33 Pd    0.00636    0.06821   -0.12793
 34 Pd    0.00262   -0.00504    0.00039
 35 Pd    0.01190   -0.00167    0.00541
 36 H    -0.00721   -0.01943    0.02985
 37 O     0.00103   -0.04672   -0.01507
 38 C    -0.00933    0.02363    0.03136
 39 C     0.02313    0.00366    0.01943
 40 O     0.00736   -0.02209    0.01698

BFGS:   24 06:43:37    -5271.705335        0.0491
Timing:                                      incl.     excl.
-------------------------------------------------------------------
Density initialized from wave functions:    13.531    13.531   0.1% |
 Symmetrize density:                         0.001     0.001   0.0% |
Forces:                                    505.547   505.547   2.8% ||
Hamiltonian:                                70.218     0.003   0.0% |
 Atomic:                                     2.344     0.014   0.0% |
  XC Correction:                             2.331     2.331   0.0% |
 Calculate atomic Hamiltonians:              1.260     1.260   0.0% |
 Communicate:                                0.556     0.556   0.0% |
 Hartree integrate/restrict:                 0.220     0.220   0.0% |
 Initialize Hamiltonian:                     0.000     0.000   0.0% |
 Poisson:                                    3.756     0.148   0.0% |
  Communicate from 1D:                       0.277     0.277   0.0% |
  Communicate from 2D:                       0.635     0.635   0.0% |
  Communicate to 1D:                         0.167     0.167   0.0% |
  Communicate to 2D:                         0.686     0.686   0.0% |
  FFT 1D:                                    0.947     0.947   0.0% |
  FFT 2D:                                    0.897     0.897   0.0% |
 XC 3D grid:                                61.863    15.307   0.1% |
  VdW-DF integral:                          46.556     3.015   0.0% |
   Convolution:                              4.944     4.944   0.0% |
   FFT:                                      3.228     3.228   0.0% |
   gather:                                  11.625    11.625   0.1% |
   hmm1:                                     0.949     0.949   0.0% |
   hmm2:                                     1.904     1.904   0.0% |
   iFFT:                                     3.184     3.184   0.0% |
   potential:                               13.840     0.376   0.0% |
    collect:                                 1.091     1.091   0.0% |
    p1:                                      8.389     8.389   0.0% |
    p2:                                      2.967     2.967   0.0% |
    sum:                                     1.017     1.017   0.0% |
   splines:                                  3.867     3.867   0.0% |
 vbar:                                       0.216     0.216   0.0% |
LCAO initialization:                        72.448     2.402   0.0% |
 LCAO eigensolver:                          59.252     0.006   0.0% |
  Calculate projections:                     0.000     0.000   0.0% |
  DenseAtomicCorrection:                     0.000     0.000   0.0% |
  Distribute overlap matrix:                58.135    58.135   0.3% |
  Orbital Layouts:                           0.805     0.805   0.0% |
  Potential matrix:                          0.169     0.169   0.0% |
  Sum over cells:                            0.137     0.137   0.0% |
 LCAO to grid:                               9.391     9.391   0.1% |
 Set positions (LCAO WFS):                   1.403     0.670   0.0% |
  Basic WFS set positions:                   0.001     0.001   0.0% |
  Basis functions set positions:             0.000     0.000   0.0% |
  P tci:                                     0.000     0.000   0.0% |
  ST tci:                                    0.604     0.604   0.0% |
  mktci:                                     0.128     0.128   0.0% |
Redistribute:                                0.011     0.011   0.0% |
SCF-cycle:                               16415.207   167.366   0.9% |
 Davidson:                               15045.388  5080.204  27.9% |----------|
  Apply hamiltonian:                       278.145   278.145   1.5% ||
  Subspace diag:                          1306.059     0.075   0.0% |
   calc_h_matrix:                          629.004   357.967   2.0% ||
    Apply hamiltonian:                     271.037   271.037   1.5% ||
   diagonalize:                             26.643    26.643   0.1% |
   rotate_psi:                             650.337   650.337   3.6% ||
  calc. matrices:                         6923.248  2388.997  13.1% |----|
   Apply hamiltonian:                     4534.251  4534.251  24.9% |---------|
  diagonalize:                             209.761   209.761   1.2% |
  rotate_psi:                             1247.971  1247.971   6.9% |--|
 Density:                                   24.702     0.008   0.0% |
  Atomic density matrices:                   2.004     2.004   0.0% |
  Mix:                                       5.074     5.074   0.0% |
  Multipole moments:                         0.130     0.130   0.0% |
  Pseudo density:                           17.486    17.476   0.1% |
   Symmetrize density:                       0.010     0.010   0.0% |
 Hamiltonian:                             1030.922     0.041   0.0% |
  Atomic:                                   36.758     0.218   0.0% |
   XC Correction:                           36.540    36.540   0.2% |
  Calculate atomic Hamiltonians:            19.609    19.609   0.1% |
  Communicate:                               4.378     4.378   0.0% |
  Hartree integrate/restrict:                3.468     3.468   0.0% |
  Poisson:                                  59.359     2.451   0.0% |
   Communicate from 1D:                      4.541     4.541   0.0% |
   Communicate from 2D:                      9.984     9.984   0.1% |
   Communicate to 1D:                        2.651     2.651   0.0% |
   Communicate to 2D:                       10.655    10.655   0.1% |
   FFT 1D:                                  14.886    14.886   0.1% |
   FFT 2D:                                  14.191    14.191   0.1% |
  XC 3D grid:                              906.664   241.926   1.3% ||
   VdW-DF integral:                        664.738    46.918   0.3% |
    Convolution:                            76.709    76.709   0.4% |
    FFT:                                    51.275    51.275   0.3% |
    gather:                                177.971   177.971   1.0% |
    hmm1:                                   14.629    14.629   0.1% |
    hmm2:                                   30.063    30.063   0.2% |
    iFFT:                                   49.846    49.846   0.3% |
    potential:                             217.327     5.914   0.0% |
     collect:                               17.074    17.074   0.1% |
     p1:                                   131.326   131.326   0.7% |
     p2:                                    46.953    46.953   0.3% |
     sum:                                   16.060    16.060   0.1% |
    splines:                                 0.002     0.002   0.0% |
  vbar:                                      0.645     0.645   0.0% |
 Orthonormalize:                           146.828     0.005   0.0% |
  calc_s_matrix:                             9.030     9.030   0.0% |
  inverse-cholesky:                        118.893   118.893   0.7% |
  projections:                               0.001     0.001   0.0% |
  rotate_psi_s:                             18.899    18.899   0.1% |
Set symmetry:                                0.001     0.001   0.0% |
Other:                                    1129.756  1129.756   6.2% |-|
-------------------------------------------------------------------
Total:                                             18206.720 100.0%

Memory usage: 1.55 GiB
Date: Fri Sep 29 06:43:37 2023
