
  ___ ___ ___ _ _ _  
 |   |   |_  | | | | 
 | | | | | . | | | | 
 |__ |  _|___|_____|  22.8.0
 |___|_|             

User:   s204775@c104.nifl.fysik.dtu.dk
Date:   Fri Sep 29 01:42:44 2023
Arch:   x86_64
Pid:    3481
CWD:    /home/cat/s204775/projects/Bachelor_project/OCCOH_missing_features
Python: 3.10.4
gpaw:   /home/modules/software/GPAW/22.8.0-intel-2022a/lib/python3.10/site-packages/gpaw
_gpaw:  /home/modules/software/GPAW/22.8.0-intel-2022a/lib/python3.10/site-packages/
        _gpaw.cpython-310-x86_64-linux-gnu.so
ase:    /home/modules/software/ASE/3.22.1-intel-2022a/lib/python3.10/site-packages/ase (version 3.22.1)
numpy:  /home/modules/software/SciPy-bundle/2022.05-intel-2022a/lib/python3.10/site-packages/numpy (version 1.22.3)
scipy:  /home/modules/software/SciPy-bundle/2022.05-intel-2022a/lib/python3.10/site-packages/scipy (version 1.8.1)
libxc:  5.2.3
units:  Angstrom and eV
cores: 40
OpenMP: False
OMP_NUM_THREADS: 1

Input parameters:
  basis: dzp
  h: 0.18
  kpts: {size: (4, 4, 1)}
  xc: BEEF-vdW

System changes: positions, numbers, cell, pbc, initial_charges, initial_magmoms 

Initialize ...

species:
  Pt:
    name: Platinum
    id: 5ed695806aff0c961dba1a84acd7f4b2
    Z: 78.0
    valence: 16
    core: 62
    charge: 0.0
    file: /home/modules/software/GPAW-setups/0.9.20000/Pt.PBE.gz
    compensation charges: {type: gauss,
                           rc: 0.41,
                           lmax: 2}
    cutoffs: {filter: 2.26,
              core: 2.26}
    valence states:
      #              energy  rcut
      - 6s(1.00)    -5.628   1.307
      - 5p(6.00)   -56.051   1.371
      - 6p(0.00)    -0.845   1.371
      - 5d(9.00)    -6.153   1.307
      -  s          21.583   1.307
      -  d          21.058   1.307
  
    # LCAO basis set for Pt:
    #   Name: dzp
    #   File: /home/modules/software/GPAW-setups/0.9.20000/Pt.dzp.basis.gz
    #   Number of radial functions: 9
    #   Number of spherical harmonics: 27
    #     l=0, rc=8.5938 Bohr: 6s-sz confined orbital
    #     l=1, rc=3.5781 Bohr: 5p-sz confined orbital
    #     l=1, rc=13.6250 Bohr: 6p-sz confined orbital
    #     l=2, rc=6.0938 Bohr: 5d-sz confined orbital
    #     l=0, rc=5.0625 Bohr: 6s-dz split-valence wave
    #     l=1, rc=2.4219 Bohr: 5p-dz split-valence wave
    #     l=1, rc=8.3281 Bohr: 6p-dz split-valence wave
    #     l=2, rc=3.6406 Bohr: 5d-dz split-valence wave
    #     l=1, rc=8.5938 Bohr: p-type Gaussian polarization
    #   Number of RI-basis functions 0

  H:
    name: Hydrogen
    id: d65de229564ff8ea4db303e23b6d1ecf
    Z: 1.0
    valence: 1
    core: 0
    charge: 0.0
    file: /home/modules/software/GPAW-setups/0.9.20000/H.PBE.gz
    compensation charges: {type: gauss,
                           rc: 0.15,
                           lmax: 2}
    cutoffs: {filter: 0.85,
              core: 0.53}
    valence states:
      #              energy  rcut
      - 1s(1.00)    -6.494   0.476
      -  s          20.717   0.476
      -  p           0.000   0.476
  
    # LCAO basis set for H:
    #   Name: dzp
    #   File: /home/modules/software/GPAW-setups/0.9.20000/H.dzp.basis.gz
    #   Number of radial functions: 3
    #   Number of spherical harmonics: 5
    #     l=0, rc=6.4219 Bohr: 1s-sz confined orbital
    #     l=0, rc=3.6094 Bohr: 1s-dz split-valence wave
    #     l=1, rc=6.4219 Bohr: p-type Gaussian polarization
    #   Number of RI-basis functions 0

  O:
    name: Oxygen
    id: 32ecd46bf208036f09c70b0ec9a88b78
    Z: 8.0
    valence: 6
    core: 2
    charge: 0.0
    file: /home/modules/software/GPAW-setups/0.9.20000/O.PBE.gz
    compensation charges: {type: gauss,
                           rc: 0.21,
                           lmax: 2}
    cutoffs: {filter: 1.17,
              core: 0.83}
    valence states:
      #              energy  rcut
      - 2s(2.00)   -23.961   0.688
      - 2p(4.00)    -9.029   0.598
      -  s           3.251   0.688
      -  p          18.182   0.598
      -  d           0.000   0.619
  
    # LCAO basis set for O:
    #   Name: dzp
    #   File: /home/modules/software/GPAW-setups/0.9.20000/O.dzp.basis.gz
    #   Number of radial functions: 5
    #   Number of spherical harmonics: 13
    #     l=0, rc=4.3438 Bohr: 2s-sz confined orbital
    #     l=1, rc=5.3906 Bohr: 2p-sz confined orbital
    #     l=0, rc=2.2969 Bohr: 2s-dz split-valence wave
    #     l=1, rc=2.8906 Bohr: 2p-dz split-valence wave
    #     l=2, rc=5.3906 Bohr: d-type Gaussian polarization
    #   Number of RI-basis functions 0

  C:
    name: Carbon
    id: 4aa54d4b901d75f77cc0ea3eec22967b
    Z: 6.0
    valence: 4
    core: 2
    charge: 0.0
    file: /home/modules/software/GPAW-setups/0.9.20000/C.PBE.gz
    compensation charges: {type: gauss,
                           rc: 0.20,
                           lmax: 2}
    cutoffs: {filter: 1.14,
              core: 1.14}
    valence states:
      #              energy  rcut
      - 2s(2.00)   -13.751   0.635
      - 2p(2.00)    -5.284   0.635
      -  s          13.461   0.635
      -  p          21.927   0.635
      -  d           0.000   0.635
  
    # LCAO basis set for C:
    #   Name: dzp
    #   File: /home/modules/software/GPAW-setups/0.9.20000/C.dzp.basis.gz
    #   Number of radial functions: 5
    #   Number of spherical harmonics: 13
    #     l=0, rc=5.5469 Bohr: 2s-sz confined orbital
    #     l=1, rc=6.6719 Bohr: 2p-sz confined orbital
    #     l=0, rc=3.0312 Bohr: 2s-dz split-valence wave
    #     l=1, rc=3.7500 Bohr: 2p-dz split-valence wave
    #     l=2, rc=6.6719 Bohr: d-type Gaussian polarization
    #   Number of RI-basis functions 0

Reference energy: -18019662.510624  # eV

Spin-paired calculation

Convergence criteria:
 Maximum [total energy] change in last 3 cyles: 0.0005 eV / electron
 Maximum integral of absolute [dens]ity change: 0.0001 electrons / valence electron
 Maximum integral of absolute [eigenst]ate change: 4e-08 eV^2 / valence electron
 Maximum number of scf [iter]ations: 333
 (Square brackets indicate name in SCF output, whereas a 'c' in
 the SCF output indicates the quantity has converged.)

Symmetries present (total): 1

  ( 1  0  0)
  ( 0  1  0)
  ( 0  0  1)

16 k-points: 4 x 4 x 1 Monkhorst-Pack grid
8 k-points in the irreducible part of the Brillouin zone
       k-points in crystal coordinates                weights
   0:     0.12500000   -0.37500000    0.00000000          2/16
   1:     0.12500000   -0.12500000    0.00000000          2/16
   2:     0.12500000    0.12500000    0.00000000          2/16
   3:     0.12500000    0.37500000    0.00000000          2/16
   4:     0.37500000   -0.37500000    0.00000000          2/16
   5:     0.37500000   -0.12500000    0.00000000          2/16
   6:     0.37500000    0.12500000    0.00000000          2/16
   7:     0.37500000    0.37500000    0.00000000          2/16

Wave functions: Uniform real-space grid
  Kinetic energy operator: 8*3+1=25 point O(h^6) finite-difference Laplacian
  ScaLapack parameters: grid=1x1, blocksize=None
  Wavefunction extrapolation:
    Improved wavefunction reuse through dual PAW basis 

Occupation numbers: Fermi-Dirac:
  width: 0.1000  # eV
 

Eigensolver
   Davidson(niter=2) 

Densities:
  Coarse grid: 40*40*148 grid
  Fine grid: 80*80*296 grid
  Total Charge: 0.000000 

Density mixing:
  Method: separate
  Backend: pulay
  Linear mixing parameter: 0.05
  old densities: 5
  Damping of long wavelength oscillations: 50 

Hamiltonian:
  XC and Coulomb potentials evaluated on a 80*80*296 grid
  Using the BEEF-vdW Exchange-Correlation functional
  Interpolation: tri-quintic (5. degree polynomial)
  Poisson solver: FastPoissonSolver using
    Stencil: 8*3+1=25 point O(h^6) finite-difference Laplacian
    FFT axes: [0, 1]
    FST axes: [2]
 

XC parameters: BEEF-vdW with 2 nearest neighbor stencil

Memory estimate:
  Process memory now: 218.32 MiB
  Calculator: 615.99 MiB
    Density: 61.61 MiB
      Arrays: 9.35 MiB
      Localized functions: 48.72 MiB
      Mixer: 3.54 MiB
    Hamiltonian: 9.14 MiB
      Arrays: 6.12 MiB
      XC: 0.00 MiB
      Poisson: 0.00 MiB
      vbar: 3.03 MiB
    Wavefunctions: 545.23 MiB
      Arrays psit_nG: 257.01 MiB
      Eigensolver: 280.66 MiB
      Projections: 0.78 MiB
      Projectors: 6.78 MiB

Total number of cores used: 40
Parallelization over k-points: 8
Domain decomposition: 1 x 1 x 5

Number of atoms: 41
Number of atomic orbitals: 1029
Number of bands in calculation: 363
Number of valence electrons: 597
Bands to converge: occupied

... initialized

Initializing position-dependent things.

Density initialized from atomic densities
Creating initial wave functions:
  363 bands from LCAO basis set

                                             
                                             
                                             
                                             
                                             
                                             
                                             
                   O                         
                  H                          
           Pt    POC    Pt                   
                  C                          
            Pt     Pt    PPt                 
              Pt    PPt    PPt               
                                             
               Pt    PPt    PPt              
                                             
                Pt     Pt     Pt             
                  Pt     Pt     Pt           
           Pt    Pt     Pt                   
            Pt     Pt     Pt                 
                                             
              Pt     Pt     Pt               
                                             
                                             
                                             
                                             

Positions:
   0 Pt     0.000000    0.000000    9.999999    ( 0.0000,  0.0000,  0.0000)
   1 Pt     1.419843    0.819746   12.318592    ( 0.0000,  0.0000,  0.0000)
   2 Pt    -0.000000    1.640639   14.624752    ( 0.0000,  0.0000,  0.0000)
   3 Pt     0.000000    0.000000   16.964617    ( 0.0000,  0.0000,  0.0000)
   4 Pt    -1.419843    2.459239    9.999999    ( 0.0000,  0.0000,  0.0000)
   5 Pt     0.000000    3.278986   12.318592    ( 0.0000,  0.0000,  0.0000)
   6 Pt    -1.421365    4.097854   14.620818    ( 0.0000,  0.0000,  0.0000)
   7 Pt    -1.420304    2.459321   16.958214    ( 0.0000,  0.0000,  0.0000)
   8 Pt    -2.839685    4.918479    9.999999    ( 0.0000,  0.0000,  0.0000)
   9 Pt    -1.419843    5.738225   12.318592    ( 0.0000,  0.0000,  0.0000)
  10 Pt    -2.838693    6.557399   14.624752    ( 0.0000,  0.0000,  0.0000)
  11 Pt    -2.839845    4.918039   16.958214    ( 0.0000,  0.0000,  0.0000)
  12 Pt     2.839685    0.000000    9.999999    ( 0.0000,  0.0000,  0.0000)
  13 Pt     4.259528    0.819746   12.318592    ( 0.0000,  0.0000,  0.0000)
  14 Pt     2.839698    1.639501   14.619309    ( 0.0000,  0.0000,  0.0000)
  15 Pt     2.839987    0.000358   16.958214    ( 0.0000,  0.0000,  0.0000)
  16 Pt     1.419843    2.459239    9.999999    ( 0.0000,  0.0000,  0.0000)
  17 Pt     2.839685    3.278986   12.318592    ( 0.0000,  0.0000,  0.0000)
  18 Pt     1.421365    4.097854   14.620818    ( 0.0000,  0.0000,  0.0000)
  19 Pt     1.420304    2.459321   16.958214    ( 0.0000,  0.0000,  0.0000)
  20 Pt     0.000000    4.918479    9.999999    ( 0.0000,  0.0000,  0.0000)
  21 Pt     1.419843    5.738225   12.318592    ( 0.0000,  0.0000,  0.0000)
  22 Pt    -0.000000    6.559730   14.620818    ( 0.0000,  0.0000,  0.0000)
  23 Pt    -0.000000    4.918479   16.949331    ( 0.0000,  0.0000,  0.0000)
  24 Pt     5.679370    0.000000    9.999999    ( 0.0000,  0.0000,  0.0000)
  25 Pt     7.099213    0.819746   12.318592    ( 0.0000,  0.0000,  0.0000)
  26 Pt     5.679357    1.639501   14.619309    ( 0.0000,  0.0000,  0.0000)
  27 Pt     5.679069    0.000358   16.958214    ( 0.0000,  0.0000,  0.0000)
  28 Pt     4.259528    2.459239    9.999999    ( 0.0000,  0.0000,  0.0000)
  29 Pt     5.679370    3.278986   12.318592    ( 0.0000,  0.0000,  0.0000)
  30 Pt     4.259528    4.098717   14.619309    ( 0.0000,  0.0000,  0.0000)
  31 Pt     4.259528    2.459239   16.950151    ( 0.0000,  0.0000,  0.0000)
  32 Pt     2.839685    4.918479    9.999999    ( 0.0000,  0.0000,  0.0000)
  33 Pt     4.259528    5.738225   12.318592    ( 0.0000,  0.0000,  0.0000)
  34 Pt     2.838693    6.557399   14.624752    ( 0.0000,  0.0000,  0.0000)
  35 Pt     2.839845    4.918039   16.958214    ( 0.0000,  0.0000,  0.0000)
  36 H      1.484971   -0.103259   20.295459    ( 0.0000,  0.0000,  0.0000)
  37 O      1.462454   -0.468895   19.503386    ( 0.0000,  0.0000,  0.0000)
  38 C      1.466207    0.397560   18.504293    ( 0.0000,  0.0000,  0.0000)
  39 C      1.392893    1.893528   18.746400    ( 0.0000,  0.0000,  0.0000)
  40 O      1.445446    2.522076   20.029780    ( 0.0000,  0.0000,  0.0000)

Unit cell:
           periodic     x           y           z      points  spacing
  1. axis:    yes    8.519055    0.000000    0.000000    40     0.1844
  2. axis:    yes   -4.259528    7.377718    0.000000    40     0.1844
  3. axis:    no     0.000000    0.000000   26.955778   148     0.1821

  Lengths:   8.519055   8.519055  26.955778
  Angles:   90.000000  90.000000 120.000000

Effective grid spacing dv^(1/3) = 0.1927

     iter     time        total  log10-change:
                         energy  eigst   dens
iter:   1 01:44:31 -11986.610569
iter:   2 01:45:13 -12117.211255  -0.04  -1.26
iter:   3 01:45:55 -11967.944754  -0.98  -1.04
iter:   4 01:46:38 -11958.220755  -1.42  -1.37
iter:   5 01:47:20 -11956.709020  -1.78  -1.46
iter:   6 01:48:02 -11954.707725  -1.30  -1.52
iter:   7 01:48:44 -11954.696723  -1.42  -1.70
iter:   8 01:49:27 -11952.881930  -2.13  -1.85
iter:   9 01:50:09 -11952.509793  -2.65  -1.98
iter:  10 01:50:51 -11952.416986  -2.36  -2.07
iter:  11 01:51:33 -11952.474845c -2.64  -2.22
iter:  12 01:52:16 -11952.452391c -2.82  -2.36
iter:  13 01:52:58 -11952.462204c -3.17  -2.44
iter:  14 01:53:40 -11952.641478c -3.25  -2.53
iter:  15 01:54:22 -11952.395831c -3.29  -2.34
iter:  16 01:55:05 -11952.386616c -3.38  -2.74
iter:  17 01:55:47 -11952.379602c -3.90  -2.89
iter:  18 01:56:29 -11952.377712c -4.27  -2.96
iter:  19 01:57:11 -11952.378355c -4.16  -3.02
iter:  20 01:57:53 -11952.396111c -4.30  -3.12
iter:  21 01:58:36 -11952.381442c -4.39  -2.94
iter:  22 01:59:18 -11952.380966c -5.11  -3.22
iter:  23 02:00:00 -11952.380629c -4.82  -3.32
iter:  24 02:00:42 -11952.380347c -5.36  -3.65
iter:  25 02:01:25 -11952.380424c -5.75  -3.74
iter:  26 02:02:07 -11952.381152c -5.72  -3.74
iter:  27 02:02:49 -11952.380357c -5.69  -3.56
iter:  28 02:03:31 -11952.380325c -6.21  -3.92
iter:  29 02:04:14 -11952.380376c -6.42  -4.08c
iter:  30 02:04:56 -11952.380392c -6.53  -4.08c
iter:  31 02:05:38 -11952.380358c -6.58  -4.17c
iter:  32 02:06:20 -11952.380360c -6.76  -4.40c
iter:  33 02:07:02 -11952.380376c -7.29  -4.45c
iter:  34 02:07:45 -11952.380375c -7.23  -4.44c
iter:  35 02:08:27 -11952.380381c -7.71c -4.68c

Converged after 35 iterations.

Dipole moment: (-5.447070, -6.672617, -0.100931) |e|*Ang

Energy contributions relative to reference atoms: (reference = -18019662.510624)

Kinetic:       +844.539891
Potential:     -865.833025
External:        +0.000000
XC:            -11912.121095
Entropy (-ST):   -2.246115
Local:          -17.843094
--------------------------
Free energy:   -11953.503438
Extrapolated:  -11952.380381

Showing only first 2 kpts
 Kpt  Band  Eigenvalues  Occupancy
  0   296     -5.96310    1.29487
  0   297     -5.92387    1.10731
  0   298     -5.90995    1.03811
  0   299     -5.86498    0.81542

  1   296     -6.15660    1.85418
  1   297     -6.10283    1.76265
  1   298     -6.05912    1.65500
  1   299     -6.04277    1.60578


Fermi level: -5.90232

No gap

Forces in eV/Ang:
  0 Pt    0.00582   -0.00190   -0.12873
  1 Pt    0.01226    0.01850    0.14337
  2 Pt   -0.07002    0.06395   -0.22534
  3 Pt    0.10085   -0.13315    0.66442
  4 Pt   -0.01135    0.01451   -0.11383
  5 Pt    0.00568    0.03366    0.12056
  6 Pt   -0.01209   -0.01026    0.00651
  7 Pt   -0.33884    0.12281   -0.08133
  8 Pt    0.00553   -0.01700   -0.11585
  9 Pt    0.04097   -0.00394    0.10589
 10 Pt   -0.00202   -0.08084   -0.24285
 11 Pt   -0.01154   -0.46569   -0.19512
 12 Pt    0.00756    0.00068   -0.10860
 13 Pt    0.06329   -0.06671    0.02831
 14 Pt    0.07139    0.08632   -0.21776
 15 Pt    0.03202   -0.12823    0.58274
 16 Pt    0.00904   -0.00106   -0.11417
 17 Pt   -0.02738    0.04656    0.08018
 18 Pt    0.00612   -0.02142   -0.04846
 19 Pt   -0.07420    1.80431   -1.16962
 20 Pt   -0.03642   -0.00628   -0.07739
 21 Pt    0.00856    0.00415   -0.26584
 22 Pt   -0.08573    0.07085    0.13666
 23 Pt    0.03044    0.04792   -0.06298
 24 Pt   -0.01320    0.01598   -0.13258
 25 Pt   -0.08157   -0.04173    0.03178
 26 Pt    0.00164    0.01374   -0.00413
 27 Pt   -0.00424   -0.03223   -0.07285
 28 Pt    0.00645    0.00595   -0.07572
 29 Pt    0.00825    0.00738    0.08754
 30 Pt    0.01375   -0.01172    0.01278
 31 Pt    0.32624    0.12922   -0.08426
 32 Pt    0.03442   -0.02551   -0.12033
 33 Pt   -0.05427   -0.02476    0.06814
 34 Pt    0.07380    0.06391    0.12232
 35 Pt   -0.01328    0.04961   -0.06480
 36 H     0.10687    3.15593    6.14839
 37 O    -0.05251   -3.53975   -5.21687
 38 C    -0.37339    0.95289   -0.30185
 39 C     0.70101    1.39012    7.78966
 40 O    -0.40319   -3.46214   -6.85429

      Step     Time          Energy         fmax
BFGS:    0 02:08:48   -11952.380381        7.9437
System changes: positions 

Initializing position-dependent things.

Density initialized from wave functions
                                             
                                             
                                             
                                             
                                             
                                             
                                             
                   O                         
                  H                          
           Pt     OC    Pt                   
                  C                          
            Pt     Pt    PPt                 
              Pt     Pt     Pt               
              Pt    Pt     Pt                
               Pt    PPt    PPt              
                                             
                Pt     Pt     Pt             
                  Pt     Pt     Pt           
           Pt     Pt    Pt                   
            Pt     Pt     Pt                 
                                             
              Pt     Pt     Pt               
                                             
                                             
                                             
                                             

Positions:
   0 Pt     0.000000    0.000000    9.999999    ( 0.0000,  0.0000,  0.0000)
   1 Pt     1.419843    0.819746   12.318592    ( 0.0000,  0.0000,  0.0000)
   2 Pt    -0.001000    1.641552   14.621533    ( 0.0000,  0.0000,  0.0000)
   3 Pt     0.001441   -0.001902   16.974108    ( 0.0000,  0.0000,  0.0000)
   4 Pt    -1.419843    2.459239    9.999999    ( 0.0000,  0.0000,  0.0000)
   5 Pt     0.000000    3.278986   12.318592    ( 0.0000,  0.0000,  0.0000)
   6 Pt    -1.421537    4.097707   14.620911    ( 0.0000,  0.0000,  0.0000)
   7 Pt    -1.425144    2.461076   16.957052    ( 0.0000,  0.0000,  0.0000)
   8 Pt    -2.839685    4.918479    9.999999    ( 0.0000,  0.0000,  0.0000)
   9 Pt    -1.419843    5.738225   12.318592    ( 0.0000,  0.0000,  0.0000)
  10 Pt    -2.838722    6.556244   14.621283    ( 0.0000,  0.0000,  0.0000)
  11 Pt    -2.840010    4.911386   16.955426    ( 0.0000,  0.0000,  0.0000)
  12 Pt     2.839685    0.000000    9.999999    ( 0.0000,  0.0000,  0.0000)
  13 Pt     4.259528    0.819746   12.318592    ( 0.0000,  0.0000,  0.0000)
  14 Pt     2.840718    1.640734   14.616198    ( 0.0000,  0.0000,  0.0000)
  15 Pt     2.840444   -0.001473   16.966539    ( 0.0000,  0.0000,  0.0000)
  16 Pt     1.419843    2.459239    9.999999    ( 0.0000,  0.0000,  0.0000)
  17 Pt     2.839685    3.278986   12.318592    ( 0.0000,  0.0000,  0.0000)
  18 Pt     1.421452    4.097548   14.620126    ( 0.0000,  0.0000,  0.0000)
  19 Pt     1.419244    2.485097   16.941505    ( 0.0000,  0.0000,  0.0000)
  20 Pt     0.000000    4.918479    9.999999    ( 0.0000,  0.0000,  0.0000)
  21 Pt     1.419843    5.738225   12.318592    ( 0.0000,  0.0000,  0.0000)
  22 Pt    -0.001225    6.560742   14.622771    ( 0.0000,  0.0000,  0.0000)
  23 Pt     0.000435    4.919164   16.948431    ( 0.0000,  0.0000,  0.0000)
  24 Pt     5.679370    0.000000    9.999999    ( 0.0000,  0.0000,  0.0000)
  25 Pt     7.099213    0.819746   12.318592    ( 0.0000,  0.0000,  0.0000)
  26 Pt     5.679381    1.639697   14.619250    ( 0.0000,  0.0000,  0.0000)
  27 Pt     5.679008   -0.000102   16.957173    ( 0.0000,  0.0000,  0.0000)
  28 Pt     4.259528    2.459239    9.999999    ( 0.0000,  0.0000,  0.0000)
  29 Pt     5.679370    3.278986   12.318592    ( 0.0000,  0.0000,  0.0000)
  30 Pt     4.259724    4.098550   14.619491    ( 0.0000,  0.0000,  0.0000)
  31 Pt     4.264188    2.461085   16.948947    ( 0.0000,  0.0000,  0.0000)
  32 Pt     2.839685    4.918479    9.999999    ( 0.0000,  0.0000,  0.0000)
  33 Pt     4.259528    5.738225   12.318592    ( 0.0000,  0.0000,  0.0000)
  34 Pt     2.839747    6.558312   14.626500    ( 0.0000,  0.0000,  0.0000)
  35 Pt     2.839655    4.918747   16.957288    ( 0.0000,  0.0000,  0.0000)
  36 H      1.486498   -0.058174   20.383293    ( 0.0000,  0.0000,  0.0000)
  37 O      1.461704   -0.519463   19.428859    ( 0.0000,  0.0000,  0.0000)
  38 C      1.460873    0.411173   18.499981    ( 0.0000,  0.0000,  0.0000)
  39 C      1.402907    1.913387   18.857681    ( 0.0000,  0.0000,  0.0000)
  40 O      1.439686    2.472617   19.931862    ( 0.0000,  0.0000,  0.0000)

Unit cell:
           periodic     x           y           z      points  spacing
  1. axis:    yes    8.519055    0.000000    0.000000    40     0.1844
  2. axis:    yes   -4.259528    7.377718    0.000000    40     0.1844
  3. axis:    no     0.000000    0.000000   26.955778   148     0.1821

  Lengths:   8.519055   8.519055  26.955778
  Angles:   90.000000  90.000000 120.000000

Effective grid spacing dv^(1/3) = 0.1927

     iter     time        total  log10-change:
                         energy  eigst   dens
iter:   1 02:10:31 -11956.809554  -0.95
iter:   2 02:11:14 -11955.230062  -1.77  -2.26
iter:   3 02:11:57 -11956.161163  -2.05  -2.34
iter:   4 02:12:40 -11955.627237  -2.29  -1.96
iter:   5 02:13:23 -11954.217691  -2.33  -2.00
iter:   6 02:14:06 -11953.916698  -2.32  -2.31
iter:   7 02:14:48 -11953.791107  -2.64  -2.53
iter:   8 02:15:31 -11953.758015c -2.70  -2.81
iter:   9 02:16:14 -11953.739358c -2.98  -2.81
iter:  10 02:16:57 -11953.726716c -3.32  -2.88
iter:  11 02:17:40 -11953.743499c -3.84  -3.00
iter:  12 02:18:23 -11953.715594c -4.17  -2.84
iter:  13 02:19:06 -11953.713774c -4.30  -3.29
iter:  14 02:19:48 -11953.713279c -4.60  -3.42
iter:  15 02:20:31 -11953.713189c -4.87  -3.55
iter:  16 02:21:14 -11953.713518c -5.13  -3.69
iter:  17 02:21:57 -11953.716046c -5.17  -3.66
iter:  18 02:22:39 -11953.713229c -5.30  -3.34
iter:  19 02:23:22 -11953.713151c -5.87  -3.82
iter:  20 02:24:05 -11953.713169c -5.66  -3.97
iter:  21 02:24:48 -11953.713153c -5.73  -4.07c
iter:  22 02:25:31 -11953.713156c -6.10  -4.23c
iter:  23 02:26:14 -11953.713264c -6.39  -4.39c
iter:  24 02:26:56 -11953.713218c -6.55  -4.06c
iter:  25 02:27:39 -11953.713208c -6.74  -4.29c
iter:  26 02:28:22 -11953.713220c -7.00  -4.53c
iter:  27 02:29:05 -11953.713216c -7.21  -4.53c
iter:  28 02:29:48 -11953.713217c -7.46c -4.63c

Converged after 28 iterations.

Dipole moment: (-4.486041, -8.137108, 0.262340) |e|*Ang

Energy contributions relative to reference atoms: (reference = -18019662.510624)

Kinetic:       +842.735060
Potential:     -865.295098
External:        +0.000000
XC:            -11912.256724
Entropy (-ST):   -2.243939
Local:          -17.774486
--------------------------
Free energy:   -11954.835186
Extrapolated:  -11953.713217

Showing only first 2 kpts
 Kpt  Band  Eigenvalues  Occupancy
  0   296     -5.63499    1.29195
  0   297     -5.59120    1.08159
  0   298     -5.58220    1.03672
  0   299     -5.53577    0.80705

  1   296     -5.82718    1.85152
  1   297     -5.77481    1.76151
  1   298     -5.72889    1.64705
  1   299     -5.71442    1.60302


Fermi level: -5.57485

No gap

Forces in eV/Ang:
  0 Pt    0.00613   -0.00222   -0.12994
  1 Pt    0.01242    0.01932    0.12591
  2 Pt   -0.05941    0.01842   -0.16549
  3 Pt    0.09865    0.07957    0.55324
  4 Pt   -0.01086    0.01725   -0.11626
  5 Pt    0.00242    0.03771    0.10865
  6 Pt   -0.00454   -0.00691   -0.01010
  7 Pt   -0.25336    0.08391   -0.06441
  8 Pt    0.00596   -0.01841   -0.12187
  9 Pt    0.04692   -0.00466    0.10023
 10 Pt   -0.00416   -0.05349   -0.17913
 11 Pt   -0.00935   -0.42794   -0.20348
 12 Pt    0.00685   -0.00040   -0.10937
 13 Pt    0.05983   -0.06658    0.03359
 14 Pt    0.06136    0.04093   -0.15609
 15 Pt    0.02497    0.09190    0.47092
 16 Pt    0.00903   -0.00087   -0.11636
 17 Pt   -0.02395    0.05022    0.06937
 18 Pt    0.00473    0.03678   -0.10822
 19 Pt   -0.08543    0.97686    0.37069
 20 Pt   -0.03795   -0.00800   -0.07910
 21 Pt    0.00674   -0.00144   -0.24567
 22 Pt   -0.08432    0.06763    0.12671
 23 Pt    0.01622    0.04566   -0.04643
 24 Pt   -0.01360    0.01443   -0.12681
 25 Pt   -0.07861   -0.04195    0.03559
 26 Pt    0.00162    0.00388   -0.01503
 27 Pt   -0.00024   -0.01938   -0.05540
 28 Pt    0.00558    0.00843   -0.07770
 29 Pt    0.00833    0.00689    0.08122
 30 Pt    0.00725   -0.00801   -0.00583
 31 Pt    0.23982    0.09087   -0.05996
 32 Pt    0.03549   -0.02687   -0.12085
 33 Pt   -0.05950   -0.02510    0.06406
 34 Pt    0.07463    0.06472    0.12251
 35 Pt   -0.00450    0.05042   -0.05199
 36 H    -0.10355   -1.25085   -2.39290
 37 O     0.10190    0.62051    4.23806
 38 C    -0.30342    0.86814   -1.09111
 39 C     0.42868   -0.64459    0.05837
 40 O    -0.23283   -0.62996   -0.69643

BFGS:    1 02:30:09   -11953.713217        4.2845
System changes: positions 

Initializing position-dependent things.

Density initialized from wave functions
                                             
                                             
                                             
                                             
                                             
                                             
                                             
                   O                         
                  H                          
           Pt     OC    Pt                   
                  C                          
            Pt     Pt    PPt                 
              Pt     Pt     Pt               
              Pt    Pt     Pt                
               Pt    PPt    PPt              
                                             
                Pt     Pt     Pt             
                  Pt     Pt     Pt           
           Pt     Pt    Pt                   
            Pt     Pt     Pt                 
                                             
              Pt     Pt     Pt               
                                             
                                             
                                             
                                             

Positions:
   0 Pt     0.000000    0.000000    9.999999    ( 0.0000,  0.0000,  0.0000)
   1 Pt     1.419843    0.819746   12.318592    ( 0.0000,  0.0000,  0.0000)
   2 Pt    -0.001833    1.641866   14.619174    ( 0.0000,  0.0000,  0.0000)
   3 Pt     0.002802   -0.001089   16.981875    ( 0.0000,  0.0000,  0.0000)
   4 Pt    -1.419843    2.459239    9.999999    ( 0.0000,  0.0000,  0.0000)
   5 Pt     0.000000    3.278986   12.318592    ( 0.0000,  0.0000,  0.0000)
   6 Pt    -1.421610    4.097608   14.620794    ( 0.0000,  0.0000,  0.0000)
   7 Pt    -1.428747    2.462283   16.956142    ( 0.0000,  0.0000,  0.0000)
   8 Pt    -2.839685    4.918479    9.999999    ( 0.0000,  0.0000,  0.0000)
   9 Pt    -1.419843    5.738225   12.318592    ( 0.0000,  0.0000,  0.0000)
  10 Pt    -2.838776    6.555471   14.618731    ( 0.0000,  0.0000,  0.0000)
  11 Pt    -2.840141    4.905443   16.952635    ( 0.0000,  0.0000,  0.0000)
  12 Pt     2.839685    0.000000    9.999999    ( 0.0000,  0.0000,  0.0000)
  13 Pt     4.259528    0.819746   12.318592    ( 0.0000,  0.0000,  0.0000)
  14 Pt     2.841577    1.641358   14.613966    ( 0.0000,  0.0000,  0.0000)
  15 Pt     2.840797   -0.000501   16.973172    ( 0.0000,  0.0000,  0.0000)
  16 Pt     1.419843    2.459239    9.999999    ( 0.0000,  0.0000,  0.0000)
  17 Pt     2.839685    3.278986   12.318592    ( 0.0000,  0.0000,  0.0000)
  18 Pt     1.421519    4.097977   14.618715    ( 0.0000,  0.0000,  0.0000)
  19 Pt     1.418082    2.499650   16.944561    ( 0.0000,  0.0000,  0.0000)
  20 Pt     0.000000    4.918479    9.999999    ( 0.0000,  0.0000,  0.0000)
  21 Pt     1.419843    5.738225   12.318592    ( 0.0000,  0.0000,  0.0000)
  22 Pt    -0.002388    6.561677   14.624529    ( 0.0000,  0.0000,  0.0000)
  23 Pt     0.000677    4.919795   16.947770    ( 0.0000,  0.0000,  0.0000)
  24 Pt     5.679370    0.000000    9.999999    ( 0.0000,  0.0000,  0.0000)
  25 Pt     7.099213    0.819746   12.318592    ( 0.0000,  0.0000,  0.0000)
  26 Pt     5.679403    1.639763   14.619057    ( 0.0000,  0.0000,  0.0000)
  27 Pt     5.679000   -0.000386   16.956387    ( 0.0000,  0.0000,  0.0000)
  28 Pt     4.259528    2.459239    9.999999    ( 0.0000,  0.0000,  0.0000)
  29 Pt     5.679370    3.278986   12.318592    ( 0.0000,  0.0000,  0.0000)
  30 Pt     4.259833    4.098435   14.619436    ( 0.0000,  0.0000,  0.0000)
  31 Pt     4.267606    2.462388   16.948089    ( 0.0000,  0.0000,  0.0000)
  32 Pt     2.839685    4.918479    9.999999    ( 0.0000,  0.0000,  0.0000)
  33 Pt     4.259528    5.738225   12.318592    ( 0.0000,  0.0000,  0.0000)
  34 Pt     2.840774    6.559202   14.628186    ( 0.0000,  0.0000,  0.0000)
  35 Pt     2.839581    4.919441   16.956555    ( 0.0000,  0.0000,  0.0000)
  36 H      1.485352   -0.069539   20.361701    ( 0.0000,  0.0000,  0.0000)
  37 O      1.462902   -0.516451   19.474646    ( 0.0000,  0.0000,  0.0000)
  38 C      1.456601    0.423240   18.486005    ( 0.0000,  0.0000,  0.0000)
  39 C      1.409173    1.907216   18.868768    ( 0.0000,  0.0000,  0.0000)
  40 O      1.436253    2.460175   19.914081    ( 0.0000,  0.0000,  0.0000)

Unit cell:
           periodic     x           y           z      points  spacing
  1. axis:    yes    8.519055    0.000000    0.000000    40     0.1844
  2. axis:    yes   -4.259528    7.377718    0.000000    40     0.1844
  3. axis:    no     0.000000    0.000000   26.955778   148     0.1821

  Lengths:   8.519055   8.519055  26.955778
  Angles:   90.000000  90.000000 120.000000

Effective grid spacing dv^(1/3) = 0.1927

     iter     time        total  log10-change:
                         energy  eigst   dens
iter:   1 02:31:51 -11954.789326  -1.84
iter:   2 02:32:34 -11960.666946  -1.95  -2.22
iter:   3 02:33:17 -11954.437168  -2.30  -1.77
iter:   4 02:34:00 -11954.028296  -3.15  -2.35
iter:   5 02:34:43 -11953.983576  -3.14  -2.85
iter:   6 02:35:26 -11953.967001c -3.56  -2.80
iter:   7 02:36:09 -11953.944994c -3.63  -2.84
iter:   8 02:36:52 -11953.929187c -3.53  -3.06
iter:   9 02:37:35 -11953.929142c -3.74  -3.47
iter:  10 02:38:18 -11953.932333c -4.48  -3.40
iter:  11 02:39:01 -11953.927063c -4.73  -3.23
iter:  12 02:39:44 -11953.927056c -4.95  -3.75
iter:  13 02:40:27 -11953.927042c -5.42  -3.90
iter:  14 02:41:10 -11953.927001c -5.70  -3.88
iter:  15 02:41:53 -11953.926886c -6.03  -3.91
iter:  16 02:42:36 -11953.926884c -6.17  -4.10c
iter:  17 02:43:19 -11953.926940c -6.46  -4.37c
iter:  18 02:44:03 -11953.926983c -6.67  -4.28c
iter:  19 02:44:46 -11953.926981c -6.57  -4.22c
iter:  20 02:45:29 -11953.926989c -6.71  -4.40c
iter:  21 02:46:12 -11953.926978c -6.88  -4.47c
iter:  22 02:46:55 -11953.926977c -7.10  -4.69c
iter:  23 02:47:38 -11953.926977c -7.27  -4.84c
iter:  24 02:48:21 -11953.926978c -7.68c -5.02c

Converged after 24 iterations.

Dipole moment: (-4.445365, -7.786809, 0.243828) |e|*Ang

Energy contributions relative to reference atoms: (reference = -18019662.510624)

Kinetic:       +845.386556
Potential:     -867.365296
External:        +0.000000
XC:            -11913.059195
Entropy (-ST):   -2.243264
Local:          -17.767410
--------------------------
Free energy:   -11955.048609
Extrapolated:  -11953.926978

Showing only first 2 kpts
 Kpt  Band  Eigenvalues  Occupancy
  0   296     -5.65148    1.29439
  0   297     -5.60588    1.07523
  0   298     -5.59807    1.03629
  0   299     -5.55204    0.80854

  1   296     -5.84426    1.85306
  1   297     -5.79144    1.76293
  1   298     -5.74377    1.64392
  1   299     -5.73041    1.60310


Fermi level: -5.59081

No gap

Forces in eV/Ang:
  0 Pt    0.00693   -0.00185   -0.12998
  1 Pt    0.01268    0.01926    0.11638
  2 Pt   -0.03952    0.00839   -0.11540
  3 Pt    0.09699    0.08285    0.51589
  4 Pt   -0.00998    0.01791   -0.11543
  5 Pt    0.00036    0.04316    0.10069
  6 Pt    0.00328   -0.00468   -0.02145
  7 Pt   -0.20838    0.06167   -0.06257
  8 Pt    0.00605   -0.01819   -0.12136
  9 Pt    0.05336   -0.00635    0.09719
 10 Pt   -0.00529   -0.03189   -0.13071
 11 Pt   -0.00827   -0.34672   -0.17328
 12 Pt    0.00607   -0.00024   -0.10928
 13 Pt    0.06097   -0.06921    0.03491
 14 Pt    0.04336    0.02879   -0.10597
 15 Pt    0.01630    0.08854    0.44367
 16 Pt    0.00911   -0.00180   -0.11586
 17 Pt   -0.02145    0.05570    0.06257
 18 Pt    0.00268    0.04952   -0.11890
 19 Pt   -0.06716    0.84054    0.34029
 20 Pt   -0.04038   -0.00908   -0.07754
 21 Pt    0.00583    0.00257   -0.23972
 22 Pt   -0.08618    0.06925    0.12605
 23 Pt    0.00596    0.05458   -0.03558
 24 Pt   -0.01394    0.01516   -0.11900
 25 Pt   -0.07962   -0.04529    0.03675
 26 Pt    0.00077   -0.00292   -0.02388
 27 Pt    0.00096   -0.01495   -0.04800
 28 Pt    0.00440    0.00871   -0.07668
 29 Pt    0.00833    0.00735    0.07911
 30 Pt    0.00009   -0.00560   -0.01846
 31 Pt    0.19053    0.06797   -0.05087
 32 Pt    0.03713   -0.02790   -0.11810
 33 Pt   -0.06540   -0.02631    0.06198
 34 Pt    0.07952    0.06885    0.13195
 35 Pt    0.00080    0.05791   -0.04387
 36 H    -0.04910   -0.36798   -0.69665
 37 O     0.06443    0.62708    1.24984
 38 C    -0.26590   -0.26473    0.19136
 39 C     0.31045   -1.37642   -1.84307
 40 O    -0.13138    0.33955    1.15637

BFGS:    2 02:48:41   -11953.926978        2.3212
System changes: positions 

Initializing position-dependent things.

Density initialized from wave functions
                                             
                                             
                                             
                                             
                                             
                                             
                                             
                   O                         
                  H                          
           Pt     OC    Pt                   
                  C                          
            Pt     Pt    PPt                 
              Pt     Pt     Pt               
              Pt    Pt     Pt                
               Pt    PPt    PPt              
                                             
                Pt     Pt     Pt             
                  Pt     Pt     Pt           
           Pt     Pt    Pt                   
            Pt     Pt     Pt                 
                                             
              Pt     Pt     Pt               
                                             
                                             
                                             
                                             

Positions:
   0 Pt     0.000000    0.000000    9.999999    ( 0.0000,  0.0000,  0.0000)
   1 Pt     1.419843    0.819746   12.318592    ( 0.0000,  0.0000,  0.0000)
   2 Pt    -0.002844    1.642143   14.616240    ( 0.0000,  0.0000,  0.0000)
   3 Pt     0.005024    0.000626   16.993916    ( 0.0000,  0.0000,  0.0000)
   4 Pt    -1.419843    2.459239    9.999999    ( 0.0000,  0.0000,  0.0000)
   5 Pt     0.000000    3.278986   12.318592    ( 0.0000,  0.0000,  0.0000)
   6 Pt    -1.421581    4.097487   14.620376    ( 0.0000,  0.0000,  0.0000)
   7 Pt    -1.433795    2.463833   16.954693    ( 0.0000,  0.0000,  0.0000)
   8 Pt    -2.839685    4.918479    9.999999    ( 0.0000,  0.0000,  0.0000)
   9 Pt    -1.419843    5.738225   12.318592    ( 0.0000,  0.0000,  0.0000)
  10 Pt    -2.838890    6.554612   14.615453    ( 0.0000,  0.0000,  0.0000)
  11 Pt    -2.840337    4.897088   16.948534    ( 0.0000,  0.0000,  0.0000)
  12 Pt     2.839685    0.000000    9.999999    ( 0.0000,  0.0000,  0.0000)
  13 Pt     4.259528    0.819746   12.318592    ( 0.0000,  0.0000,  0.0000)
  14 Pt     2.842666    1.642111   14.611245    ( 0.0000,  0.0000,  0.0000)
  15 Pt     2.841219    0.001373   16.983515    ( 0.0000,  0.0000,  0.0000)
  16 Pt     1.419843    2.459239    9.999999    ( 0.0000,  0.0000,  0.0000)
  17 Pt     2.839685    3.278986   12.318592    ( 0.0000,  0.0000,  0.0000)
  18 Pt     1.421592    4.098997   14.616103    ( 0.0000,  0.0000,  0.0000)
  19 Pt     1.416464    2.520137   16.951338    ( 0.0000,  0.0000,  0.0000)
  20 Pt     0.000000    4.918479    9.999999    ( 0.0000,  0.0000,  0.0000)
  21 Pt     1.419843    5.738225   12.318592    ( 0.0000,  0.0000,  0.0000)
  22 Pt    -0.004345    6.563251   14.627414    ( 0.0000,  0.0000,  0.0000)
  23 Pt     0.000877    4.920996   16.946890    ( 0.0000,  0.0000,  0.0000)
  24 Pt     5.679370    0.000000    9.999999    ( 0.0000,  0.0000,  0.0000)
  25 Pt     7.099213    0.819746   12.318592    ( 0.0000,  0.0000,  0.0000)
  26 Pt     5.679425    1.639739   14.618566    ( 0.0000,  0.0000,  0.0000)
  27 Pt     5.679013   -0.000759   16.955241    ( 0.0000,  0.0000,  0.0000)
  28 Pt     4.259528    2.459239    9.999999    ( 0.0000,  0.0000,  0.0000)
  29 Pt     5.679370    3.278986   12.318592    ( 0.0000,  0.0000,  0.0000)
  30 Pt     4.259876    4.098292   14.619094    ( 0.0000,  0.0000,  0.0000)
  31 Pt     4.272270    2.464085   16.946864    ( 0.0000,  0.0000,  0.0000)
  32 Pt     2.839685    4.918479    9.999999    ( 0.0000,  0.0000,  0.0000)
  33 Pt     4.259528    5.738225   12.318592    ( 0.0000,  0.0000,  0.0000)
  34 Pt     2.842562    6.560751   14.631147    ( 0.0000,  0.0000,  0.0000)
  35 Pt     2.839566    4.920722   16.955503    ( 0.0000,  0.0000,  0.0000)
  36 H      1.484107   -0.079225   20.343383    ( 0.0000,  0.0000,  0.0000)
  37 O      1.464450   -0.505265   19.511573    ( 0.0000,  0.0000,  0.0000)
  38 C      1.450292    0.423113   18.484334    ( 0.0000,  0.0000,  0.0000)
  39 C      1.417065    1.881109   18.842274    ( 0.0000,  0.0000,  0.0000)
  40 O      1.432607    2.460817   19.926330    ( 0.0000,  0.0000,  0.0000)

Unit cell:
           periodic     x           y           z      points  spacing
  1. axis:    yes    8.519055    0.000000    0.000000    40     0.1844
  2. axis:    yes   -4.259528    7.377718    0.000000    40     0.1844
  3. axis:    no     0.000000    0.000000   26.955778   148     0.1821

  Lengths:   8.519055   8.519055  26.955778
  Angles:   90.000000  90.000000 120.000000

Effective grid spacing dv^(1/3) = 0.1927

     iter     time        total  log10-change:
                         energy  eigst   dens
iter:   1 02:50:24 -11954.213185  -1.83
iter:   2 02:51:07 -11955.787292  -2.43  -2.52
iter:   3 02:51:51 -11954.075644  -2.87  -2.01
iter:   4 02:52:34 -11954.023833  -3.21  -2.76
iter:   5 02:53:17 -11953.979001c -3.35  -2.75
iter:   6 02:54:00 -11953.969976c -3.79  -3.07
iter:   7 02:54:43 -11953.961897c -3.76  -3.12
iter:   8 02:55:26 -11953.972576c -3.88  -3.32
iter:   9 02:56:09 -11953.959492c -4.09  -3.00
iter:  10 02:56:52 -11953.957453c -4.43  -3.37
iter:  11 02:57:36 -11953.957009c -4.87  -3.65
iter:  12 02:58:19 -11953.957020c -5.47  -3.84
iter:  13 02:59:02 -11953.957095c -5.69  -3.90
iter:  14 02:59:45 -11953.957779c -5.90  -4.00
iter:  15 03:00:28 -11953.957215c -6.10  -3.65
iter:  16 03:01:11 -11953.957238c -6.16  -3.99
iter:  17 03:01:54 -11953.957275c -6.23  -4.21c
iter:  18 03:02:37 -11953.957233c -6.39  -4.25c
iter:  19 03:03:20 -11953.957235c -6.82  -4.48c
iter:  20 03:04:03 -11953.957240c -7.03  -4.58c
iter:  21 03:04:47 -11953.957283c -7.21  -4.52c
iter:  22 03:05:30 -11953.957231c -7.12  -4.23c
iter:  23 03:06:13 -11953.957219c -7.39  -4.82c
iter:  24 03:06:56 -11953.957208c -7.54c -4.98c

Converged after 24 iterations.

Dipole moment: (-4.282204, -7.509842, 0.124055) |e|*Ang

Energy contributions relative to reference atoms: (reference = -18019662.510624)

Kinetic:       +843.958126
Potential:     -866.028452
External:        +0.000000
XC:            -11912.989019
Entropy (-ST):   -2.244073
Local:          -17.775826
--------------------------
Free energy:   -11955.079244
Extrapolated:  -11953.957208

Showing only first 2 kpts
 Kpt  Band  Eigenvalues  Occupancy
  0   296     -5.76014    1.29663
  0   297     -5.71280    1.06900
  0   298     -5.70589    1.03454
  0   299     -5.66064    0.81062

  1   296     -5.95403    1.85522
  1   297     -5.90048    1.76473
  1   298     -5.85158    1.64285
  1   299     -5.83812    1.60164


Fermi level: -5.69898

No gap

Forces in eV/Ang:
  0 Pt    0.00700   -0.00109   -0.13187
  1 Pt    0.01316    0.01943    0.10261
  2 Pt   -0.00859    0.00312   -0.05096
  3 Pt    0.06215    0.04262    0.36881
  4 Pt   -0.01023    0.01834   -0.11904
  5 Pt   -0.00021    0.04970    0.08799
  6 Pt    0.01382   -0.00001   -0.03602
  7 Pt   -0.15048    0.03052   -0.06334
  8 Pt    0.00622   -0.01895   -0.12443
  9 Pt    0.06259   -0.00774    0.09157
 10 Pt   -0.00632   -0.00017   -0.06023
 11 Pt   -0.00845   -0.23246   -0.13795
 12 Pt    0.00629    0.00028   -0.11066
 13 Pt    0.06339   -0.07498    0.03324
 14 Pt    0.01354    0.01975   -0.03980
 15 Pt    0.01174    0.04428    0.34161
 16 Pt    0.00908   -0.00248   -0.11766
 17 Pt   -0.02024    0.06208    0.05160
 18 Pt   -0.00047    0.04042   -0.10073
 19 Pt   -0.03428    0.66906    0.16632
 20 Pt   -0.04210   -0.00995   -0.07695
 21 Pt    0.00487    0.02332   -0.23971
 22 Pt   -0.08158    0.06566    0.10641
 23 Pt   -0.01529    0.08206   -0.02486
 24 Pt   -0.01462    0.02078   -0.11682
 25 Pt   -0.08241   -0.05189    0.03445
 26 Pt   -0.00041   -0.00948   -0.03581
 27 Pt    0.00290   -0.00595   -0.03843
 28 Pt    0.00467    0.00854   -0.08011
 29 Pt    0.00830    0.00747    0.07326
 30 Pt   -0.00995   -0.00102   -0.03431
 31 Pt    0.12662    0.03600   -0.04231
 32 Pt    0.03781   -0.02864   -0.11582
 33 Pt   -0.07399   -0.02697    0.05765
 34 Pt    0.07817    0.06784    0.12464
 35 Pt    0.01511    0.08072   -0.03578
 36 H     0.01328    1.04529    1.80978
 37 O    -0.02661   -0.48618   -1.92153
 38 C    -0.15528   -0.76393    0.78912
 39 C     0.19961    0.45260    1.23742
 40 O    -0.11707   -1.17159   -1.71858

BFGS:    3 03:07:16   -11953.957208        2.0900
System changes: positions 

Initializing position-dependent things.

Density initialized from wave functions
                                             
                                             
                                             
                                             
                                             
                                             
                                             
                   O                         
                  H                          
           Pt     OC    Pt                   
                  C                          
            Pt     Pt    PPt                 
              Pt     Pt     Pt               
              Pt    Pt     Pt                
               Pt    PPt    PPt              
                                             
                Pt     Pt     Pt             
                  Pt     Pt     Pt           
           Pt     Pt    Pt                   
            Pt     Pt     Pt                 
                                             
              Pt     Pt     Pt               
                                             
                                             
                                             
                                             

Positions:
   0 Pt     0.000000    0.000000    9.999999    ( 0.0000,  0.0000,  0.0000)
   1 Pt     1.419843    0.819746   12.318592    ( 0.0000,  0.0000,  0.0000)
   2 Pt    -0.002999    1.642185   14.615579    ( 0.0000,  0.0000,  0.0000)
   3 Pt     0.005732    0.001160   16.997996    ( 0.0000,  0.0000,  0.0000)
   4 Pt    -1.419843    2.459239    9.999999    ( 0.0000,  0.0000,  0.0000)
   5 Pt     0.000000    3.278986   12.318592    ( 0.0000,  0.0000,  0.0000)
   6 Pt    -1.421462    4.097477   14.620037    ( 0.0000,  0.0000,  0.0000)
   7 Pt    -1.435460    2.464212   16.954046    ( 0.0000,  0.0000,  0.0000)
   8 Pt    -2.839685    4.918479    9.999999    ( 0.0000,  0.0000,  0.0000)
   9 Pt    -1.419843    5.738225   12.318592    ( 0.0000,  0.0000,  0.0000)
  10 Pt    -2.838952    6.554543   14.614686    ( 0.0000,  0.0000,  0.0000)
  11 Pt    -2.840424    4.894454   16.947038    ( 0.0000,  0.0000,  0.0000)
  12 Pt     2.839685    0.000000    9.999999    ( 0.0000,  0.0000,  0.0000)
  13 Pt     4.259528    0.819746   12.318592    ( 0.0000,  0.0000,  0.0000)
  14 Pt     2.842869    1.642331   14.610696    ( 0.0000,  0.0000,  0.0000)
  15 Pt     2.841350    0.001935   16.987223    ( 0.0000,  0.0000,  0.0000)
  16 Pt     1.419843    2.459239    9.999999    ( 0.0000,  0.0000,  0.0000)
  17 Pt     2.839685    3.278986   12.318592    ( 0.0000,  0.0000,  0.0000)
  18 Pt     1.421594    4.099432   14.615031    ( 0.0000,  0.0000,  0.0000)
  19 Pt     1.416041    2.527317   16.953526    ( 0.0000,  0.0000,  0.0000)
  20 Pt     0.000000    4.918479    9.999999    ( 0.0000,  0.0000,  0.0000)
  21 Pt     1.419843    5.738225   12.318592    ( 0.0000,  0.0000,  0.0000)
  22 Pt    -0.005191    6.563931   14.628545    ( 0.0000,  0.0000,  0.0000)
  23 Pt     0.000764    4.921781   16.946612    ( 0.0000,  0.0000,  0.0000)
  24 Pt     5.679370    0.000000    9.999999    ( 0.0000,  0.0000,  0.0000)
  25 Pt     7.099213    0.819746   12.318592    ( 0.0000,  0.0000,  0.0000)
  26 Pt     5.679423    1.639656   14.618224    ( 0.0000,  0.0000,  0.0000)
  27 Pt     5.679038   -0.000839   16.954827    ( 0.0000,  0.0000,  0.0000)
  28 Pt     4.259528    2.459239    9.999999    ( 0.0000,  0.0000,  0.0000)
  29 Pt     5.679370    3.278986   12.318592    ( 0.0000,  0.0000,  0.0000)
  30 Pt     4.259796    4.098272   14.618775    ( 0.0000,  0.0000,  0.0000)
  31 Pt     4.273704    2.464521   16.946412    ( 0.0000,  0.0000,  0.0000)
  32 Pt     2.839685    4.918479    9.999999    ( 0.0000,  0.0000,  0.0000)
  33 Pt     4.259528    5.738225   12.318592    ( 0.0000,  0.0000,  0.0000)
  34 Pt     2.843365    6.561448   14.632438    ( 0.0000,  0.0000,  0.0000)
  35 Pt     2.839692    4.921503   16.955119    ( 0.0000,  0.0000,  0.0000)
  36 H      1.484086   -0.071915   20.355799    ( 0.0000,  0.0000,  0.0000)
  37 O      1.464381   -0.507703   19.499772    ( 0.0000,  0.0000,  0.0000)
  38 C      1.448473    0.416577   18.490819    ( 0.0000,  0.0000,  0.0000)
  39 C      1.419346    1.882157   18.848754    ( 0.0000,  0.0000,  0.0000)
  40 O      1.431362    2.451754   19.914387    ( 0.0000,  0.0000,  0.0000)

Unit cell:
           periodic     x           y           z      points  spacing
  1. axis:    yes    8.519055    0.000000    0.000000    40     0.1844
  2. axis:    yes   -4.259528    7.377718    0.000000    40     0.1844
  3. axis:    no     0.000000    0.000000   26.955778   148     0.1821

  Lengths:   8.519055   8.519055  26.955778
  Angles:   90.000000  90.000000 120.000000

Effective grid spacing dv^(1/3) = 0.1927

     iter     time        total  log10-change:
                         energy  eigst   dens
iter:   1 03:08:58 -11954.143609  -2.56
iter:   2 03:09:41 -11954.816114  -2.93  -2.71
iter:   3 03:10:24 -11954.150298  -3.16  -2.20
iter:   4 03:11:07 -11954.052244  -3.89  -2.62
iter:   5 03:11:50 -11954.040359c -4.00  -3.16
iter:   6 03:12:33 -11954.036971c -4.28  -3.35
iter:   7 03:13:16 -11954.034801c -4.19  -3.47
iter:   8 03:13:58 -11954.035110c -4.46  -3.74
iter:   9 03:14:41 -11954.041117c -4.90  -3.59
iter:  10 03:15:24 -11954.034310c -5.12  -3.19
iter:  11 03:16:07 -11954.034122c -5.46  -3.87
iter:  12 03:16:50 -11954.034079c -5.78  -4.13c
iter:  13 03:17:33 -11954.034056c -6.29  -4.27c
iter:  14 03:18:16 -11954.034070c -6.40  -4.36c
iter:  15 03:18:59 -11954.034213c -6.51  -4.43c
iter:  16 03:19:42 -11954.034122c -6.84  -4.07c
iter:  17 03:20:25 -11954.034109c -7.31  -4.34c
iter:  18 03:21:08 -11954.034112c -7.20  -4.59c
iter:  19 03:21:51 -11954.034097c -7.05  -4.76c
iter:  20 03:22:34 -11954.034087c -7.29  -4.96c
iter:  21 03:23:17 -11954.034083c -7.86c -5.10c

Converged after 21 iterations.

Dipole moment: (-4.060114, -7.805721, 0.180428) |e|*Ang

Energy contributions relative to reference atoms: (reference = -18019662.510624)

Kinetic:       +844.887992
Potential:     -866.869084
External:        +0.000000
XC:            -11913.160971
Entropy (-ST):   -2.243160
Local:          -17.770441
--------------------------
Free energy:   -11955.155664
Extrapolated:  -11954.034083

Showing only first 2 kpts
 Kpt  Band  Eigenvalues  Occupancy
  0   296     -5.70955    1.29648
  0   297     -5.66149    1.06526
  0   298     -5.65504    1.03307
  0   299     -5.61002    0.81029

  1   296     -5.90355    1.85532
  1   297     -5.84939    1.76361
  1   298     -5.80074    1.64200
  1   299     -5.78735    1.60094


Fermi level: -5.64842

No gap

Forces in eV/Ang:
  0 Pt    0.00656   -0.00112   -0.13199
  1 Pt    0.01338    0.01974    0.09875
  2 Pt    0.00007    0.00174   -0.03091
  3 Pt    0.06179    0.05813    0.32838
  4 Pt   -0.01041    0.01889   -0.12005
  5 Pt   -0.00055    0.04991    0.08222
  6 Pt    0.01576    0.00065   -0.03939
  7 Pt   -0.12777    0.02137   -0.05550
  8 Pt    0.00635   -0.01966   -0.12564
  9 Pt    0.06420   -0.00727    0.08896
 10 Pt   -0.00573    0.00695   -0.04284
 11 Pt   -0.00846   -0.21164   -0.13449
 12 Pt    0.00665    0.00012   -0.11050
 13 Pt    0.06262   -0.07607    0.03187
 14 Pt    0.00497    0.01632   -0.01950
 15 Pt    0.00037    0.06090    0.31490
 16 Pt    0.00896   -0.00214   -0.11791
 17 Pt   -0.01977    0.06221    0.04638
 18 Pt   -0.00126    0.04346   -0.09723
 19 Pt   -0.02461    0.56270    0.18624
 20 Pt   -0.04196   -0.00996   -0.07732
 21 Pt    0.00470    0.02872   -0.23851
 22 Pt   -0.07570    0.06216    0.09455
 23 Pt   -0.01933    0.08529   -0.01682
 24 Pt   -0.01460    0.02099   -0.11601
 25 Pt   -0.08182   -0.05340    0.03293
 26 Pt   -0.00107   -0.01036   -0.03867
 27 Pt    0.00308   -0.00031   -0.02745
 28 Pt    0.00491    0.00891   -0.08081
 29 Pt    0.00840    0.00738    0.06868
 30 Pt   -0.01187   -0.00072   -0.03759
 31 Pt    0.10301    0.02646   -0.03218
 32 Pt    0.03747   -0.02843   -0.11565
 33 Pt   -0.07562   -0.02624    0.05552
 34 Pt    0.07172    0.06460    0.11393
 35 Pt    0.01725    0.08338   -0.02750
 36 H    -0.01355    0.34792    0.55806
 37 O    -0.00205   -0.05223   -0.28021
 38 C    -0.14246   -0.45358    0.35674
 39 C     0.15814   -0.20203    0.00331
 40 O    -0.09277   -0.52405   -0.43880

BFGS:    4 03:23:37   -11954.034083        0.6898
System changes: positions 

Initializing position-dependent things.

Density initialized from wave functions
                                             
                                             
                                             
                                             
                                             
                                             
                                             
                   O                         
                  H                          
           Pt     OC    Pt                   
                  C                          
            Pt     Pt    PPt                 
              Pt     Pt     Pt               
              Pt    Pt     Pt                
               Pt    PPt    PPt              
                                             
                Pt     Pt     Pt             
                  Pt     Pt     Pt           
           Pt     Pt    Pt                   
            Pt     Pt     Pt                 
                                             
              Pt     Pt     Pt               
                                             
                                             
                                             
                                             

Positions:
   0 Pt     0.000000    0.000000    9.999999    ( 0.0000,  0.0000,  0.0000)
   1 Pt     1.419843    0.819746   12.318592    ( 0.0000,  0.0000,  0.0000)
   2 Pt    -0.003402    1.642342   14.613671    ( 0.0000,  0.0000,  0.0000)
   3 Pt     0.008028    0.003121   17.010439    ( 0.0000,  0.0000,  0.0000)
   4 Pt    -1.419843    2.459239    9.999999    ( 0.0000,  0.0000,  0.0000)
   5 Pt     0.000000    3.278986   12.318592    ( 0.0000,  0.0000,  0.0000)
   6 Pt    -1.421081    4.097446   14.618949    ( 0.0000,  0.0000,  0.0000)
   7 Pt    -1.440488    2.465334   16.952149    ( 0.0000,  0.0000,  0.0000)
   8 Pt    -2.839685    4.918479    9.999999    ( 0.0000,  0.0000,  0.0000)
   9 Pt    -1.419843    5.738225   12.318592    ( 0.0000,  0.0000,  0.0000)
  10 Pt    -2.839133    6.554365   14.612375    ( 0.0000,  0.0000,  0.0000)
  11 Pt    -2.840701    4.886182   16.942261    ( 0.0000,  0.0000,  0.0000)
  12 Pt     2.839685    0.000000    9.999999    ( 0.0000,  0.0000,  0.0000)
  13 Pt     4.259528    0.819746   12.318592    ( 0.0000,  0.0000,  0.0000)
  14 Pt     2.843420    1.643022   14.609141    ( 0.0000,  0.0000,  0.0000)
  15 Pt     2.841554    0.004023   16.998686    ( 0.0000,  0.0000,  0.0000)
  16 Pt     1.419843    2.459239    9.999999    ( 0.0000,  0.0000,  0.0000)
  17 Pt     2.839685    3.278986   12.318592    ( 0.0000,  0.0000,  0.0000)
  18 Pt     1.421593    4.100827   14.611736    ( 0.0000,  0.0000,  0.0000)
  19 Pt     1.414821    2.548820   16.960356    ( 0.0000,  0.0000,  0.0000)
  20 Pt     0.000000    4.918479    9.999999    ( 0.0000,  0.0000,  0.0000)
  21 Pt     1.419843    5.738225   12.318592    ( 0.0000,  0.0000,  0.0000)
  22 Pt    -0.007748    6.566015   14.631913    ( 0.0000,  0.0000,  0.0000)
  23 Pt     0.000385    4.924272   16.945852    ( 0.0000,  0.0000,  0.0000)
  24 Pt     5.679370    0.000000    9.999999    ( 0.0000,  0.0000,  0.0000)
  25 Pt     7.099213    0.819746   12.318592    ( 0.0000,  0.0000,  0.0000)
  26 Pt     5.679408    1.639405   14.617124    ( 0.0000,  0.0000,  0.0000)
  27 Pt     5.679116   -0.001001   16.953708    ( 0.0000,  0.0000,  0.0000)
  28 Pt     4.259528    2.459239    9.999999    ( 0.0000,  0.0000,  0.0000)
  29 Pt     5.679370    3.278986   12.318592    ( 0.0000,  0.0000,  0.0000)
  30 Pt     4.259535    4.098200   14.617759    ( 0.0000,  0.0000,  0.0000)
  31 Pt     4.277997    2.465822   16.945150    ( 0.0000,  0.0000,  0.0000)
  32 Pt     2.839685    4.918479    9.999999    ( 0.0000,  0.0000,  0.0000)
  33 Pt     4.259528    5.738225   12.318592    ( 0.0000,  0.0000,  0.0000)
  34 Pt     2.845765    6.563580   14.636291    ( 0.0000,  0.0000,  0.0000)
  35 Pt     2.840096    4.923979   16.954040    ( 0.0000,  0.0000,  0.0000)
  36 H      1.483355   -0.065289   20.365644    ( 0.0000,  0.0000,  0.0000)
  37 O      1.464828   -0.506684   19.503390    ( 0.0000,  0.0000,  0.0000)
  38 C      1.442685    0.405678   18.498985    ( 0.0000,  0.0000,  0.0000)
  39 C      1.426265    1.871092   18.846045    ( 0.0000,  0.0000,  0.0000)
  40 O      1.427611    2.435821   19.901419    ( 0.0000,  0.0000,  0.0000)

Unit cell:
           periodic     x           y           z      points  spacing
  1. axis:    yes    8.519055    0.000000    0.000000    40     0.1844
  2. axis:    yes   -4.259528    7.377718    0.000000    40     0.1844
  3. axis:    no     0.000000    0.000000   26.955778   148     0.1821

  Lengths:   8.519055   8.519055  26.955778
  Angles:   90.000000  90.000000 120.000000

Effective grid spacing dv^(1/3) = 0.1927

     iter     time        total  log10-change:
                         energy  eigst   dens
iter:   1 03:25:20 -11954.383808  -2.26
iter:   2 03:26:03 -11957.226140  -2.35  -2.42
iter:   3 03:26:46 -11954.208948  -2.71  -1.93
iter:   4 03:27:30 -11954.104381  -3.56  -2.63
iter:   5 03:28:13 -11954.084905c -3.90  -3.02
iter:   6 03:28:56 -11954.083760c -4.46  -3.35
iter:   7 03:29:39 -11954.081858c -4.60  -3.35
iter:   8 03:30:23 -11954.080543c -4.62  -3.51
iter:   9 03:31:06 -11954.079950c -4.75  -3.67
iter:  10 03:31:49 -11954.080082c -5.50  -3.90
iter:  11 03:32:32 -11954.080024c -5.88  -3.83
iter:  12 03:33:15 -11954.080034c -5.82  -3.94
iter:  13 03:33:58 -11954.080014c -6.19  -4.22c
iter:  14 03:34:42 -11954.080021c -6.52  -4.20c
iter:  15 03:35:25 -11954.079972c -6.77  -4.24c
iter:  16 03:36:08 -11954.079997c -6.93  -4.44c
iter:  17 03:36:51 -11954.080008c -6.98  -4.45c
iter:  18 03:37:34 -11954.079996c -7.50c -4.35c

Converged after 18 iterations.

Dipole moment: (-3.591385, -8.185041, 0.205590) |e|*Ang

Energy contributions relative to reference atoms: (reference = -18019662.510624)

Kinetic:       +846.238289
Potential:     -867.947616
External:        +0.000000
XC:            -11913.481463
Entropy (-ST):   -2.242076
Local:          -17.768168
--------------------------
Free energy:   -11955.201034
Extrapolated:  -11954.079996

Showing only first 2 kpts
 Kpt  Band  Eigenvalues  Occupancy
  0   296     -5.68706    1.29758
  0   297     -5.63705    1.05672
  0   298     -5.63144    1.02876
  0   299     -5.58740    0.81087

  1   296     -5.88126    1.85591
  1   297     -5.82605    1.76235
  1   298     -5.77771    1.64112
  1   299     -5.76426    1.59982


Fermi level: -5.62569

No gap

Forces in eV/Ang:
  0 Pt    0.00664   -0.00068   -0.13322
  1 Pt    0.01408    0.02077    0.09111
  2 Pt    0.02559    0.00128    0.02851
  3 Pt    0.03949    0.05158    0.21089
  4 Pt   -0.00987    0.01949   -0.12135
  5 Pt   -0.00226    0.05218    0.07025
  6 Pt    0.02463    0.00335   -0.04905
  7 Pt   -0.05997   -0.00796   -0.04736
  8 Pt    0.00655   -0.01991   -0.12713
  9 Pt    0.07097   -0.00679    0.08659
 10 Pt   -0.00446    0.02887    0.01932
 11 Pt   -0.00924   -0.11511   -0.10803
 12 Pt    0.00672    0.00051   -0.11137
 13 Pt    0.06172   -0.08055    0.03403
 14 Pt   -0.02109    0.01021    0.04044
 15 Pt   -0.00863    0.05352    0.22393
 16 Pt    0.00902   -0.00262   -0.11943
 17 Pt   -0.01753    0.06430    0.03600
 18 Pt   -0.00471    0.04494   -0.07943
 19 Pt    0.00989    0.32229    0.15251
 20 Pt   -0.04227   -0.01009   -0.07672
 21 Pt    0.00433    0.04951   -0.23051
 22 Pt   -0.06300    0.05276    0.06806
 23 Pt   -0.04071    0.10636   -0.00503
 24 Pt   -0.01494    0.02326   -0.11280
 25 Pt   -0.08126   -0.05929    0.03488
 26 Pt   -0.00261   -0.01326   -0.04551
 27 Pt    0.00370    0.01211   -0.01091
 28 Pt    0.00417    0.00884   -0.08187
 29 Pt    0.00852    0.00748    0.06174
 30 Pt   -0.02035    0.00119   -0.04727
 31 Pt    0.03359   -0.00303   -0.01673
 32 Pt    0.03690   -0.02823   -0.11327
 33 Pt   -0.08259   -0.02482    0.05471
 34 Pt    0.05883    0.05776    0.09222
 35 Pt    0.03190    0.10205   -0.01533
 36 H    -0.01755    0.16292    0.22063
 37 O    -0.00647   -0.08781    0.35915
 38 C    -0.06313   -0.27012    0.02203
 39 C     0.05364   -0.46304   -0.71248
 40 O    -0.04302   -0.07407    0.40792

BFGS:    5 03:37:55   -11954.079996        0.8514
System changes: positions 

Initializing position-dependent things.

Density initialized from wave functions
                                             
                                             
                                             
                                             
                                             
                                             
                                             
                   O                         
                  H                          
           Pt     OC    Pt                   
                  C                          
            Pt     Pt    PPt                 
              Pt     Pt     Pt               
              Pt    Pt     Pt                
               Pt    PPt    PPt              
                                             
                Pt     Pt     Pt             
                  Pt     Pt     Pt           
           Pt     Pt    Pt                   
            Pt     Pt     Pt                 
                                             
              Pt     Pt     Pt               
                                             
                                             
                                             
                                             

Positions:
   0 Pt     0.000000    0.000000    9.999999    ( 0.0000,  0.0000,  0.0000)
   1 Pt     1.419843    0.819746   12.318592    ( 0.0000,  0.0000,  0.0000)
   2 Pt    -0.003434    1.642626   14.611656    ( 0.0000,  0.0000,  0.0000)
   3 Pt     0.011872    0.006711   17.031529    ( 0.0000,  0.0000,  0.0000)
   4 Pt    -1.419843    2.459239    9.999999    ( 0.0000,  0.0000,  0.0000)
   5 Pt     0.000000    3.278986   12.318592    ( 0.0000,  0.0000,  0.0000)
   6 Pt    -1.420058    4.097470   14.616497    ( 0.0000,  0.0000,  0.0000)
   7 Pt    -1.448470    2.466686   16.948604    ( 0.0000,  0.0000,  0.0000)
   8 Pt    -2.839685    4.918479    9.999999    ( 0.0000,  0.0000,  0.0000)
   9 Pt    -1.419843    5.738225   12.318592    ( 0.0000,  0.0000,  0.0000)
  10 Pt    -2.839460    6.554684   14.609660    ( 0.0000,  0.0000,  0.0000)
  11 Pt    -2.841272    4.872702   16.933607    ( 0.0000,  0.0000,  0.0000)
  12 Pt     2.839685    0.000000    9.999999    ( 0.0000,  0.0000,  0.0000)
  13 Pt     4.259528    0.819746   12.318592    ( 0.0000,  0.0000,  0.0000)
  14 Pt     2.843733    1.644201   14.607845    ( 0.0000,  0.0000,  0.0000)
  15 Pt     2.841716    0.007831   17.018661    ( 0.0000,  0.0000,  0.0000)
  16 Pt     1.419843    2.459239    9.999999    ( 0.0000,  0.0000,  0.0000)
  17 Pt     2.839685    3.278986   12.318592    ( 0.0000,  0.0000,  0.0000)
  18 Pt     1.421491    4.103606   14.605737    ( 0.0000,  0.0000,  0.0000)
  19 Pt     1.413416    2.584487   16.972596    ( 0.0000,  0.0000,  0.0000)
  20 Pt     0.000000    4.918479    9.999999    ( 0.0000,  0.0000,  0.0000)
  21 Pt     1.419843    5.738225   12.318592    ( 0.0000,  0.0000,  0.0000)
  22 Pt    -0.012464    6.569882   14.637823    ( 0.0000,  0.0000,  0.0000)
  23 Pt    -0.001001    4.929849   16.944688    ( 0.0000,  0.0000,  0.0000)
  24 Pt     5.679370    0.000000    9.999999    ( 0.0000,  0.0000,  0.0000)
  25 Pt     7.099213    0.819746   12.318592    ( 0.0000,  0.0000,  0.0000)
  26 Pt     5.679333    1.638811   14.614729    ( 0.0000,  0.0000,  0.0000)
  27 Pt     5.679293   -0.000966   16.951954    ( 0.0000,  0.0000,  0.0000)
  28 Pt     4.259528    2.459239    9.999999    ( 0.0000,  0.0000,  0.0000)
  29 Pt     5.679370    3.278986   12.318592    ( 0.0000,  0.0000,  0.0000)
  30 Pt     4.258762    4.098123   14.615445    ( 0.0000,  0.0000,  0.0000)
  31 Pt     4.284467    2.467521   16.943082    ( 0.0000,  0.0000,  0.0000)
  32 Pt     2.839685    4.918479    9.999999    ( 0.0000,  0.0000,  0.0000)
  33 Pt     4.259528    5.738225   12.318592    ( 0.0000,  0.0000,  0.0000)
  34 Pt     2.850171    6.567616   14.643326    ( 0.0000,  0.0000,  0.0000)
  35 Pt     2.841332    4.929450   16.952245    ( 0.0000,  0.0000,  0.0000)
  36 H      1.481981   -0.052814   20.383672    ( 0.0000,  0.0000,  0.0000)
  37 O      1.465323   -0.508980   19.518135    ( 0.0000,  0.0000,  0.0000)
  38 C      1.433671    0.387434   18.508044    ( 0.0000,  0.0000,  0.0000)
  39 C      1.436869    1.848060   18.831194    ( 0.0000,  0.0000,  0.0000)
  40 O      1.421540    2.411454   19.889158    ( 0.0000,  0.0000,  0.0000)

Unit cell:
           periodic     x           y           z      points  spacing
  1. axis:    yes    8.519055    0.000000    0.000000    40     0.1844
  2. axis:    yes   -4.259528    7.377718    0.000000    40     0.1844
  3. axis:    no     0.000000    0.000000   26.955778   148     0.1821

  Lengths:   8.519055   8.519055  26.955778
  Angles:   90.000000  90.000000 120.000000

Effective grid spacing dv^(1/3) = 0.1927

     iter     time        total  log10-change:
                         energy  eigst   dens
iter:   1 03:39:37 -11954.291369  -1.88
iter:   2 03:40:20 -11954.974618  -2.54  -2.56
iter:   3 03:41:03 -11954.330014  -2.93  -2.19
iter:   4 03:41:47 -11954.134737  -3.73  -2.47
iter:   5 03:42:30 -11954.127096c -4.01  -3.11
iter:   6 03:43:13 -11954.125365c -4.21  -3.28
iter:   7 03:43:56 -11954.123955c -4.39  -3.35
iter:   8 03:44:39 -11954.123582c -4.44  -3.50
iter:   9 03:45:22 -11954.124061c -5.05  -3.64
iter:  10 03:46:05 -11954.123626c -5.61  -3.56
iter:  11 03:46:48 -11954.123349c -5.92  -3.66
iter:  12 03:47:32 -11954.123342c -5.39  -3.83
iter:  13 03:48:15 -11954.123292c -5.82  -4.04c
iter:  14 03:48:58 -11954.123262c -6.36  -4.15c
iter:  15 03:49:41 -11954.123290c -6.56  -4.23c
iter:  16 03:50:24 -11954.123463c -6.45  -4.16c
iter:  17 03:51:07 -11954.123288c -6.38  -3.96
iter:  18 03:51:50 -11954.123285c -6.93  -4.41c
iter:  19 03:52:33 -11954.123289c -7.55c -4.63c

Converged after 19 iterations.

Dipole moment: (-2.695104, -8.962067, 0.197083) |e|*Ang

Energy contributions relative to reference atoms: (reference = -18019662.510624)

Kinetic:       +847.364239
Potential:     -868.940126
External:        +0.000000
XC:            -11913.647954
Entropy (-ST):   -2.240280
Local:          -17.779308
--------------------------
Free energy:   -11955.243429
Extrapolated:  -11954.123289

Showing only first 2 kpts
 Kpt  Band  Eigenvalues  Occupancy
  0   296     -5.69573    1.30069
  0   297     -5.64292    1.04620
  0   298     -5.63789    1.02110
  0   299     -5.59572    0.81248

  1   296     -5.88931    1.85600
  1   297     -5.83327    1.76075
  1   298     -5.78550    1.64055
  1   299     -5.77140    1.59709


Fermi level: -5.63367

No gap

Forces in eV/Ang:
  0 Pt    0.00523   -0.00057   -0.13456
  1 Pt    0.01553    0.02211    0.08157
  2 Pt    0.05997    0.00334    0.10955
  3 Pt   -0.03236    0.00922    0.04567
  4 Pt   -0.01020    0.02102   -0.12604
  5 Pt   -0.00285    0.05492    0.04706
  6 Pt    0.03482    0.00848   -0.05700
  7 Pt    0.04175   -0.04861   -0.03438
  8 Pt    0.00704   -0.02190   -0.13227
  9 Pt    0.08092   -0.00302    0.08045
 10 Pt   -0.00144    0.05830    0.10298
 11 Pt   -0.01116    0.03969   -0.05517
 12 Pt    0.00811    0.00042   -0.11165
 13 Pt    0.05857   -0.08845    0.03557
 14 Pt   -0.05746    0.00232    0.11813
 15 Pt    0.02575    0.00069    0.03201
 16 Pt    0.00885   -0.00221   -0.12117
 17 Pt   -0.01611    0.06652    0.01618
 18 Pt   -0.01100    0.03932   -0.03560
 19 Pt    0.06104   -0.01219    0.04775
 20 Pt   -0.04300   -0.01020   -0.07752
 21 Pt    0.00381    0.08426   -0.22261
 22 Pt   -0.03990    0.03499    0.02008
 23 Pt   -0.06974    0.13480    0.00889
 24 Pt   -0.01508    0.02663   -0.10935
 25 Pt   -0.07878   -0.06954    0.03630
 26 Pt   -0.00489   -0.01510   -0.04804
 27 Pt    0.00271    0.03580    0.01518
 28 Pt    0.00461    0.00928   -0.08553
 29 Pt    0.00869    0.00720    0.04479
 30 Pt   -0.03094    0.00474   -0.05314
 31 Pt   -0.06467   -0.04285    0.00218
 32 Pt    0.03607   -0.02742   -0.11125
 33 Pt   -0.09296   -0.01963    0.05149
 34 Pt    0.03599    0.04654    0.04717
 35 Pt    0.05227    0.12917    0.00014
 36 H    -0.02468   -0.02065   -0.17451
 37 O    -0.02097   -0.01978    0.86466
 38 C     0.07419   -0.18326   -0.10141
 39 C    -0.12421   -0.22076   -0.43506
 40 O     0.06087   -0.08769    0.40263

BFGS:    6 03:52:54   -11954.123289        0.8651
System changes: positions 

Initializing position-dependent things.

Density initialized from wave functions
                                             
                                             
                                             
                                             
                                             
                                             
                                             
                   O                         
                  H                          
           Pt     OC    Pt                   
                  C                          
            Pt     Pt     Pt                 
              Pt     Pt     Pt               
              Pt    Pt     Pt                
               Pt    PPt    PPt              
                                             
                Pt     Pt     Pt             
                  Pt     Pt     Pt           
           Pt     Pt    Pt                   
            Pt     Pt     Pt                 
                                             
              Pt     Pt     Pt               
                                             
                                             
                                             
                                             

Positions:
   0 Pt     0.000000    0.000000    9.999999    ( 0.0000,  0.0000,  0.0000)
   1 Pt     1.419843    0.819746   12.318592    ( 0.0000,  0.0000,  0.0000)
   2 Pt    -0.002476    1.642892   14.612169    ( 0.0000,  0.0000,  0.0000)
   3 Pt     0.013569    0.008930   17.045699    ( 0.0000,  0.0000,  0.0000)
   4 Pt    -1.419843    2.459239    9.999999    ( 0.0000,  0.0000,  0.0000)
   5 Pt     0.000000    3.278986   12.318592    ( 0.0000,  0.0000,  0.0000)
   6 Pt    -1.418844    4.097630   14.614034    ( 0.0000,  0.0000,  0.0000)
   7 Pt    -1.452802    2.466745   16.945785    ( 0.0000,  0.0000,  0.0000)
   8 Pt    -2.839685    4.918479    9.999999    ( 0.0000,  0.0000,  0.0000)
   9 Pt    -1.419843    5.738225   12.318592    ( 0.0000,  0.0000,  0.0000)
  10 Pt    -2.839682    6.555831   14.609622    ( 0.0000,  0.0000,  0.0000)
  11 Pt    -2.841825    4.864926   16.927293    ( 0.0000,  0.0000,  0.0000)
  12 Pt     2.839685    0.000000    9.999999    ( 0.0000,  0.0000,  0.0000)
  13 Pt     4.259528    0.819746   12.318592    ( 0.0000,  0.0000,  0.0000)
  14 Pt     2.842986    1.645005   14.608934    ( 0.0000,  0.0000,  0.0000)
  15 Pt     2.842492    0.010001   17.031556    ( 0.0000,  0.0000,  0.0000)
  16 Pt     1.419843    2.459239    9.999999    ( 0.0000,  0.0000,  0.0000)
  17 Pt     2.839685    3.278986   12.318592    ( 0.0000,  0.0000,  0.0000)
  18 Pt     1.421235    4.105976   14.601455    ( 0.0000,  0.0000,  0.0000)
  19 Pt     1.413562    2.607013   16.980725    ( 0.0000,  0.0000,  0.0000)
  20 Pt     0.000000    4.918479    9.999999    ( 0.0000,  0.0000,  0.0000)
  21 Pt     1.419843    5.738225   12.318592    ( 0.0000,  0.0000,  0.0000)
  22 Pt    -0.016083    6.572884   14.641852    ( 0.0000,  0.0000,  0.0000)
  23 Pt    -0.003040    4.935619   16.944068    ( 0.0000,  0.0000,  0.0000)
  24 Pt     5.679370    0.000000    9.999999    ( 0.0000,  0.0000,  0.0000)
  25 Pt     7.099213    0.819746   12.318592    ( 0.0000,  0.0000,  0.0000)
  26 Pt     5.679204    1.638201   14.612460    ( 0.0000,  0.0000,  0.0000)
  27 Pt     5.679439   -0.000324   16.951095    ( 0.0000,  0.0000,  0.0000)
  28 Pt     4.259528    2.459239    9.999999    ( 0.0000,  0.0000,  0.0000)
  29 Pt     5.679370    3.278986   12.318592    ( 0.0000,  0.0000,  0.0000)
  30 Pt     4.257765    4.098154   14.613145    ( 0.0000,  0.0000,  0.0000)
  31 Pt     4.287496    2.467901   16.941781    ( 0.0000,  0.0000,  0.0000)
  32 Pt     2.839685    4.918479    9.999999    ( 0.0000,  0.0000,  0.0000)
  33 Pt     4.259528    5.738225   12.318592    ( 0.0000,  0.0000,  0.0000)
  34 Pt     2.853528    6.570933   14.648488    ( 0.0000,  0.0000,  0.0000)
  35 Pt     2.842991    4.935070   16.951090    ( 0.0000,  0.0000,  0.0000)
  36 H      1.480729   -0.044038   20.394211    ( 0.0000,  0.0000,  0.0000)
  37 O      1.465245   -0.511087   19.538497    ( 0.0000,  0.0000,  0.0000)
  38 C      1.429316    0.372106   18.513702    ( 0.0000,  0.0000,  0.0000)
  39 C      1.441456    1.832459   18.820669    ( 0.0000,  0.0000,  0.0000)
  40 O      1.418849    2.391726   19.882510    ( 0.0000,  0.0000,  0.0000)

Unit cell:
           periodic     x           y           z      points  spacing
  1. axis:    yes    8.519055    0.000000    0.000000    40     0.1844
  2. axis:    yes   -4.259528    7.377718    0.000000    40     0.1844
  3. axis:    no     0.000000    0.000000   26.955778   148     0.1821

  Lengths:   8.519055   8.519055  26.955778
  Angles:   90.000000  90.000000 120.000000

Effective grid spacing dv^(1/3) = 0.1927

     iter     time        total  log10-change:
                         energy  eigst   dens
iter:   1 03:54:36 -11954.211824  -2.19
iter:   2 03:55:19 -11954.653660  -2.83  -2.74
iter:   3 03:56:02 -11954.197285  -3.27  -2.29
iter:   4 03:56:45 -11954.146867  -4.07  -2.76
iter:   5 03:57:28 -11954.143753c -4.36  -3.30
iter:   6 03:58:11 -11954.143278c -4.66  -3.50
iter:   7 03:58:54 -11954.142823c -4.92  -3.56
iter:   8 03:59:37 -11954.142730c -4.85  -3.69
iter:   9 04:00:20 -11954.143709c -5.54  -3.84
iter:  10 04:01:03 -11954.142581c -5.93  -3.53
iter:  11 04:01:46 -11954.142582c -6.17  -4.01c
iter:  12 04:02:29 -11954.142596c -5.82  -4.07c
iter:  13 04:03:12 -11954.142564c -6.20  -4.24c
iter:  14 04:03:55 -11954.142560c -6.70  -4.43c
iter:  15 04:04:38 -11954.142665c -6.65  -4.52c
iter:  16 04:05:21 -11954.142615c -6.82  -4.16c
iter:  17 04:06:04 -11954.142581c -7.01  -4.19c
iter:  18 04:06:47 -11954.142583c -7.61c -4.85c

Converged after 18 iterations.

Dipole moment: (-2.025679, -9.541381, 0.179904) |e|*Ang

Energy contributions relative to reference atoms: (reference = -18019662.510624)

Kinetic:       +847.923993
Potential:     -869.417014
External:        +0.000000
XC:            -11913.747724
Entropy (-ST):   -2.238958
Local:          -17.782359
--------------------------
Free energy:   -11955.262062
Extrapolated:  -11954.142583

Showing only first 2 kpts
 Kpt  Band  Eigenvalues  Occupancy
  0   296     -5.71154    1.30357
  0   297     -5.65736    1.04251
  0   298     -5.65195    1.01551
  0   299     -5.61113    0.81358

  1   296     -5.90384    1.85513
  1   297     -5.84795    1.75969
  1   298     -5.80070    1.64062
  1   299     -5.78620    1.59587


Fermi level: -5.64885

No gap

Forces in eV/Ang:
  0 Pt    0.00386   -0.00094   -0.13145
  1 Pt    0.01657    0.02362    0.08398
  2 Pt    0.07161    0.00987    0.14364
  3 Pt   -0.07915   -0.03529   -0.03662
  4 Pt   -0.01029    0.02189   -0.12576
  5 Pt   -0.00303    0.05181    0.03336
  6 Pt    0.03502    0.01005   -0.05582
  7 Pt    0.10198   -0.06395   -0.02315
  8 Pt    0.00739   -0.02316   -0.13258
  9 Pt    0.08381    0.00253    0.07977
 10 Pt    0.00065    0.06554    0.13751
 11 Pt   -0.00822    0.12995   -0.01687
 12 Pt    0.00939    0.00005   -0.10802
 13 Pt    0.05198   -0.09175    0.04157
 14 Pt   -0.07034    0.00346    0.14314
 15 Pt    0.03048   -0.04123   -0.06148
 16 Pt    0.00875   -0.00143   -0.11791
 17 Pt   -0.01555    0.06315    0.00536
 18 Pt   -0.01375    0.03647    0.00050
 19 Pt    0.07326   -0.22579   -0.01832
 20 Pt   -0.04311   -0.00995   -0.07616
 21 Pt    0.00427    0.10808   -0.21421
 22 Pt   -0.01833    0.02104   -0.01531
 23 Pt   -0.08040    0.13762    0.01665
 24 Pt   -0.01488    0.02742   -0.10551
 25 Pt   -0.07263   -0.07456    0.04249
 26 Pt   -0.00626   -0.00928   -0.04491
 27 Pt    0.00183    0.05106    0.03391
 28 Pt    0.00491    0.00946   -0.08442
 29 Pt    0.00869    0.00705    0.03437
 30 Pt   -0.03266    0.00537   -0.04949
 31 Pt   -0.11703   -0.05759    0.01139
 32 Pt    0.03526   -0.02646   -0.10835
 33 Pt   -0.09676   -0.01314    0.05359
 34 Pt    0.01812    0.03894    0.00851
 35 Pt    0.06274    0.13903    0.01147
 36 H    -0.01639    0.06691   -0.04686
 37 O    -0.04429   -0.04320    0.56028
 38 C     0.14973   -0.19793   -0.01340
 39 C    -0.20139   -0.10403   -0.22347
 40 O     0.05959   -0.04461    0.39134

BFGS:    7 04:07:07   -11954.142583        0.5637
System changes: positions 

Initializing position-dependent things.

Density initialized from wave functions
                                             
                                             
                                             
                                             
                                             
                                             
                                             
                   O                         
                  H                          
           Pt     OC    Pt                   
                  C                          
            Pt     Pt     Pt                 
              Pt     Pt     Pt               
              Pt    Pt     Pt                
               Pt    PPt    PPt              
                                             
                Pt     Pt     Pt             
                  Pt     Pt     Pt           
           Pt     Pt    Pt                   
            Pt     Pt     Pt                 
                                             
              Pt     Pt     Pt               
                                             
                                             
                                             
                                             

Positions:
   0 Pt     0.000000    0.000000    9.999999    ( 0.0000,  0.0000,  0.0000)
   1 Pt     1.419843    0.819746   12.318592    ( 0.0000,  0.0000,  0.0000)
   2 Pt    -0.000562    1.643243   14.615204    ( 0.0000,  0.0000,  0.0000)
   3 Pt     0.012979    0.009444   17.053144    ( 0.0000,  0.0000,  0.0000)
   4 Pt    -1.419843    2.459239    9.999999    ( 0.0000,  0.0000,  0.0000)
   5 Pt     0.000000    3.278986   12.318592    ( 0.0000,  0.0000,  0.0000)
   6 Pt    -1.417484    4.097914   14.611556    ( 0.0000,  0.0000,  0.0000)
   7 Pt    -1.453326    2.465564   16.943722    ( 0.0000,  0.0000,  0.0000)
   8 Pt    -2.839685    4.918479    9.999999    ( 0.0000,  0.0000,  0.0000)
   9 Pt    -1.419843    5.738225   12.318592    ( 0.0000,  0.0000,  0.0000)
  10 Pt    -2.839798    6.557737   14.612223    ( 0.0000,  0.0000,  0.0000)
  11 Pt    -2.842291    4.862988   16.923374    ( 0.0000,  0.0000,  0.0000)
  12 Pt     2.839685    0.000000    9.999999    ( 0.0000,  0.0000,  0.0000)
  13 Pt     4.259528    0.819746   12.318592    ( 0.0000,  0.0000,  0.0000)
  14 Pt     2.841219    1.645543   14.612273    ( 0.0000,  0.0000,  0.0000)
  15 Pt     2.843515    0.010386   17.037783    ( 0.0000,  0.0000,  0.0000)
  16 Pt     1.419843    2.459239    9.999999    ( 0.0000,  0.0000,  0.0000)
  17 Pt     2.839685    3.278986   12.318592    ( 0.0000,  0.0000,  0.0000)
  18 Pt     1.420825    4.108033   14.599034    ( 0.0000,  0.0000,  0.0000)
  19 Pt     1.415014    2.615584   16.984959    ( 0.0000,  0.0000,  0.0000)
  20 Pt     0.000000    4.918479    9.999999    ( 0.0000,  0.0000,  0.0000)
[...]
  29 Pt     5.679370    3.278986   12.318592    ( 0.0000,  0.0000,  0.0000)
  30 Pt     4.252183    4.109683   14.612871    ( 0.0000,  0.0000,  0.0000)
  31 Pt     4.265434    2.459496   16.944702    ( 0.0000,  0.0000,  0.0000)
  32 Pt     2.839685    4.918479    9.999999    ( 0.0000,  0.0000,  0.0000)
  33 Pt     4.259528    5.738225   12.318592    ( 0.0000,  0.0000,  0.0000)
  34 Pt     2.857010    6.590281   14.659114    ( 0.0000,  0.0000,  0.0000)
  35 Pt     2.839075    4.942081   16.966531    ( 0.0000,  0.0000,  0.0000)
  36 H      1.440297    0.026184   20.494751    ( 0.0000,  0.0000,  0.0000)
  37 O      1.427806   -0.529322   19.691763    ( 0.0000,  0.0000,  0.0000)
  38 C      1.422447    0.283852   18.606905    ( 0.0000,  0.0000,  0.0000)
  39 C      1.437395    1.753075   18.887739    ( 0.0000,  0.0000,  0.0000)
  40 O      1.454957    2.274061   19.975516    ( 0.0000,  0.0000,  0.0000)

Unit cell:
           periodic     x           y           z      points  spacing
  1. axis:    yes    8.519055    0.000000    0.000000    40     0.1844
  2. axis:    yes   -4.259528    7.377718    0.000000    40     0.1844
  3. axis:    no     0.000000    0.000000   26.955778   148     0.1821

  Lengths:   8.519055   8.519055  26.955778
  Angles:   90.000000  90.000000 120.000000

Effective grid spacing dv^(1/3) = 0.1927

     iter     time        total  log10-change:
                         energy  eigst   dens
iter:   1 08:02:58 -11954.238532  -3.29
iter:   2 08:03:42 -11954.290319  -3.90  -3.22
iter:   3 08:04:25 -11954.236030c -4.31  -2.76
iter:   4 08:05:08 -11954.231555c -5.28  -3.31
iter:   5 08:05:51 -11954.231497c -5.86  -3.96
iter:   6 08:06:34 -11954.231462c -5.64  -4.04c
iter:   7 08:07:17 -11954.231437c -5.94  -4.29c
iter:   8 08:08:00 -11954.231439c -6.65  -4.41c
iter:   9 08:08:43 -11954.231461c -6.76  -4.43c
iter:  10 08:09:26 -11954.231420c -6.82  -4.11c
iter:  11 08:10:09 -11954.231404c -7.22  -4.57c
iter:  12 08:10:52 -11954.231391c -7.29  -4.72c
iter:  13 08:11:35 -11954.231391c -7.71c -4.81c

Converged after 13 iterations.

Dipole moment: (-0.954749, -9.744101, 0.115818) |e|*Ang

Energy contributions relative to reference atoms: (reference = -18019662.510624)

Kinetic:       +834.277198
Potential:     -857.777165
External:        +0.000000
XC:            -11911.817799
Entropy (-ST):   -2.237592
Local:          -17.794829
--------------------------
Free energy:   -11955.350186
Extrapolated:  -11954.231391

Showing only first 2 kpts
 Kpt  Band  Eigenvalues  Occupancy
  0   296     -5.77196    1.29700
  0   297     -5.71599    1.02640
  0   298     -5.71109    1.00187
  0   299     -5.67553    0.82587

  1   296     -5.96331    1.85189
  1   297     -5.90872    1.75737
  1   298     -5.86387    1.64447
  1   299     -5.85092    1.60503


Fermi level: -5.71071

No gap

Forces in eV/Ang:
  0 Pt   -0.00256   -0.00771   -0.12911
  1 Pt    0.00964    0.04967    0.25256
  2 Pt   -0.00326   -0.01187   -0.01739
  3 Pt   -0.01443   -0.00467    0.00572
  4 Pt   -0.01130    0.01287   -0.12520
  5 Pt    0.04089    0.03028    0.12997
  6 Pt   -0.00765   -0.01538   -0.00316
  7 Pt   -0.01153    0.00055    0.00666
  8 Pt    0.00768   -0.02620   -0.12980
  9 Pt    0.06275    0.05227    0.13806
 10 Pt   -0.00271   -0.01768   -0.00827
 11 Pt   -0.00099   -0.01665    0.00527
 12 Pt    0.01842   -0.00687   -0.10663
 13 Pt    0.00276   -0.06759    0.12242
 14 Pt   -0.00741   -0.00410   -0.01315
 15 Pt    0.00610   -0.00611    0.01153
 16 Pt    0.00805    0.00321   -0.10682
 17 Pt   -0.05038    0.04512    0.10250
 18 Pt   -0.00397    0.00918    0.02696
 19 Pt    0.02203    0.02311   -0.03909
 20 Pt   -0.03463   -0.00481   -0.08348
 21 Pt    0.00756    0.08270   -0.08862
 22 Pt   -0.00086   -0.00202   -0.00628
 23 Pt    0.00813   -0.01161   -0.00110
 24 Pt   -0.01443    0.01753   -0.12235
 25 Pt   -0.02150   -0.04004    0.12372
 26 Pt   -0.00459   -0.02698    0.01158
 27 Pt   -0.00009   -0.01264    0.01176
 28 Pt    0.00815    0.00322   -0.08347
 29 Pt    0.00408    0.03029    0.03850
 30 Pt   -0.00747   -0.01845   -0.00693
 31 Pt    0.00279    0.00237    0.00859
 32 Pt    0.02589   -0.01900   -0.11586
 33 Pt   -0.07613    0.03255    0.12192
 34 Pt    0.00044   -0.00828   -0.00603
 35 Pt   -0.01131   -0.00350   -0.00774
 36 H    -0.01618   -0.03463    0.00748
 37 O    -0.02168   -0.02190   -0.01172
 38 C     0.01047   -0.00212   -0.00562
 39 C    -0.01813   -0.00495    0.01793
 40 O     0.00858   -0.00211    0.01553

BFGS:   27 08:11:56   -11954.231391        0.0505
System changes: positions 

Initializing position-dependent things.

Density initialized from wave functions
                                             
                                             
                                             
                                             
                                             
                                             
                                             
                   O                         
                  H                          
           Pt     OC    Pt                   
                  C                          
            Pt     Pt     Pt                 
              Pt     Pt     Pt               
              Pt    Pt     Pt                
               Pt    PPt    PPt              
                                             
                Pt     Pt     Pt             
                                             
           Pt     Pt    PPt     Pt           
            Pt     Pt     Pt                 
                                             
              Pt     Pt     Pt               
                                             
                                             
                                             
                                             

Positions:
   0 Pt     0.000000    0.000000    9.999999    ( 0.0000,  0.0000,  0.0000)
   1 Pt     1.419843    0.819746   12.318592    ( 0.0000,  0.0000,  0.0000)
   2 Pt     0.007910    1.651427   14.650968    ( 0.0000,  0.0000,  0.0000)
   3 Pt     0.011572   -0.020568   17.097541    ( 0.0000,  0.0000,  0.0000)
   4 Pt    -1.419843    2.459239    9.999999    ( 0.0000,  0.0000,  0.0000)
   5 Pt     0.000000    3.278986   12.318592    ( 0.0000,  0.0000,  0.0000)
   6 Pt    -1.414554    4.107878   14.611098    ( 0.0000,  0.0000,  0.0000)
   7 Pt    -1.439121    2.458759   16.946717    ( 0.0000,  0.0000,  0.0000)
   8 Pt    -2.839685    4.918479    9.999999    ( 0.0000,  0.0000,  0.0000)
   9 Pt    -1.419843    5.738225   12.318592    ( 0.0000,  0.0000,  0.0000)
  10 Pt    -2.838011    6.572402   14.639036    ( 0.0000,  0.0000,  0.0000)
  11 Pt    -2.847974    4.864663   16.932881    ( 0.0000,  0.0000,  0.0000)
  12 Pt     2.839685    0.000000    9.999999    ( 0.0000,  0.0000,  0.0000)
  13 Pt     4.259528    0.819746   12.318592    ( 0.0000,  0.0000,  0.0000)
  14 Pt     2.829471    1.647053   14.643762    ( 0.0000,  0.0000,  0.0000)
  15 Pt     2.826940   -0.026126   17.093881    ( 0.0000,  0.0000,  0.0000)
  16 Pt     1.419843    2.459239    9.999999    ( 0.0000,  0.0000,  0.0000)
  17 Pt     2.839685    3.278986   12.318592    ( 0.0000,  0.0000,  0.0000)
  18 Pt     1.423325    4.104607   14.629332    ( 0.0000,  0.0000,  0.0000)
  19 Pt     1.414373    2.562057   17.059690    ( 0.0000,  0.0000,  0.0000)
  20 Pt     0.000000    4.918479    9.999999    ( 0.0000,  0.0000,  0.0000)
  21 Pt     1.419843    5.738225   12.318592    ( 0.0000,  0.0000,  0.0000)
  22 Pt    -0.019006    6.583166   14.653119    ( 0.0000,  0.0000,  0.0000)
  23 Pt    -0.006397    4.937871   16.955390    ( 0.0000,  0.0000,  0.0000)
  24 Pt     5.679370    0.000000    9.999999    ( 0.0000,  0.0000,  0.0000)
  25 Pt     7.099213    0.819746   12.318592    ( 0.0000,  0.0000,  0.0000)
  26 Pt     5.676707    1.651181   14.609759    ( 0.0000,  0.0000,  0.0000)
  27 Pt     5.673937    0.012535   16.961905    ( 0.0000,  0.0000,  0.0000)
  28 Pt     4.259528    2.459239    9.999999    ( 0.0000,  0.0000,  0.0000)
  29 Pt     5.679370    3.278986   12.318592    ( 0.0000,  0.0000,  0.0000)
  30 Pt     4.252327    4.108823   14.613363    ( 0.0000,  0.0000,  0.0000)
  31 Pt     4.265098    2.457664   16.945387    ( 0.0000,  0.0000,  0.0000)
  32 Pt     2.839685    4.918479    9.999999    ( 0.0000,  0.0000,  0.0000)
  33 Pt     4.259528    5.738225   12.318592    ( 0.0000,  0.0000,  0.0000)
  34 Pt     2.856717    6.588976   14.659418    ( 0.0000,  0.0000,  0.0000)
  35 Pt     2.839372    4.940668   16.967457    ( 0.0000,  0.0000,  0.0000)
  36 H      1.437041    0.021740   20.498521    ( 0.0000,  0.0000,  0.0000)
  37 O      1.424308   -0.531349   19.694125    ( 0.0000,  0.0000,  0.0000)
  38 C      1.420867    0.283320   18.610214    ( 0.0000,  0.0000,  0.0000)
  39 C      1.438802    1.752736   18.891300    ( 0.0000,  0.0000,  0.0000)
  40 O      1.458744    2.273120   19.979308    ( 0.0000,  0.0000,  0.0000)

Unit cell:
           periodic     x           y           z      points  spacing
  1. axis:    yes    8.519055    0.000000    0.000000    40     0.1844
  2. axis:    yes   -4.259528    7.377718    0.000000    40     0.1844
  3. axis:    no     0.000000    0.000000   26.955778   148     0.1821

  Lengths:   8.519055   8.519055  26.955778
  Angles:   90.000000  90.000000 120.000000

Effective grid spacing dv^(1/3) = 0.1927

     iter     time        total  log10-change:
                         energy  eigst   dens
iter:   1 08:13:39 -11954.235071  -3.45
iter:   2 08:14:21 -11954.239455  -4.22  -3.35
iter:   3 08:15:04 -11954.238249c -4.68  -3.24
iter:   4 08:15:47 -11954.231845c -5.39  -3.21
iter:   5 08:16:30 -11954.231796c -6.01  -4.01c
iter:   6 08:17:13 -11954.231762c -5.94  -4.10c
iter:   7 08:17:55 -11954.231749c -6.23  -4.34c
iter:   8 08:18:38 -11954.231741c -6.56  -4.48c
iter:   9 08:19:21 -11954.231741c -6.80  -4.47c
iter:  10 08:20:04 -11954.231720c -7.10  -4.17c
iter:  11 08:20:47 -11954.231704c -7.64c -4.63c

Converged after 11 iterations.

Dipole moment: (-0.883006, -9.595548, 0.117959) |e|*Ang

Energy contributions relative to reference atoms: (reference = -18019662.510624)

Kinetic:       +833.690197
Potential:     -857.276801
External:        +0.000000
XC:            -11911.732858
Entropy (-ST):   -2.237471
Local:          -17.793507
--------------------------
Free energy:   -11955.350440
Extrapolated:  -11954.231704

Showing only first 2 kpts
 Kpt  Band  Eigenvalues  Occupancy
  0   296     -5.76974    1.29607
  0   297     -5.71385    1.02577
  0   298     -5.70884    1.00073
  0   299     -5.67335    0.82508

  1   296     -5.96093    1.85139
  1   297     -5.90672    1.75741
  1   298     -5.86179    1.64428
  1   299     -5.84889    1.60499


Fermi level: -5.70870

No gap

Forces in eV/Ang:
  0 Pt   -0.00246   -0.00733   -0.12850
  1 Pt    0.00965    0.04796    0.26491
  2 Pt   -0.00526   -0.01480   -0.02435
  3 Pt   -0.01131   -0.00492   -0.00382
  4 Pt   -0.01088    0.01309   -0.12431
  5 Pt    0.03988    0.02898    0.13795
  6 Pt   -0.00676   -0.01346   -0.00713
  7 Pt   -0.00627    0.00576   -0.00271
  8 Pt    0.00771   -0.02570   -0.12847
  9 Pt    0.06026    0.05139    0.14804
 10 Pt   -0.00451   -0.01975   -0.01531
 11 Pt    0.00283   -0.01187   -0.00532
 12 Pt    0.01837   -0.00633   -0.10626
 13 Pt   -0.00089   -0.06831    0.12975
 14 Pt   -0.00659   -0.00571   -0.02079
 15 Pt    0.00098   -0.00824    0.00763
 16 Pt    0.00818    0.00330   -0.10698
 17 Pt   -0.05040    0.04236    0.11068
 18 Pt   -0.00382    0.01440    0.02867
 19 Pt    0.01823    0.01599   -0.03255
 20 Pt   -0.03419   -0.00462   -0.08309
 21 Pt    0.00617    0.08029   -0.08137
 22 Pt   -0.00021    0.00037   -0.00627
 23 Pt    0.01380   -0.01459   -0.01186
 24 Pt   -0.01439    0.01748   -0.12200
 25 Pt   -0.01787   -0.04114    0.12963
 26 Pt   -0.00705   -0.02850    0.01534
 27 Pt    0.00179   -0.01227   -0.00297
 28 Pt    0.00781    0.00334   -0.08273
 29 Pt    0.00469    0.03131    0.04329
 30 Pt   -0.01004   -0.01739   -0.01039
 31 Pt    0.00385    0.00380   -0.00427
 32 Pt    0.02546   -0.01874   -0.11540
 33 Pt   -0.07310    0.03314    0.13032
 34 Pt    0.00171   -0.00589   -0.00310
 35 Pt   -0.01789    0.00052   -0.02245
 36 H    -0.02020   -0.03419    0.00805
 37 O    -0.01114   -0.01970   -0.02824
 38 C     0.01699   -0.00792   -0.01631
 39 C    -0.02884   -0.01333    0.01347
 40 O    -0.00720    0.00330   -0.00557

BFGS:   28 08:21:07   -11954.231704        0.0406
Timing:                                      incl.     excl.
-------------------------------------------------------------------
Density initialized from wave functions:    17.276    17.275   0.1% |
 Symmetrize density:                         0.001     0.001   0.0% |
Forces:                                    599.016   599.016   2.5% ||
Hamiltonian:                               103.706     0.004   0.0% |
 Atomic:                                     5.078     0.023   0.0% |
  XC Correction:                             5.055     5.055   0.0% |
 Calculate atomic Hamiltonians:              1.862     1.862   0.0% |
 Communicate:                                0.400     0.400   0.0% |
 Hartree integrate/restrict:                 0.281     0.281   0.0% |
 Initialize Hamiltonian:                     0.001     0.001   0.0% |
 Poisson:                                    5.150     0.219   0.0% |
  Communicate from 1D:                       0.392     0.392   0.0% |
  Communicate from 2D:                       0.820     0.820   0.0% |
  Communicate to 1D:                         0.236     0.236   0.0% |
  Communicate to 2D:                         0.918     0.918   0.0% |
  FFT 1D:                                    1.330     1.330   0.0% |
  FFT 2D:                                    1.234     1.234   0.0% |
 XC 3D grid:                                90.796    22.122   0.1% |
  VdW-DF integral:                          68.674     3.779   0.0% |
   Convolution:                              6.227     6.227   0.0% |
   FFT:                                      4.381     4.381   0.0% |
   gather:                                  22.231    22.231   0.1% |
   hmm1:                                     1.238     1.238   0.0% |
   hmm2:                                     2.598     2.598   0.0% |
   iFFT:                                     4.155     4.155   0.0% |
   potential:                               19.710     0.484   0.0% |
    collect:                                 1.357     1.357   0.0% |
    p1:                                     11.915    11.915   0.0% |
    p2:                                      4.094     4.094   0.0% |
    sum:                                     1.860     1.860   0.0% |
   splines:                                  4.355     4.355   0.0% |
 vbar:                                       0.135     0.135   0.0% |
LCAO initialization:                        46.178     2.544   0.0% |
 LCAO eigensolver:                          30.981     0.005   0.0% |
  Calculate projections:                     0.000     0.000   0.0% |
  DenseAtomicCorrection:                     0.000     0.000   0.0% |
  Distribute overlap matrix:                29.942    29.942   0.1% |
  Orbital Layouts:                           0.838     0.838   0.0% |
  Potential matrix:                          0.041     0.041   0.0% |
  Sum over cells:                            0.155     0.155   0.0% |
 LCAO to grid:                              10.770    10.770   0.0% |
 Set positions (LCAO WFS):                   1.883     1.263   0.0% |
  Basic WFS set positions:                   0.001     0.001   0.0% |
  Basis functions set positions:             0.000     0.000   0.0% |
  P tci:                                     0.001     0.001   0.0% |
  ST tci:                                    0.509     0.509   0.0% |
  mktci:                                     0.110     0.110   0.0% |
Redistribute:                                0.020     0.020   0.0% |
SCF-cycle:                               21655.750   278.621   1.2% |
 Davidson:                               19564.977  6156.015  25.8% |---------|
  Apply hamiltonian:                       403.321   403.321   1.7% ||
  Subspace diag:                          1921.517     0.073   0.0% |
   calc_h_matrix:                          934.573   530.504   2.2% ||
    Apply hamiltonian:                     404.068   404.068   1.7% ||
   diagonalize:                             48.576    48.576   0.2% |
   rotate_psi:                             938.296   938.296   3.9% |-|
  calc. matrices:                         8943.077  3538.561  14.8% |-----|
   Apply hamiltonian:                     5404.515  5404.515  22.6% |--------|
  diagonalize:                             307.670   307.670   1.3% ||
  rotate_psi:                             1833.377  1833.377   7.7% |--|
 Density:                                   34.806     0.013   0.0% |
  Atomic density matrices:                   3.134     3.134   0.0% |
  Mix:                                       7.747     7.747   0.0% |
  Multipole moments:                         0.199     0.199   0.0% |
  Pseudo density:                           23.712    23.693   0.1% |
   Symmetrize density:                       0.019     0.019   0.0% |
 Hamiltonian:                             1604.343     0.061   0.0% |
  Atomic:                                   82.758     0.369   0.0% |
   XC Correction:                           82.389    82.389   0.3% |
  Calculate atomic Hamiltonians:            30.632    30.632   0.1% |
  Communicate:                               5.843     5.843   0.0% |
  Hartree integrate/restrict:                4.461     4.461   0.0% |
  Poisson:                                  84.328     3.425   0.0% |
   Communicate from 1D:                      6.748     6.748   0.0% |
   Communicate from 2D:                     13.400    13.400   0.1% |
   Communicate to 1D:                        3.865     3.865   0.0% |
   Communicate to 2D:                       14.939    14.939   0.1% |
   FFT 1D:                                  21.817    21.817   0.1% |
   FFT 2D:                                  20.133    20.133   0.1% |
  XC 3D grid:                             1395.129   362.191   1.5% ||
   VdW-DF integral:                       1032.937    61.101   0.3% |
    Convolution:                           100.357   100.357   0.4% |
    FFT:                                    71.676    71.676   0.3% |
    gather:                                346.080   346.080   1.4% ||
    hmm1:                                   20.317    20.317   0.1% |
    hmm2:                                   42.047    42.047   0.2% |
    iFFT:                                   68.220    68.220   0.3% |
    potential:                             323.136     7.778   0.0% |
     collect:                               22.183    22.183   0.1% |
     p1:                                   195.871   195.871   0.8% |
     p2:                                    66.213    66.213   0.3% |
     sum:                                   31.091    31.091   0.1% |
    splines:                                 0.003     0.003   0.0% |
  vbar:                                      1.132     1.132   0.0% |
 Orthonormalize:                           173.003     0.008   0.0% |
  calc_s_matrix:                            13.526    13.526   0.1% |
  inverse-cholesky:                        133.071   133.071   0.6% |
  projections:                               0.002     0.002   0.0% |
  rotate_psi_s:                             26.396    26.396   0.1% |
Set symmetry:                                0.001     0.001   0.0% |
Other:                                    1483.201  1483.201   6.2% |-|
-------------------------------------------------------------------
Total:                                             23905.148 100.0%

Memory usage: 1.67 GiB
Date: Fri Sep 29 08:21:09 2023
