
  ___ ___ ___ _ _ _  
 |   |   |_  | | | | 
 | | | | | . | | | | 
 |__ |  _|___|_____|  22.8.0
 |___|_|             

User:   s204775@c134.nifl.fysik.dtu.dk
Date:   Fri Sep 29 01:42:50 2023
Arch:   x86_64
Pid:    3495
CWD:    /home/cat/s204775/projects/Bachelor_project/OCCOH_missing_features
Python: 3.10.4
gpaw:   /home/modules/software/GPAW/22.8.0-intel-2022a/lib/python3.10/site-packages/gpaw
_gpaw:  /home/modules/software/GPAW/22.8.0-intel-2022a/lib/python3.10/site-packages/
        _gpaw.cpython-310-x86_64-linux-gnu.so
ase:    /home/modules/software/ASE/3.22.1-intel-2022a/lib/python3.10/site-packages/ase (version 3.22.1)
numpy:  /home/modules/software/SciPy-bundle/2022.05-intel-2022a/lib/python3.10/site-packages/numpy (version 1.22.3)
scipy:  /home/modules/software/SciPy-bundle/2022.05-intel-2022a/lib/python3.10/site-packages/scipy (version 1.8.1)
libxc:  5.2.3
units:  Angstrom and eV
cores: 40
OpenMP: False
OMP_NUM_THREADS: 1

Input parameters:
  basis: dzp
  h: 0.18
  kpts: {size: (4, 4, 1)}
  xc: BEEF-vdW

System changes: positions, numbers, cell, pbc, initial_charges, initial_magmoms 

Initialize ...

species:
  Rh:
    name: Rhodium
    id: 4e1d209aee696a641de1ffa1459b299f
    Z: 45.0
    valence: 15
    core: 30
    charge: 0.0
    file: /home/modules/software/GPAW-setups/0.9.20000/Rh.PBE.gz
    compensation charges: {type: gauss,
                           rc: 0.38,
                           lmax: 2}
    cutoffs: {filter: 2.48,
              core: 2.35}
    valence states:
      #              energy  rcut
      - 5s(1.00)    -4.297   1.270
      - 4p(6.00)   -50.429   1.381
      - 5p(0.00)    -0.852   1.381
      - 4d(8.00)    -5.942   1.244
      -  s          22.915   1.270
      -  d          21.270   1.244
  
    # LCAO basis set for Rh:
    #   Name: dzp
    #   File: /home/modules/software/GPAW-setups/0.9.20000/Rh.dzp.basis.gz
    #   Number of radial functions: 9
    #   Number of spherical harmonics: 27
    #     l=0, rc=9.5469 Bohr: 5s-sz confined orbital
    #     l=1, rc=3.6250 Bohr: 4p-sz confined orbital
    #     l=1, rc=14.0938 Bohr: 5p-sz confined orbital
    #     l=2, rc=5.9844 Bohr: 4d-sz confined orbital
    #     l=0, rc=5.7031 Bohr: 5s-dz split-valence wave
    #     l=1, rc=2.4531 Bohr: 4p-dz split-valence wave
    #     l=1, rc=8.7031 Bohr: 5p-dz split-valence wave
    #     l=2, rc=3.5625 Bohr: 4d-dz split-valence wave
    #     l=1, rc=9.5469 Bohr: p-type Gaussian polarization
    #   Number of RI-basis functions 0

  H:
    name: Hydrogen
    id: d65de229564ff8ea4db303e23b6d1ecf
    Z: 1.0
    valence: 1
    core: 0
    charge: 0.0
    file: /home/modules/software/GPAW-setups/0.9.20000/H.PBE.gz
    compensation charges: {type: gauss,
                           rc: 0.15,
                           lmax: 2}
    cutoffs: {filter: 0.85,
              core: 0.53}
    valence states:
      #              energy  rcut
      - 1s(1.00)    -6.494   0.476
      -  s          20.717   0.476
      -  p           0.000   0.476
  
    # LCAO basis set for H:
    #   Name: dzp
    #   File: /home/modules/software/GPAW-setups/0.9.20000/H.dzp.basis.gz
    #   Number of radial functions: 3
    #   Number of spherical harmonics: 5
    #     l=0, rc=6.4219 Bohr: 1s-sz confined orbital
    #     l=0, rc=3.6094 Bohr: 1s-dz split-valence wave
    #     l=1, rc=6.4219 Bohr: p-type Gaussian polarization
    #   Number of RI-basis functions 0

  O:
    name: Oxygen
    id: 32ecd46bf208036f09c70b0ec9a88b78
    Z: 8.0
    valence: 6
    core: 2
    charge: 0.0
    file: /home/modules/software/GPAW-setups/0.9.20000/O.PBE.gz
    compensation charges: {type: gauss,
                           rc: 0.21,
                           lmax: 2}
    cutoffs: {filter: 1.17,
              core: 0.83}
    valence states:
      #              energy  rcut
      - 2s(2.00)   -23.961   0.688
      - 2p(4.00)    -9.029   0.598
      -  s           3.251   0.688
      -  p          18.182   0.598
      -  d           0.000   0.619
  
    # LCAO basis set for O:
    #   Name: dzp
    #   File: /home/modules/software/GPAW-setups/0.9.20000/O.dzp.basis.gz
    #   Number of radial functions: 5
    #   Number of spherical harmonics: 13
    #     l=0, rc=4.3438 Bohr: 2s-sz confined orbital
    #     l=1, rc=5.3906 Bohr: 2p-sz confined orbital
    #     l=0, rc=2.2969 Bohr: 2s-dz split-valence wave
    #     l=1, rc=2.8906 Bohr: 2p-dz split-valence wave
    #     l=2, rc=5.3906 Bohr: d-type Gaussian polarization
    #   Number of RI-basis functions 0

  C:
    name: Carbon
    id: 4aa54d4b901d75f77cc0ea3eec22967b
    Z: 6.0
    valence: 4
    core: 2
    charge: 0.0
    file: /home/modules/software/GPAW-setups/0.9.20000/C.PBE.gz
    compensation charges: {type: gauss,
                           rc: 0.20,
                           lmax: 2}
    cutoffs: {filter: 1.14,
              core: 1.14}
    valence states:
      #              energy  rcut
      - 2s(2.00)   -13.751   0.635
      - 2p(2.00)    -5.284   0.635
      -  s          13.461   0.635
      -  p          21.927   0.635
      -  d           0.000   0.635
  
    # LCAO basis set for C:
    #   Name: dzp
    #   File: /home/modules/software/GPAW-setups/0.9.20000/C.dzp.basis.gz
    #   Number of radial functions: 5
    #   Number of spherical harmonics: 13
    #     l=0, rc=5.5469 Bohr: 2s-sz confined orbital
    #     l=1, rc=6.6719 Bohr: 2p-sz confined orbital
    #     l=0, rc=3.0312 Bohr: 2s-dz split-valence wave
    #     l=1, rc=3.7500 Bohr: 2p-dz split-valence wave
    #     l=2, rc=6.6719 Bohr: d-type Gaussian polarization
    #   Number of RI-basis functions 0

Reference energy: -4690996.743002  # eV

Spin-paired calculation

Convergence criteria:
 Maximum [total energy] change in last 3 cyles: 0.0005 eV / electron
 Maximum integral of absolute [dens]ity change: 0.0001 electrons / valence electron
 Maximum integral of absolute [eigenst]ate change: 4e-08 eV^2 / valence electron
 Maximum number of scf [iter]ations: 333
 (Square brackets indicate name in SCF output, whereas a 'c' in
 the SCF output indicates the quantity has converged.)

Symmetries present (total): 1

  ( 1  0  0)
  ( 0  1  0)
  ( 0  0  1)

16 k-points: 4 x 4 x 1 Monkhorst-Pack grid
8 k-points in the irreducible part of the Brillouin zone
       k-points in crystal coordinates                weights
   0:     0.12500000   -0.37500000    0.00000000          2/16
   1:     0.12500000   -0.12500000    0.00000000          2/16
   2:     0.12500000    0.12500000    0.00000000          2/16
   3:     0.12500000    0.37500000    0.00000000          2/16
   4:     0.37500000   -0.37500000    0.00000000          2/16
   5:     0.37500000   -0.12500000    0.00000000          2/16
   6:     0.37500000    0.12500000    0.00000000          2/16
   7:     0.37500000    0.37500000    0.00000000          2/16

Wave functions: Uniform real-space grid
  Kinetic energy operator: 8*3+1=25 point O(h^6) finite-difference Laplacian
  ScaLapack parameters: grid=1x1, blocksize=None
  Wavefunction extrapolation:
    Improved wavefunction reuse through dual PAW basis 

Occupation numbers: Fermi-Dirac:
  width: 0.1000  # eV
 

Eigensolver
   Davidson(niter=2) 

Densities:
  Coarse grid: 40*40*148 grid
  Fine grid: 80*80*296 grid
  Total Charge: 0.000000 

Density mixing:
  Method: separate
  Backend: pulay
  Linear mixing parameter: 0.05
  old densities: 5
  Damping of long wavelength oscillations: 50 

Hamiltonian:
  XC and Coulomb potentials evaluated on a 80*80*296 grid
  Using the BEEF-vdW Exchange-Correlation functional
  Interpolation: tri-quintic (5. degree polynomial)
  Poisson solver: FastPoissonSolver using
    Stencil: 8*3+1=25 point O(h^6) finite-difference Laplacian
    FFT axes: [0, 1]
    FST axes: [2]
 

XC parameters: BEEF-vdW with 2 nearest neighbor stencil

Memory estimate:
  Process memory now: 216.00 MiB
  Calculator: 591.37 MiB
    Density: 66.53 MiB
      Arrays: 9.35 MiB
      Localized functions: 53.64 MiB
      Mixer: 3.54 MiB
    Hamiltonian: 10.38 MiB
      Arrays: 6.12 MiB
      XC: 0.00 MiB
      Poisson: 0.00 MiB
      vbar: 4.27 MiB
    Wavefunctions: 514.45 MiB
      Arrays psit_nG: 241.43 MiB
      Eigensolver: 262.72 MiB
      Projections: 0.73 MiB
      Projectors: 9.56 MiB

Total number of cores used: 40
Parallelization over k-points: 8
Domain decomposition: 1 x 1 x 5

Number of atoms: 41
Number of atomic orbitals: 1029
Number of bands in calculation: 341
Number of valence electrons: 561
Bands to converge: occupied

... initialized

Initializing position-dependent things.

Density initialized from atomic densities
Creating initial wave functions:
  341 bands from LCAO basis set

                                            
                                            
                                            
                                            
                                            
                                            
                                            
                   O                        
                  H                         
           Rh    OhC    Rh                  
            Rh    CRh    RRh                
                                            
             RRh    RRh    Rh               
                                            
              RRh    RRh    Rh              
                Rh     Rh     Rh            
                                            
           Rh    RRh    RRh    Rh           
            Rh     Rh     Rh                
                                            
              Rh     Rh    Rh               
                                            
                                            
                                            
                                            

Positions:
   0 Rh     0.000000    0.000000    9.999999    ( 0.0000,  0.0000,  0.0000)
   1 Rh     1.374814    0.793749   12.245061    ( 0.0000,  0.0000,  0.0000)
   2 Rh     0.000000    1.586401   14.446843    ( 0.0000,  0.0000,  0.0000)
   3 Rh    -0.000000    0.000000   16.662155    ( 0.0000,  0.0000,  0.0000)
   4 Rh    -1.374814    2.381247    9.999999    ( 0.0000,  0.0000,  0.0000)
   5 Rh    -0.000000    3.174997   12.245061    ( 0.0000,  0.0000,  0.0000)
   6 Rh    -1.374325    3.969028   14.447533    ( 0.0000,  0.0000,  0.0000)
   7 Rh    -1.373523    2.379417   16.659614    ( 0.0000,  0.0000,  0.0000)
   8 Rh    -2.749628    4.762495    9.999999    ( 0.0000,  0.0000,  0.0000)
   9 Rh    -1.374814    5.556244   12.245061    ( 0.0000,  0.0000,  0.0000)
  10 Rh    -2.750578    6.350542   14.446843    ( 0.0000,  0.0000,  0.0000)
  11 Rh    -2.750567    4.764528   16.659614    ( 0.0000,  0.0000,  0.0000)
  12 Rh     2.749628    0.000000    9.999999    ( 0.0000,  0.0000,  0.0000)
  13 Rh     4.124441    0.793749   12.245061    ( 0.0000,  0.0000,  0.0000)
  14 Rh     2.749543    1.587450   14.446652    ( 0.0000,  0.0000,  0.0000)
  15 Rh     2.747397   -0.000203   16.659614    ( 0.0000,  0.0000,  0.0000)
  16 Rh     1.374814    2.381247    9.999999    ( 0.0000,  0.0000,  0.0000)
  17 Rh     2.749628    3.174997   12.245061    ( 0.0000,  0.0000,  0.0000)
  18 Rh     1.374325    3.969028   14.447533    ( 0.0000,  0.0000,  0.0000)
  19 Rh     1.373523    2.379417   16.659614    ( 0.0000,  0.0000,  0.0000)
  20 Rh    -0.000000    4.762495    9.999999    ( 0.0000,  0.0000,  0.0000)
  21 Rh     1.374814    5.556244   12.245061    ( 0.0000,  0.0000,  0.0000)
  22 Rh    -0.000000    6.349429   14.447533    ( 0.0000,  0.0000,  0.0000)
  23 Rh    -0.000000    4.762495   16.661084    ( 0.0000,  0.0000,  0.0000)
  24 Rh     5.499255    0.000000    9.999999    ( 0.0000,  0.0000,  0.0000)
  25 Rh     6.874069    0.793749   12.245061    ( 0.0000,  0.0000,  0.0000)
  26 Rh     5.499340    1.587450   14.446652    ( 0.0000,  0.0000,  0.0000)
  27 Rh     5.501486   -0.000203   16.659614    ( 0.0000,  0.0000,  0.0000)
  28 Rh     4.124441    2.381247    9.999999    ( 0.0000,  0.0000,  0.0000)
  29 Rh     5.499255    3.174997   12.245061    ( 0.0000,  0.0000,  0.0000)
  30 Rh     4.124441    3.968843   14.446652    ( 0.0000,  0.0000,  0.0000)
  31 Rh     4.124441    2.381247   16.660091    ( 0.0000,  0.0000,  0.0000)
  32 Rh     2.749628    4.762495    9.999999    ( 0.0000,  0.0000,  0.0000)
  33 Rh     4.124441    5.556244   12.245061    ( 0.0000,  0.0000,  0.0000)
  34 Rh     2.750578    6.350542   14.446843    ( 0.0000,  0.0000,  0.0000)
  35 Rh     2.750567    4.764528   16.659614    ( 0.0000,  0.0000,  0.0000)
  36 H      1.438190   -0.183163   19.996860    ( 0.0000,  0.0000,  0.0000)
  37 O      1.415673   -0.548799   19.204787    ( 0.0000,  0.0000,  0.0000)
  38 C      1.419426    0.317656   18.205694    ( 0.0000,  0.0000,  0.0000)
  39 C      1.346112    1.813624   18.447801    ( 0.0000,  0.0000,  0.0000)
  40 O      1.398665    2.442172   19.731181    ( 0.0000,  0.0000,  0.0000)

Unit cell:
           periodic     x           y           z      points  spacing
  1. axis:    yes    8.248883    0.000000    0.000000    40     0.1786
  2. axis:    yes   -4.124441    7.143742    0.000000    40     0.1786
  3. axis:    no     0.000000    0.000000   26.735183   148     0.1806

  Lengths:   8.248883   8.248883  26.735183
  Angles:   90.000000  90.000000 120.000000

Effective grid spacing dv^(1/3) = 0.1881

     iter     time        total  log10-change:
                         energy  eigst   dens
iter:   1 01:45:04 -5294.886730
iter:   2 01:45:52 -5851.898640  +1.19  -1.09
iter:   3 01:46:40 -5275.862020  -0.18  -0.78
iter:   4 01:47:27 -5226.448375  -0.81  -1.21
iter:   5 01:48:15 -5222.335742  -1.38  -1.40
iter:   6 01:49:03 -5229.903837  -1.71  -1.45
iter:   7 01:49:50 -5227.215949  -1.26  -1.39
iter:   8 01:50:38 -5217.412893  -1.32  -1.44
iter:   9 01:51:26 -5215.867599  -1.73  -1.72
iter:  10 01:52:13 -5215.321332  -2.46  -1.88
iter:  11 01:53:01 -5215.123996  -2.20  -1.99
iter:  12 01:53:48 -5215.074445c -2.52  -2.15
iter:  13 01:54:36 -5215.077265c -3.00  -2.28
iter:  14 01:55:24 -5214.964061c -3.09  -2.30
iter:  15 01:56:11 -5214.986327c -3.27  -2.53
iter:  16 01:56:59 -5215.030488c -3.16  -2.60
iter:  17 01:57:47 -5214.950660c -3.63  -2.52
iter:  18 01:58:34 -5214.934103c -4.20  -2.80
iter:  19 01:59:22 -5214.930576c -4.50  -2.98
iter:  20 02:00:09 -5214.929386c -4.21  -3.07
iter:  21 02:00:57 -5214.934503c -4.42  -3.17
iter:  22 02:01:45 -5214.928432c -5.12  -3.26
iter:  23 02:02:32 -5214.933748c -4.78  -3.24
iter:  24 02:03:20 -5214.929851c -5.03  -3.11
iter:  25 02:04:08 -5214.929162c -5.08  -3.33
iter:  26 02:04:55 -5214.929220c -5.72  -3.54
iter:  27 02:05:43 -5214.930248c -5.63  -3.59
iter:  28 02:06:31 -5214.928763c -5.60  -3.63
iter:  29 02:07:19 -5214.930305c -5.85  -3.77
iter:  30 02:08:06 -5214.929643c -6.17  -3.86
iter:  31 02:08:54 -5214.929902c -6.09  -3.94
iter:  32 02:09:41 -5214.929639c -6.40  -3.90
iter:  33 02:10:29 -5214.929604c -6.71  -4.29c
iter:  34 02:11:17 -5214.929648c -7.10  -4.37c
iter:  35 02:12:04 -5214.929630c -7.35  -4.41c
iter:  36 02:12:52 -5214.929584c -7.44c -4.56c

Converged after 36 iterations.

Dipole moment: (-4.175757, -7.895612, -0.306072) |e|*Ang

Energy contributions relative to reference atoms: (reference = -4690996.743002)

Kinetic:       +784.211033
Potential:     -810.948009
External:        +0.000000
XC:            -5178.073660
Entropy (-ST):   -2.196297
Local:           -9.020799
--------------------------
Free energy:   -5216.027733
Extrapolated:  -5214.929584

Showing only first 2 kpts
 Kpt  Band  Eigenvalues  Occupancy
  0   278     -5.61393    1.20853
  0   279     -5.59197    1.10151
  0   280     -5.52165    0.75532
  0   281     -5.49940    0.65389

  1   278     -5.64303    1.34268
  1   279     -5.60806    1.18031
  1   280     -5.58795    1.08154
  1   281     -5.57096    0.99677


Fermi level: -5.57160

No gap

Forces in eV/Ang:
  0 Rh    0.01829    0.01796    0.19303
  1 Rh   -0.03086   -0.02503   -0.17219
  2 Rh   -0.05997   -0.01664   -0.36675
  3 Rh    0.17359    0.04467    0.64437
  4 Rh    0.01160   -0.00770    0.14336
  5 Rh    0.00377   -0.00289   -0.16682
  6 Rh    0.03501    0.00921    0.01546
  7 Rh   -0.27086    0.10099    0.03098
  8 Rh   -0.00678    0.01396    0.14957
  9 Rh    0.01195    0.01539   -0.17522
 10 Rh   -0.00291    0.01102   -0.28447
 11 Rh   -0.01041   -0.38684   -0.08096
 12 Rh   -0.02481    0.01835    0.17766
 13 Rh    0.02734   -0.02424   -0.23271
 14 Rh    0.05612   -0.00475   -0.35866
 15 Rh   -0.03331    0.03496    0.47147
 16 Rh   -0.00133   -0.02347    0.17621
 17 Rh    0.00099    0.00111   -0.16853
 18 Rh    0.00284    0.23582   -0.25911
 19 Rh   -0.05813    1.14264   -0.58163
 20 Rh    0.02966    0.01107    0.23150
 21 Rh    0.00955   -0.00493   -0.69869
 22 Rh    0.20890   -0.14965   -0.16656
 23 Rh    0.01966   -0.00758   -0.02308
 24 Rh    0.00723   -0.02507    0.25202
 25 Rh    0.00429   -0.03891   -0.22533
 26 Rh    0.00001   -0.03467    0.05295
 27 Rh    0.00644    0.02437   -0.02775
 28 Rh   -0.00840   -0.00031    0.15678
 29 Rh   -0.00429   -0.02060   -0.20545
 30 Rh   -0.03701    0.00898    0.02632
 31 Rh    0.26238    0.10580    0.01816
 32 Rh   -0.02711    0.01772    0.22100
 33 Rh   -0.01515    0.04544   -0.17806
 34 Rh   -0.19643   -0.14884   -0.17925
 35 Rh   -0.00785   -0.00367   -0.01904
 36 H     0.11537    3.13286    6.15393
 37 O    -0.06140   -3.83062   -4.98860
 38 C    -0.38858    1.72138   -0.19484
 39 C     0.63438    1.29279    7.13620
 40 O    -0.41117   -3.24283   -6.42548

      Step     Time          Energy         fmax
BFGS:    0 02:13:20    -5214.929584        7.2800
System changes: positions 

Initializing position-dependent things.

Density initialized from wave functions
                                            
                                            
                                            
                                            
                                            
                                            
                                            
                   O                        
                  HC                        
           Rh    Oh     Rh                  
            Rh    CRh     Rh                
            Rh    Rh     Rh                 
             RRh    RRh    Rh               
                                            
              RRh    RRh    RRh             
                Rh     Rh     Rh            
                                            
           Rh    RRh    RRh    Rh           
            Rh     Rh     Rh                
                                            
              Rh     Rh    Rh               
                                            
                                            
                                            
                                            

Positions:
   0 Rh     0.000000    0.000000    9.999999    ( 0.0000,  0.0000,  0.0000)
   1 Rh     1.374814    0.793749   12.245061    ( 0.0000,  0.0000,  0.0000)
   2 Rh    -0.000857    1.586164   14.441604    ( 0.0000,  0.0000,  0.0000)
   3 Rh     0.002480    0.000638   16.671361    ( 0.0000,  0.0000,  0.0000)
   4 Rh    -1.374814    2.381247    9.999999    ( 0.0000,  0.0000,  0.0000)
   5 Rh    -0.000000    3.174997   12.245061    ( 0.0000,  0.0000,  0.0000)
   6 Rh    -1.373825    3.969159   14.447754    ( 0.0000,  0.0000,  0.0000)
   7 Rh    -1.377392    2.380860   16.660057    ( 0.0000,  0.0000,  0.0000)
   8 Rh    -2.749628    4.762495    9.999999    ( 0.0000,  0.0000,  0.0000)
   9 Rh    -1.374814    5.556244   12.245061    ( 0.0000,  0.0000,  0.0000)
  10 Rh    -2.750619    6.350699   14.442780    ( 0.0000,  0.0000,  0.0000)
  11 Rh    -2.750716    4.759002   16.658458    ( 0.0000,  0.0000,  0.0000)
  12 Rh     2.749628    0.000000    9.999999    ( 0.0000,  0.0000,  0.0000)
  13 Rh     4.124441    0.793749   12.245061    ( 0.0000,  0.0000,  0.0000)
  14 Rh     2.750345    1.587382   14.441528    ( 0.0000,  0.0000,  0.0000)
  15 Rh     2.746921    0.000297   16.666350    ( 0.0000,  0.0000,  0.0000)
  16 Rh     1.374814    2.381247    9.999999    ( 0.0000,  0.0000,  0.0000)
  17 Rh     2.749628    3.174997   12.245061    ( 0.0000,  0.0000,  0.0000)
  18 Rh     1.374366    3.972397   14.443831    ( 0.0000,  0.0000,  0.0000)
  19 Rh     1.372693    2.395740   16.651305    ( 0.0000,  0.0000,  0.0000)
  20 Rh    -0.000000    4.762495    9.999999    ( 0.0000,  0.0000,  0.0000)
  21 Rh     1.374814    5.556244   12.245061    ( 0.0000,  0.0000,  0.0000)
  22 Rh     0.002984    6.347291   14.445153    ( 0.0000,  0.0000,  0.0000)
  23 Rh     0.000281    4.762387   16.660754    ( 0.0000,  0.0000,  0.0000)
  24 Rh     5.499255    0.000000    9.999999    ( 0.0000,  0.0000,  0.0000)
  25 Rh     6.874069    0.793749   12.245061    ( 0.0000,  0.0000,  0.0000)
  26 Rh     5.499340    1.586954   14.447408    ( 0.0000,  0.0000,  0.0000)
  27 Rh     5.501578    0.000145   16.659218    ( 0.0000,  0.0000,  0.0000)
  28 Rh     4.124441    2.381247    9.999999    ( 0.0000,  0.0000,  0.0000)
  29 Rh     5.499255    3.174997   12.245061    ( 0.0000,  0.0000,  0.0000)
  30 Rh     4.123913    3.968971   14.447028    ( 0.0000,  0.0000,  0.0000)
  31 Rh     4.128190    2.382759   16.660350    ( 0.0000,  0.0000,  0.0000)
  32 Rh     2.749628    4.762495    9.999999    ( 0.0000,  0.0000,  0.0000)
  33 Rh     4.124441    5.556244   12.245061    ( 0.0000,  0.0000,  0.0000)
  34 Rh     2.747771    6.348415   14.444283    ( 0.0000,  0.0000,  0.0000)
  35 Rh     2.750455    4.764476   16.659343    ( 0.0000,  0.0000,  0.0000)
  36 H      1.439838   -0.138408   20.084773    ( 0.0000,  0.0000,  0.0000)
  37 O      1.414796   -0.603523   19.133521    ( 0.0000,  0.0000,  0.0000)
  38 C      1.413875    0.342247   18.202910    ( 0.0000,  0.0000,  0.0000)
  39 C      1.355175    1.832092   18.549746    ( 0.0000,  0.0000,  0.0000)
  40 O      1.392791    2.395845   19.639388    ( 0.0000,  0.0000,  0.0000)

Unit cell:
           periodic     x           y           z      points  spacing
  1. axis:    yes    8.248883    0.000000    0.000000    40     0.1786
  2. axis:    yes   -4.124441    7.143742    0.000000    40     0.1786
  3. axis:    no     0.000000    0.000000   26.735183   148     0.1806

  Lengths:   8.248883   8.248883  26.735183
  Angles:   90.000000  90.000000 120.000000

Effective grid spacing dv^(1/3) = 0.1881

     iter     time        total  log10-change:
                         energy  eigst   dens
iter:   1 02:15:14 -5219.503748  -0.90
iter:   2 02:16:03 -5231.024819  -1.54  -2.00
iter:   3 02:16:52 -5230.697042  -1.51  -1.49
iter:   4 02:17:41 -5219.794703  -1.88  -1.50
iter:   5 02:18:30 -5216.797985  -2.28  -1.81
iter:   6 02:19:18 -5216.470644  -2.26  -2.36
iter:   7 02:20:07 -5216.409457  -2.32  -2.40
iter:   8 02:20:56 -5216.380324c -2.63  -2.46
iter:   9 02:21:45 -5216.335977c -2.99  -2.37
iter:  10 02:22:34 -5216.179833c -3.02  -2.41
iter:  11 02:23:22 -5216.171152c -3.19  -2.91
iter:  12 02:24:11 -5216.163915c -3.62  -3.06
iter:  13 02:25:00 -5216.174777c -3.91  -3.14
iter:  14 02:25:49 -5216.175658c -4.16  -3.08
iter:  15 02:26:38 -5216.172675c -4.35  -2.88
iter:  16 02:27:26 -5216.164415c -4.75  -2.95
iter:  17 02:28:15 -5216.163120c -4.93  -3.39
iter:  18 02:29:04 -5216.161458c -4.98  -3.52
iter:  19 02:29:53 -5216.163223c -5.24  -3.61
iter:  20 02:30:42 -5216.161995c -5.16  -3.66
iter:  21 02:31:31 -5216.164957c -5.27  -3.38
iter:  22 02:32:19 -5216.162987c -5.43  -3.24
iter:  23 02:33:08 -5216.161774c -5.40  -3.84
iter:  24 02:33:57 -5216.161166c -5.62  -4.07c
iter:  25 02:34:46 -5216.162000c -6.01  -3.92
iter:  26 02:35:35 -5216.161403c -6.20  -4.11c
iter:  27 02:36:23 -5216.163033c -5.89  -3.85
iter:  28 02:37:12 -5216.162250c -5.98  -3.47
iter:  29 02:38:01 -5216.161717c -6.44  -4.23c
iter:  30 02:38:50 -5216.161613c -6.91  -4.39c
iter:  31 02:39:39 -5216.161924c -7.10  -4.45c
iter:  32 02:40:27 -5216.161707c -7.17  -4.49c
iter:  33 02:41:16 -5216.161925c -6.79  -4.42c
iter:  34 02:42:05 -5216.161915c -7.09  -3.96
iter:  35 02:42:54 -5216.161812c -7.67c -4.78c

Converged after 35 iterations.

Dipole moment: (-3.728598, -8.775051, 0.007710) |e|*Ang

Energy contributions relative to reference atoms: (reference = -4690996.743002)

Kinetic:       +783.731407
Potential:     -811.792299
External:        +0.000000
XC:            -5177.975567
Entropy (-ST):   -2.193682
Local:           -9.028512
--------------------------
Free energy:   -5217.258652
Extrapolated:  -5216.161812

Showing only first 2 kpts
 Kpt  Band  Eigenvalues  Occupancy
  0   278     -5.31300    1.19865
  0   279     -5.29052    1.08870
  0   280     -5.22151    0.74931
  0   281     -5.20243    0.66227

  1   278     -5.34667    1.35372
  1   279     -5.30921    1.18038
  1   280     -5.29115    1.09180
  1   281     -5.27311    1.00185


Fermi level: -5.27274

No gap

Forces in eV/Ang:
  0 Rh    0.01752    0.01816    0.19272
  1 Rh   -0.03019   -0.02491   -0.19433
  2 Rh   -0.04169   -0.04010   -0.23434
  3 Rh    0.15725    0.17564    0.52875
  4 Rh    0.01089   -0.00917    0.14667
  5 Rh   -0.00214   -0.00095   -0.18020
  6 Rh    0.02569    0.00877    0.00724
  7 Rh   -0.20629    0.07002    0.01373
  8 Rh   -0.00661    0.01390    0.15220
  9 Rh    0.01155    0.00789   -0.18511
 10 Rh   -0.00467    0.02357   -0.20261
 11 Rh   -0.01167   -0.36249   -0.10676
 12 Rh   -0.02451    0.01907    0.17669
 13 Rh    0.03381   -0.02328   -0.24381
 14 Rh    0.03447   -0.02792   -0.23801
 15 Rh   -0.03321    0.19096    0.37682
 16 Rh   -0.00124   -0.02357    0.17390
 17 Rh    0.00629    0.00329   -0.18118
 18 Rh    0.00147    0.18584   -0.22290
 19 Rh   -0.06520    0.59867    0.35013
 20 Rh    0.02890    0.01419    0.23125
 21 Rh    0.00729   -0.01090   -0.71478
 22 Rh    0.15914   -0.10803   -0.13983
 23 Rh    0.01279    0.00192   -0.04174
 24 Rh    0.00754   -0.02824    0.24088
 25 Rh   -0.00396   -0.03862   -0.23920
 26 Rh    0.00044   -0.03848    0.02816
 27 Rh    0.00973    0.03066   -0.02407
 28 Rh   -0.00863   -0.00157    0.15992
 29 Rh   -0.00401   -0.02036   -0.20583
 30 Rh   -0.02564    0.01033    0.01659
 31 Rh    0.19298    0.07642    0.00258
 32 Rh   -0.02665    0.02189    0.21939
 33 Rh   -0.01498    0.03714   -0.18719
 34 Rh   -0.14470   -0.10157   -0.13949
 35 Rh   -0.00064    0.00841   -0.04023
 36 H    -0.09749   -1.28257   -2.32754
 37 O     0.12234    0.65095    4.00520
 38 C    -0.32950    1.21643   -0.73617
 39 C     0.38722   -0.44680    0.83615
 40 O    -0.17142   -0.84946   -1.10686

BFGS:    1 02:43:22    -5216.161812        4.0596
System changes: positions 

Initializing position-dependent things.

Density initialized from wave functions
                                            
                                            
                                            
                                            
                                            
                                            
                                            
                   O                        
                  HC                        
           Rh    Oh     Rh                  
            Rh    CRh    RRh                
                                            
             RRh    RRh    Rh               
                                            
              RRh    RRh    RRh             
                Rh     Rh     Rh            
                                            
           Rh    RRh    RRh    Rh           
            Rh     Rh     Rh                
                                            
              Rh     Rh    Rh               
                                            
                                            
                                            
                                            

Positions:
   0 Rh     0.000000    0.000000    9.999999    ( 0.0000,  0.0000,  0.0000)
   1 Rh     1.374814    0.793749   12.245061    ( 0.0000,  0.0000,  0.0000)
   2 Rh    -0.001494    1.585618   14.437973    ( 0.0000,  0.0000,  0.0000)
   3 Rh     0.004797    0.002980   16.679252    ( 0.0000,  0.0000,  0.0000)
   4 Rh    -1.374814    2.381247    9.999999    ( 0.0000,  0.0000,  0.0000)
   5 Rh    -0.000000    3.174997   12.245061    ( 0.0000,  0.0000,  0.0000)
   6 Rh    -1.373436    3.969288   14.447873    ( 0.0000,  0.0000,  0.0000)
   7 Rh    -1.380503    2.381930   16.660285    ( 0.0000,  0.0000,  0.0000)
   8 Rh    -2.749628    4.762495    9.999999    ( 0.0000,  0.0000,  0.0000)
   9 Rh    -1.374814    5.556244   12.245061    ( 0.0000,  0.0000,  0.0000)
  10 Rh    -2.750684    6.351022   14.439694    ( 0.0000,  0.0000,  0.0000)
  11 Rh    -2.750884    4.753682   16.656946    ( 0.0000,  0.0000,  0.0000)
  12 Rh     2.749628    0.000000    9.999999    ( 0.0000,  0.0000,  0.0000)
  13 Rh     4.124441    0.793749   12.245061    ( 0.0000,  0.0000,  0.0000)
  14 Rh     2.750883    1.587013   14.437863    ( 0.0000,  0.0000,  0.0000)
  15 Rh     2.746437    0.002821   16.671994    ( 0.0000,  0.0000,  0.0000)
  16 Rh     1.374814    2.381247    9.999999    ( 0.0000,  0.0000,  0.0000)
  17 Rh     2.749628    3.174997   12.245061    ( 0.0000,  0.0000,  0.0000)
  18 Rh     1.374389    3.975185   14.440525    ( 0.0000,  0.0000,  0.0000)
  19 Rh     1.371755    2.405356   16.654868    ( 0.0000,  0.0000,  0.0000)
  20 Rh    -0.000000    4.762495    9.999999    ( 0.0000,  0.0000,  0.0000)
  21 Rh     1.374814    5.556244   12.245061    ( 0.0000,  0.0000,  0.0000)
  22 Rh     0.005384    6.345649   14.443073    ( 0.0000,  0.0000,  0.0000)
  23 Rh     0.000478    4.762399   16.660177    ( 0.0000,  0.0000,  0.0000)
  24 Rh     5.499255    0.000000    9.999999    ( 0.0000,  0.0000,  0.0000)
  25 Rh     6.874069    0.793749   12.245061    ( 0.0000,  0.0000,  0.0000)
  26 Rh     5.499345    1.586400   14.447859    ( 0.0000,  0.0000,  0.0000)
  27 Rh     5.501714    0.000582   16.658861    ( 0.0000,  0.0000,  0.0000)
  28 Rh     4.124441    2.381247    9.999999    ( 0.0000,  0.0000,  0.0000)
  29 Rh     5.499255    3.174997   12.245061    ( 0.0000,  0.0000,  0.0000)
  30 Rh     4.123521    3.969119   14.447286    ( 0.0000,  0.0000,  0.0000)
  31 Rh     4.131115    2.383920   16.660413    ( 0.0000,  0.0000,  0.0000)
  32 Rh     2.749628    4.762495    9.999999    ( 0.0000,  0.0000,  0.0000)
  33 Rh     4.124441    5.556244   12.245061    ( 0.0000,  0.0000,  0.0000)
  34 Rh     2.745579    6.346858   14.442186    ( 0.0000,  0.0000,  0.0000)
  35 Rh     2.750434    4.764578   16.658792    ( 0.0000,  0.0000,  0.0000)
  36 H      1.438770   -0.149807   20.064860    ( 0.0000,  0.0000,  0.0000)
  37 O      1.416275   -0.601432   19.177021    ( 0.0000,  0.0000,  0.0000)
  38 C      1.408979    0.360795   18.193082    ( 0.0000,  0.0000,  0.0000)
  39 C      1.361222    1.828453   18.572311    ( 0.0000,  0.0000,  0.0000)
  40 O      1.389900    2.379528   19.614499    ( 0.0000,  0.0000,  0.0000)

Unit cell:
           periodic     x           y           z      points  spacing
  1. axis:    yes    8.248883    0.000000    0.000000    40     0.1786
  2. axis:    yes   -4.124441    7.143742    0.000000    40     0.1786
  3. axis:    no     0.000000    0.000000   26.735183   148     0.1806

  Lengths:   8.248883   8.248883  26.735183
  Angles:   90.000000  90.000000 120.000000

Effective grid spacing dv^(1/3) = 0.1881

     iter     time        total  log10-change:
                         energy  eigst   dens
iter:   1 02:45:14 -5218.184153  -1.68
iter:   2 02:46:03 -5253.142754  -1.33  -1.97
iter:   3 02:46:51 -5218.725159  -1.68  -1.35
iter:   4 02:47:40 -5216.773980  -2.35  -1.97
iter:   5 02:48:28 -5216.458232  -3.04  -2.26
iter:   6 02:49:16 -5216.385709  -3.13  -2.59
iter:   7 02:50:05 -5216.384124c -3.57  -2.77
iter:   8 02:50:53 -5216.356493c -3.40  -2.78
iter:   9 02:51:42 -5216.347225c -3.50  -2.98
iter:  10 02:52:30 -5216.347614c -4.11  -3.36
iter:  11 02:53:19 -5216.345710c -4.52  -3.08
iter:  12 02:54:07 -5216.342661c -4.63  -3.45
iter:  13 02:54:56 -5216.345988c -4.77  -3.63
iter:  14 02:55:44 -5216.342901c -5.13  -3.46
iter:  15 02:56:33 -5216.343913c -5.66  -3.63
iter:  16 02:57:21 -5216.343086c -5.52  -3.84
iter:  17 02:58:10 -5216.344283c -5.59  -3.45
iter:  18 02:58:58 -5216.343200c -5.95  -3.74
iter:  19 02:59:47 -5216.343573c -6.19  -4.09c
iter:  20 03:00:35 -5216.342972c -6.24  -4.22c
iter:  21 03:01:23 -5216.343406c -6.42  -3.93
iter:  22 03:02:12 -5216.342960c -6.45  -4.35c
iter:  23 03:03:00 -5216.343542c -6.75  -4.28c
iter:  24 03:03:50 -5216.343178c -6.94  -4.12c
iter:  25 03:04:38 -5216.343347c -7.02  -4.49c
iter:  26 03:05:27 -5216.343187c -7.45c -4.68c

Converged after 26 iterations.

Dipole moment: (-3.664284, -8.686738, 0.029826) |e|*Ang

Energy contributions relative to reference atoms: (reference = -4690996.743002)

Kinetic:       +788.228366
Potential:     -815.352478
External:        +0.000000
XC:            -5179.102541
Entropy (-ST):   -2.192279
Local:           -9.020395
--------------------------
Free energy:   -5217.439327
Extrapolated:  -5216.343187

Showing only first 2 kpts
 Kpt  Band  Eigenvalues  Occupancy
  0   278     -5.29052    1.19507
  0   279     -5.26752    1.08238
  0   280     -5.19942    0.74767
  0   281     -5.18197    0.66792

  1   278     -5.32578    1.35738
  1   279     -5.28805    1.18315
  1   280     -5.27030    1.09618
  1   281     -5.25227    1.00635


Fermi level: -5.25100

No gap

Forces in eV/Ang:
  0 Rh    0.01914    0.01834    0.19093
  1 Rh   -0.03058   -0.02416   -0.20928
  2 Rh   -0.01723   -0.03936   -0.15976
  3 Rh    0.13344    0.14447    0.48659
  4 Rh    0.01101   -0.00833    0.14595
  5 Rh   -0.00640    0.00108   -0.19068
  6 Rh    0.02461    0.00718    0.00607
  7 Rh   -0.17993    0.06220    0.00457
  8 Rh   -0.00621    0.01391    0.15124
  9 Rh    0.01174    0.00330   -0.19011
 10 Rh   -0.00518    0.03113   -0.13335
 11 Rh   -0.01133   -0.28924   -0.07502
 12 Rh   -0.02586    0.01963    0.17385
 13 Rh    0.03826   -0.02294   -0.24782
 14 Rh    0.00995   -0.02659   -0.16925
 15 Rh   -0.02348    0.16533    0.35430
 16 Rh   -0.00092   -0.02557    0.16871
 17 Rh    0.00979    0.00626   -0.19146
 18 Rh    0.00034    0.14872   -0.19960
 19 Rh   -0.05082    0.49467    0.36329
 20 Rh    0.02842    0.01396    0.22905
 21 Rh    0.00577   -0.01348   -0.74106
 22 Rh    0.11526   -0.07907   -0.09791
 23 Rh    0.00236    0.01758   -0.03967
 24 Rh    0.00739   -0.02997    0.23765
 25 Rh   -0.00992   -0.03864   -0.24445
 26 Rh    0.00055   -0.03772    0.02015
 27 Rh    0.01116    0.02615   -0.02106
 28 Rh   -0.00902   -0.00068    0.15870
 29 Rh   -0.00404   -0.01979   -0.20633
 30 Rh   -0.02349    0.00953    0.01260
 31 Rh    0.15821    0.06587   -0.00386
 32 Rh   -0.02615    0.02197    0.21592
 33 Rh   -0.01597    0.03224   -0.19157
 34 Rh   -0.10087   -0.07084   -0.08739
 35 Rh    0.00759    0.02172   -0.03941
 36 H    -0.04561   -0.48268   -0.73919
 37 O     0.04737    0.72357    1.21801
 38 C    -0.26900    0.01898    0.32462
 39 C     0.23445   -1.71269   -2.28287
 40 O    -0.07442    0.84273    2.02958

BFGS:    2 03:05:55    -5216.343187        2.8635
System changes: positions 

Initializing position-dependent things.

Density initialized from wave functions
                                            
                                            
                                            
                                            
                                            
                                            
                                            
                   O                        
                  HC                        
           Rh    Oh     Rh                  
            Rh    CRh    RRh                
                                            
             RRh    RRh    Rh               
                                            
              RRh    RRh    Rh              
                Rh     Rh     Rh            
                                            
           Rh    RRh    RRh    Rh           
            Rh     Rh     Rh                
                                            
              Rh     Rh    Rh               
                                            
                                            
                                            
                                            

Positions:
   0 Rh     0.000000    0.000000    9.999999    ( 0.0000,  0.0000,  0.0000)
   1 Rh     1.374814    0.793749   12.245061    ( 0.0000,  0.0000,  0.0000)
   2 Rh    -0.001993    1.584853   14.434284    ( 0.0000,  0.0000,  0.0000)
   3 Rh     0.007583    0.005929   16.689181    ( 0.0000,  0.0000,  0.0000)
   4 Rh    -1.374814    2.381247    9.999999    ( 0.0000,  0.0000,  0.0000)
   5 Rh    -0.000000    3.174997   12.245061    ( 0.0000,  0.0000,  0.0000)
   6 Rh    -1.372937    3.969439   14.448005    ( 0.0000,  0.0000,  0.0000)
   7 Rh    -1.384254    2.383225   16.660442    ( 0.0000,  0.0000,  0.0000)
   8 Rh    -2.749628    4.762495    9.999999    ( 0.0000,  0.0000,  0.0000)
   9 Rh    -1.374814    5.556244   12.245061    ( 0.0000,  0.0000,  0.0000)
  10 Rh    -2.750782    6.351582   14.436592    ( 0.0000,  0.0000,  0.0000)
  11 Rh    -2.751109    4.747520   16.655292    ( 0.0000,  0.0000,  0.0000)
  12 Rh     2.749628    0.000000    9.999999    ( 0.0000,  0.0000,  0.0000)
  13 Rh     4.124441    0.793749   12.245061    ( 0.0000,  0.0000,  0.0000)
  14 Rh     2.751241    1.586496   14.434030    ( 0.0000,  0.0000,  0.0000)
  15 Rh     2.745916    0.006131   16.679182    ( 0.0000,  0.0000,  0.0000)
  16 Rh     1.374814    2.381247    9.999999    ( 0.0000,  0.0000,  0.0000)
  17 Rh     2.749628    3.174997   12.245061    ( 0.0000,  0.0000,  0.0000)
  18 Rh     1.374404    3.978376   14.436424    ( 0.0000,  0.0000,  0.0000)
  19 Rh     1.370670    2.416105   16.661328    ( 0.0000,  0.0000,  0.0000)
  20 Rh    -0.000000    4.762495    9.999999    ( 0.0000,  0.0000,  0.0000)
  21 Rh     1.374814    5.556244   12.245061    ( 0.0000,  0.0000,  0.0000)
  22 Rh     0.007955    6.343887   14.440872    ( 0.0000,  0.0000,  0.0000)
  23 Rh     0.000592    4.762645   16.659395    ( 0.0000,  0.0000,  0.0000)
  24 Rh     5.499255    0.000000    9.999999    ( 0.0000,  0.0000,  0.0000)
  25 Rh     6.874069    0.793749   12.245061    ( 0.0000,  0.0000,  0.0000)
  26 Rh     5.499355    1.585654   14.448322    ( 0.0000,  0.0000,  0.0000)
  27 Rh     5.501923    0.001120   16.658425    ( 0.0000,  0.0000,  0.0000)
  28 Rh     4.124441    2.381247    9.999999    ( 0.0000,  0.0000,  0.0000)
  29 Rh     5.499255    3.174997   12.245061    ( 0.0000,  0.0000,  0.0000)
  30 Rh     4.123037    3.969311   14.447565    ( 0.0000,  0.0000,  0.0000)
  31 Rh     4.134491    2.385303   16.660386    ( 0.0000,  0.0000,  0.0000)
  32 Rh     2.749628    4.762495    9.999999    ( 0.0000,  0.0000,  0.0000)
  33 Rh     4.124441    5.556244   12.245061    ( 0.0000,  0.0000,  0.0000)
  34 Rh     2.743291    6.345244   14.440122    ( 0.0000,  0.0000,  0.0000)
  35 Rh     2.750530    4.764918   16.658023    ( 0.0000,  0.0000,  0.0000)
  36 H      1.437701   -0.161161   20.046447    ( 0.0000,  0.0000,  0.0000)
  37 O      1.417536   -0.590613   19.211739    ( 0.0000,  0.0000,  0.0000)
  38 C      1.403269    0.368705   18.193476    ( 0.0000,  0.0000,  0.0000)
  39 C      1.366931    1.803447   18.550264    ( 0.0000,  0.0000,  0.0000)
  40 O      1.387687    2.384372   19.632106    ( 0.0000,  0.0000,  0.0000)

Unit cell:
           periodic     x           y           z      points  spacing
  1. axis:    yes    8.248883    0.000000    0.000000    40     0.1786
  2. axis:    yes   -4.124441    7.143742    0.000000    40     0.1786
  3. axis:    no     0.000000    0.000000   26.735183   148     0.1806

  Lengths:   8.248883   8.248883  26.735183
  Angles:   90.000000  90.000000 120.000000

Effective grid spacing dv^(1/3) = 0.1881

     iter     time        total  log10-change:
                         energy  eigst   dens
iter:   1 03:07:48 -5217.229078  -1.78
iter:   2 03:08:37 -5240.840576  -1.64  -2.11
iter:   3 03:09:26 -5216.690794  -2.10  -1.42
iter:   4 03:10:15 -5216.519309  -2.76  -2.44
iter:   5 03:11:03 -5216.431886c -3.14  -2.59
iter:   6 03:11:52 -5216.413763c -3.42  -2.75
iter:   7 03:12:41 -5216.401483c -3.71  -2.96
iter:   8 03:13:30 -5216.406937c -3.71  -3.15
iter:   9 03:14:18 -5216.412743c -3.95  -2.98
iter:  10 03:15:07 -5216.396232c -4.16  -2.83
iter:  11 03:15:56 -5216.392779c -4.27  -3.38
iter:  12 03:16:45 -5216.393287c -4.45  -3.14
iter:  13 03:17:34 -5216.390925c -4.84  -3.48
iter:  14 03:18:22 -5216.390966c -5.36  -3.76
iter:  15 03:19:11 -5216.391552c -5.43  -3.80
iter:  16 03:20:00 -5216.391718c -5.67  -3.37
iter:  17 03:20:49 -5216.390145c -5.74  -3.77
iter:  18 03:21:37 -5216.391457c -5.98  -3.77
iter:  19 03:22:26 -5216.390826c -6.16  -3.99
iter:  20 03:23:15 -5216.390918c -6.27  -4.20c
iter:  21 03:24:04 -5216.390793c -6.10  -4.19c
iter:  22 03:24:53 -5216.391290c -6.32  -3.80
iter:  23 03:25:41 -5216.390674c -6.69  -4.13c
iter:  24 03:26:30 -5216.391172c -6.94  -4.24c
iter:  25 03:27:19 -5216.390886c -7.12  -4.41c
iter:  26 03:28:08 -5216.390921c -7.05  -4.56c
iter:  27 03:28:57 -5216.390828c -7.08  -4.53c
iter:  28 03:29:45 -5216.390975c -7.53c -4.40c

Converged after 28 iterations.

Dipole moment: (-3.500674, -8.663472, -0.092212) |e|*Ang

Energy contributions relative to reference atoms: (reference = -4690996.743002)

Kinetic:       +786.327602
Potential:     -813.605119
External:        +0.000000
XC:            -5178.992192
Entropy (-ST):   -2.189209
Local:           -9.026662
--------------------------
Free energy:   -5217.485580
Extrapolated:  -5216.390975

Showing only first 2 kpts
 Kpt  Band  Eigenvalues  Occupancy
  0   278     -5.40559    1.19272
  0   279     -5.38338    1.08393
  0   280     -5.31418    0.74396
  0   281     -5.29770    0.66873

  1   278     -5.44286    1.36404
  1   279     -5.40412    1.18567
  1   280     -5.38605    1.09716
  1   281     -5.36852    1.00982


Fermi level: -5.36655

No gap

Forces in eV/Ang:
  0 Rh    0.02142    0.01781    0.19070
  1 Rh   -0.03158   -0.02253   -0.22381
  2 Rh    0.00270   -0.03150   -0.09778
  3 Rh    0.07236    0.10772    0.36601
  4 Rh    0.01069   -0.00796    0.14706
  5 Rh   -0.00992    0.00325   -0.19881
  6 Rh    0.02201    0.00676   -0.00121
  7 Rh   -0.14236    0.04708   -0.00736
  8 Rh   -0.00597    0.01540    0.15179
  9 Rh    0.01224   -0.00015   -0.19479
 10 Rh   -0.00481    0.03582   -0.06513
 11 Rh   -0.01093   -0.21673   -0.06537
 12 Rh   -0.02813    0.01992    0.17257
 13 Rh    0.04107   -0.02106   -0.24969
 14 Rh   -0.00950   -0.01893   -0.10834
 15 Rh   -0.00018    0.13403    0.26658
 16 Rh   -0.00066   -0.02836    0.16690
 17 Rh    0.01251    0.00984   -0.19907
 18 Rh   -0.00103    0.12311   -0.18776
 19 Rh   -0.03093    0.42568    0.21364
 20 Rh    0.02783    0.01325    0.23015
 21 Rh    0.00482   -0.00512   -0.78258
 22 Rh    0.06999   -0.05136   -0.06349
 23 Rh   -0.00294    0.03099   -0.04442
 24 Rh    0.00703   -0.02976    0.24098
 25 Rh   -0.01381   -0.03723   -0.24706
 26 Rh    0.00046   -0.03280    0.01024
 27 Rh    0.01241    0.02193   -0.02582
 28 Rh   -0.00909   -0.00088    0.15931
 29 Rh   -0.00392   -0.01928   -0.20428
 30 Rh   -0.02009    0.00932    0.00244
 31 Rh    0.11291    0.04733   -0.01512
 32 Rh   -0.02594    0.02145    0.21531
 33 Rh   -0.01755    0.02932   -0.19553
 34 Rh   -0.05623   -0.04239   -0.04324
 35 Rh    0.00919    0.03184   -0.04558
 36 H     0.00912    0.85833    1.62792
 37 O    -0.03666   -0.36273   -1.68205
 38 C    -0.18947   -0.62438    0.85979
 39 C     0.21286    0.30959    1.00799
 40 O    -0.09078   -0.77214   -1.11355

BFGS:    3 03:30:13    -5216.390975        1.8404
System changes: positions 

Initializing position-dependent things.

Density initialized from wave functions
                                            
                                            
                                            
                                            
                                            
                                            
                                            
                   O                        
                  HC                        
           Rh    Oh     Rh                  
            Rh    CRh    RRh                
                                            
             RRh    RRh    Rh               
                                            
              RRh    RRh    Rh              
                Rh     Rh     Rh            
                                            
           Rh    RRh    RRh    Rh           
            Rh     Rh     Rh                
                                            
              Rh     Rh    Rh               
                                            
                                            
                                            
                                            

Positions:
   0 Rh     0.000000    0.000000    9.999999    ( 0.0000,  0.0000,  0.0000)
   1 Rh     1.374814    0.793749   12.245061    ( 0.0000,  0.0000,  0.0000)
   2 Rh    -0.001944    1.584570   14.433519    ( 0.0000,  0.0000,  0.0000)
   3 Rh     0.008195    0.006889   16.692339    ( 0.0000,  0.0000,  0.0000)
   4 Rh    -1.374814    2.381247    9.999999    ( 0.0000,  0.0000,  0.0000)
   5 Rh    -0.000000    3.174997   12.245061    ( 0.0000,  0.0000,  0.0000)
   6 Rh    -1.372747    3.969498   14.447991    ( 0.0000,  0.0000,  0.0000)
   7 Rh    -1.385470    2.383625   16.660365    ( 0.0000,  0.0000,  0.0000)
   8 Rh    -2.749628    4.762495    9.999999    ( 0.0000,  0.0000,  0.0000)
   9 Rh    -1.374814    5.556244   12.245061    ( 0.0000,  0.0000,  0.0000)
  10 Rh    -2.750826    6.351907   14.436097    ( 0.0000,  0.0000,  0.0000)
  11 Rh    -2.751205    4.745675   16.654733    ( 0.0000,  0.0000,  0.0000)
  12 Rh     2.749628    0.000000    9.999999    ( 0.0000,  0.0000,  0.0000)
  13 Rh     4.124441    0.793749   12.245061    ( 0.0000,  0.0000,  0.0000)
  14 Rh     2.751131    1.586324   14.433164    ( 0.0000,  0.0000,  0.0000)
  15 Rh     2.745923    0.007335   16.681485    ( 0.0000,  0.0000,  0.0000)
  16 Rh     1.374814    2.381247    9.999999    ( 0.0000,  0.0000,  0.0000)
  17 Rh     2.749628    3.174997   12.245061    ( 0.0000,  0.0000,  0.0000)
  18 Rh     1.374393    3.979418   14.434796    ( 0.0000,  0.0000,  0.0000)
  19 Rh     1.370408    2.419627   16.663469    ( 0.0000,  0.0000,  0.0000)
  20 Rh    -0.000000    4.762495    9.999999    ( 0.0000,  0.0000,  0.0000)
  21 Rh     1.374814    5.556244   12.245061    ( 0.0000,  0.0000,  0.0000)
  22 Rh     0.008522    6.343469   14.440353    ( 0.0000,  0.0000,  0.0000)
  23 Rh     0.000556    4.762934   16.658999    ( 0.0000,  0.0000,  0.0000)
  24 Rh     5.499255    0.000000    9.999999    ( 0.0000,  0.0000,  0.0000)
  25 Rh     6.874069    0.793749   12.245061    ( 0.0000,  0.0000,  0.0000)
  26 Rh     5.499359    1.585365   14.448398    ( 0.0000,  0.0000,  0.0000)
  27 Rh     5.502035    0.001312   16.658201    ( 0.0000,  0.0000,  0.0000)
  28 Rh     4.124441    2.381247    9.999999    ( 0.0000,  0.0000,  0.0000)
  29 Rh     5.499255    3.174997   12.245061    ( 0.0000,  0.0000,  0.0000)
  30 Rh     4.122864    3.969393   14.447580    ( 0.0000,  0.0000,  0.0000)
  31 Rh     4.135439    2.385703   16.660243    ( 0.0000,  0.0000,  0.0000)
  32 Rh     2.749628    4.762495    9.999999    ( 0.0000,  0.0000,  0.0000)
  33 Rh     4.124441    5.556244   12.245061    ( 0.0000,  0.0000,  0.0000)
  34 Rh     2.742845    6.344908   14.439794    ( 0.0000,  0.0000,  0.0000)
  35 Rh     2.750619    4.765213   16.657616    ( 0.0000,  0.0000,  0.0000)
  36 H      1.437766   -0.154106   20.059841    ( 0.0000,  0.0000,  0.0000)
  37 O      1.417201   -0.592596   19.197060    ( 0.0000,  0.0000,  0.0000)
  38 C      1.401665    0.362102   18.201755    ( 0.0000,  0.0000,  0.0000)
  39 C      1.368623    1.804869   18.555266    ( 0.0000,  0.0000,  0.0000)
  40 O      1.387025    2.379400   19.625926    ( 0.0000,  0.0000,  0.0000)

Unit cell:
           periodic     x           y           z      points  spacing
  1. axis:    yes    8.248883    0.000000    0.000000    40     0.1786
  2. axis:    yes   -4.124441    7.143742    0.000000    40     0.1786
  3. axis:    no     0.000000    0.000000   26.735183   148     0.1806

  Lengths:   8.248883   8.248883  26.735183
  Angles:   90.000000  90.000000 120.000000

Effective grid spacing dv^(1/3) = 0.1881

     iter     time        total  log10-change:
                         energy  eigst   dens
iter:   1 03:32:06 -5216.504974  -2.63
iter:   2 03:32:54 -5218.243070  -2.80  -2.69
iter:   3 03:33:43 -5216.471388  -3.15  -1.93
iter:   4 03:34:31 -5216.451812  -3.88  -2.98
iter:   5 03:35:19 -5216.452940c -4.26  -3.09
iter:   6 03:36:08 -5216.446268c -4.44  -3.22
iter:   7 03:36:56 -5216.446842c -4.45  -3.46
iter:   8 03:37:45 -5216.448004c -4.36  -3.47
iter:   9 03:38:33 -5216.453436c -4.68  -3.21
iter:  10 03:39:21 -5216.443187c -4.91  -3.16
iter:  11 03:40:10 -5216.445216c -5.41  -3.66
iter:  12 03:40:58 -5216.444118c -5.71  -3.88
iter:  13 03:41:46 -5216.444444c -5.65  -4.06c
iter:  14 03:42:35 -5216.444178c -5.92  -4.22c
iter:  15 03:43:23 -5216.444831c -6.38  -4.23c
iter:  16 03:44:12 -5216.443854c -6.55  -3.87
iter:  17 03:45:00 -5216.444706c -6.65  -4.29c
iter:  18 03:45:48 -5216.444106c -6.51  -4.08c
iter:  19 03:46:37 -5216.444227c -6.69  -4.63c
iter:  20 03:47:25 -5216.444159c -7.05  -4.69c
iter:  21 03:48:13 -5216.444443c -7.16  -4.70c
iter:  22 03:49:02 -5216.444064c -7.30  -4.24c
iter:  23 03:49:50 -5216.444400c -7.44c -4.69c

Converged after 23 iterations.

Dipole moment: (-3.344060, -8.927570, -0.043431) |e|*Ang

Energy contributions relative to reference atoms: (reference = -4690996.743002)

Kinetic:       +786.416787
Potential:     -813.768497
External:        +0.000000
XC:            -5178.969785
Entropy (-ST):   -2.188411
Local:           -9.028700
--------------------------
Free energy:   -5217.538606
Extrapolated:  -5216.444400

Showing only first 2 kpts
 Kpt  Band  Eigenvalues  Occupancy
  0   278     -5.35909    1.19225
  0   279     -5.33655    1.08178
  0   280     -5.26755    0.74284
  0   281     -5.25173    0.67061

  1   278     -5.39662    1.36470
  1   279     -5.35781    1.18605
  1   280     -5.33924    1.09514
  1   281     -5.32206    1.00948


Fermi level: -5.32016

No gap

Forces in eV/Ang:
  0 Rh    0.02208    0.01778    0.18864
  1 Rh   -0.03168   -0.02315   -0.22735
  2 Rh    0.01041   -0.02866   -0.07551
  3 Rh    0.07145    0.09451    0.33883
  4 Rh    0.01068   -0.00766    0.14551
  5 Rh   -0.01242    0.00188   -0.20211
  6 Rh    0.02088    0.00472   -0.00735
  7 Rh   -0.13184    0.03997   -0.01024
  8 Rh   -0.00597    0.01550    0.15012
  9 Rh    0.01054   -0.00029   -0.19679
 10 Rh   -0.00465    0.03774   -0.04803
 11 Rh   -0.01055   -0.18578   -0.06180
 12 Rh   -0.02894    0.01998    0.17035
 13 Rh    0.04158   -0.02000   -0.25161
 14 Rh   -0.01734   -0.01607   -0.08549
 15 Rh   -0.01412    0.12481    0.25670
 16 Rh   -0.00076   -0.02865    0.16475
 17 Rh    0.01492    0.00887   -0.20243
 18 Rh   -0.00174    0.10572   -0.17246
 19 Rh   -0.02591    0.39003    0.22303
 20 Rh    0.02724    0.01305    0.22876
 21 Rh    0.00489   -0.00104   -0.78516
 22 Rh    0.05661   -0.04231   -0.05799
 23 Rh   -0.00788    0.03749   -0.04315
 24 Rh    0.00699   -0.02968    0.23908
 25 Rh   -0.01455   -0.03649   -0.24932
 26 Rh    0.00038   -0.02925    0.00627
 27 Rh    0.01249    0.02397   -0.02734
 28 Rh   -0.00914   -0.00070    0.15764
 29 Rh   -0.00381   -0.01954   -0.20408
 30 Rh   -0.01879    0.00723   -0.00459
 31 Rh    0.10058    0.03945   -0.01755
 32 Rh   -0.02537    0.02133    0.21348
 33 Rh   -0.01620    0.02920   -0.19759
 34 Rh   -0.04408   -0.03360   -0.03782
 35 Rh    0.01326    0.03768   -0.04406
 36 H    -0.01922    0.11756    0.30676
 37 O     0.01532    0.16658    0.02555
 38 C    -0.17093   -0.30345    0.39784
 39 C     0.18665   -0.13176    0.22247
 40 O    -0.08007   -0.34819   -0.32181

BFGS:    4 03:50:18    -5216.444400        0.5287
System changes: positions 

Initializing position-dependent things.

Density initialized from wave functions
                                            
                                            
                                            
                                            
                                            
                                            
                                            
                   O                        
                  HC                        
           Rh    Oh     Rh                  
            Rh    CRh     Rh                
            Rh    Rh     Rh                 
             RRh    RRh    Rh               
                                            
              RRh    RRh    Rh              
                Rh     Rh     Rh            
                                            
           Rh    RRh    RRh    Rh           
            Rh     Rh     Rh                
                                            
              Rh     Rh    Rh               
                                            
                                            
                                            
                                            

Positions:
   0 Rh     0.000000    0.000000    9.999999    ( 0.0000,  0.0000,  0.0000)
   1 Rh     1.374814    0.793749   12.245061    ( 0.0000,  0.0000,  0.0000)
   2 Rh    -0.001845    1.583793   14.431084    ( 0.0000,  0.0000,  0.0000)
   3 Rh     0.010295    0.009546   16.701700    ( 0.0000,  0.0000,  0.0000)
   4 Rh    -1.374814    2.381247    9.999999    ( 0.0000,  0.0000,  0.0000)
   5 Rh    -0.000000    3.174997   12.245061    ( 0.0000,  0.0000,  0.0000)
   6 Rh    -1.372194    3.969635   14.447878    ( 0.0000,  0.0000,  0.0000)
   7 Rh    -1.389090    2.384766   16.660186    ( 0.0000,  0.0000,  0.0000)
   8 Rh    -2.749628    4.762495    9.999999    ( 0.0000,  0.0000,  0.0000)
   9 Rh    -1.374814    5.556244   12.245061    ( 0.0000,  0.0000,  0.0000)
  10 Rh    -2.750946    6.352824   14.434387    ( 0.0000,  0.0000,  0.0000)
  11 Rh    -2.751478    4.740353   16.653065    ( 0.0000,  0.0000,  0.0000)
  12 Rh     2.749628    0.000000    9.999999    ( 0.0000,  0.0000,  0.0000)
  13 Rh     4.124441    0.793749   12.245061    ( 0.0000,  0.0000,  0.0000)
  14 Rh     2.750855    1.585868   14.430484    ( 0.0000,  0.0000,  0.0000)
  15 Rh     2.745555    0.010702   16.688478    ( 0.0000,  0.0000,  0.0000)
  16 Rh     1.374814    2.381247    9.999999    ( 0.0000,  0.0000,  0.0000)
  17 Rh     2.749628    3.174997   12.245061    ( 0.0000,  0.0000,  0.0000)
  18 Rh     1.374361    3.982383   14.430221    ( 0.0000,  0.0000,  0.0000)
  19 Rh     1.369618    2.430291   16.669500    ( 0.0000,  0.0000,  0.0000)
  20 Rh    -0.000000    4.762495    9.999999    ( 0.0000,  0.0000,  0.0000)
  21 Rh     1.374814    5.556244   12.245061    ( 0.0000,  0.0000,  0.0000)
  22 Rh     0.010297    6.342178   14.438647    ( 0.0000,  0.0000,  0.0000)
  23 Rh     0.000424    4.763769   16.657912    ( 0.0000,  0.0000,  0.0000)
  24 Rh     5.499255    0.000000    9.999999    ( 0.0000,  0.0000,  0.0000)
  25 Rh     6.874069    0.793749   12.245061    ( 0.0000,  0.0000,  0.0000)
  26 Rh     5.499370    1.584576   14.448639    ( 0.0000,  0.0000,  0.0000)
  27 Rh     5.502345    0.001929   16.657530    ( 0.0000,  0.0000,  0.0000)
  28 Rh     4.124441    2.381247    9.999999    ( 0.0000,  0.0000,  0.0000)
  29 Rh     5.499255    3.174997   12.245061    ( 0.0000,  0.0000,  0.0000)
  30 Rh     4.122359    3.969593   14.447559    ( 0.0000,  0.0000,  0.0000)
  31 Rh     4.138318    2.386853   16.659869    ( 0.0000,  0.0000,  0.0000)
  32 Rh     2.749628    4.762495    9.999999    ( 0.0000,  0.0000,  0.0000)
  33 Rh     4.124441    5.556244   12.245061    ( 0.0000,  0.0000,  0.0000)
  34 Rh     2.741400    6.343834   14.438548    ( 0.0000,  0.0000,  0.0000)
  35 Rh     2.750911    4.766073   16.656512    ( 0.0000,  0.0000,  0.0000)
  36 H      1.437228   -0.151578   20.066829    ( 0.0000,  0.0000,  0.0000)
  37 O      1.417627   -0.588517   19.199349    ( 0.0000,  0.0000,  0.0000)
  38 C      1.396788    0.356275   18.211735    ( 0.0000,  0.0000,  0.0000)
  39 C      1.373864    1.798266   18.557973    ( 0.0000,  0.0000,  0.0000)
  40 O      1.384822    2.371654   19.620207    ( 0.0000,  0.0000,  0.0000)

Unit cell:
           periodic     x           y           z      points  spacing
  1. axis:    yes    8.248883    0.000000    0.000000    40     0.1786
  2. axis:    yes   -4.124441    7.143742    0.000000    40     0.1786
  3. axis:    no     0.000000    0.000000   26.735183   148     0.1806

  Lengths:   8.248883   8.248883  26.735183
  Angles:   90.000000  90.000000 120.000000

Effective grid spacing dv^(1/3) = 0.1881

     iter     time        total  log10-change:
                         energy  eigst   dens
iter:   1 03:52:12 -5216.815455  -2.50
iter:   2 03:53:01 -5227.621431  -1.99  -2.30
iter:   3 03:53:50 -5216.661895  -2.39  -1.57
iter:   4 03:54:38 -5216.490658  -3.10  -2.48
iter:   5 03:55:27 -5216.473142c -3.96  -2.89
iter:   6 03:56:16 -5216.471025c -4.39  -3.32
iter:   7 03:57:05 -5216.472822c -5.02  -3.42
iter:   8 03:57:54 -5216.473821c -4.75  -3.35
iter:   9 03:58:42 -5216.469272c -4.84  -3.22
iter:  10 03:59:31 -5216.470786c -5.18  -3.71
iter:  11 04:00:20 -5216.469745c -5.96  -3.88
iter:  12 04:01:09 -5216.469938c -6.26  -4.01c
iter:  13 04:01:57 -5216.470171c -6.04  -4.13c
iter:  14 04:02:46 -5216.469936c -6.36  -4.21c
iter:  15 04:03:35 -5216.469959c -6.79  -4.15c
iter:  16 04:04:24 -5216.470003c -7.24  -4.33c
iter:  17 04:05:12 -5216.469797c -7.28  -4.38c
iter:  18 04:06:01 -5216.470039c -7.22  -4.54c
iter:  19 04:06:50 -5216.469849c -7.14  -4.58c
iter:  20 04:07:39 -5216.469881c -7.48c -4.72c

Converged after 20 iterations.

Dipole moment: (-3.042762, -9.264826, -0.021274) |e|*Ang

Energy contributions relative to reference atoms: (reference = -4690996.743002)

Kinetic:       +787.197224
Potential:     -814.365174
External:        +0.000000
XC:            -5179.196874
Entropy (-ST):   -2.187078
Local:           -9.011518
--------------------------
Free energy:   -5217.563421
Extrapolated:  -5216.469881

Showing only first 2 kpts
 Kpt  Band  Eigenvalues  Occupancy
  0   278     -5.33744    1.19117
  0   279     -5.31420    1.07717
  0   280     -5.24589    0.74175
  0   281     -5.23113    0.67432

  1   278     -5.37574    1.36707
  1   279     -5.33683    1.18824
  1   280     -5.31734    1.09278
  1   281     -5.30129    1.01279


Fermi level: -5.29873

No gap

Forces in eV/Ang:
  0 Rh    0.02344    0.01714    0.18573
  1 Rh   -0.03229   -0.02329   -0.23721
  2 Rh    0.02702   -0.02293   -0.01033
  3 Rh    0.03577    0.08196    0.24484
  4 Rh    0.01058   -0.00685    0.14360
  5 Rh   -0.01855   -0.00012   -0.21029
  6 Rh    0.01760    0.00344   -0.00926
  7 Rh   -0.09055    0.02329   -0.00330
  8 Rh   -0.00569    0.01583    0.14779
  9 Rh    0.00778   -0.00193   -0.20030
 10 Rh   -0.00400    0.03965    0.01339
 11 Rh   -0.00895   -0.12865   -0.05565
 12 Rh   -0.03032    0.01979    0.16672
 13 Rh    0.04322   -0.01724   -0.25322
 14 Rh   -0.03390   -0.01057   -0.01914
 15 Rh   -0.01348    0.11861    0.20539
 16 Rh   -0.00067   -0.02978    0.16017
 17 Rh    0.02052    0.00820   -0.21044
 18 Rh   -0.00379    0.06940   -0.13419
 19 Rh   -0.00877    0.26979    0.18915
 20 Rh    0.02636    0.01257    0.22618
 21 Rh    0.00477    0.00912   -0.80574
 22 Rh    0.01617   -0.01551   -0.02671
 23 Rh   -0.01590    0.05167   -0.03464
 24 Rh    0.00692   -0.03033    0.23662
 25 Rh   -0.01713   -0.03464   -0.25156
 26 Rh    0.00012   -0.02310   -0.00024
 27 Rh    0.01252    0.02130   -0.01290
 28 Rh   -0.00919   -0.00026    0.15528
 29 Rh   -0.00365   -0.01974   -0.20235
 30 Rh   -0.01514    0.00575   -0.00941
 31 Rh    0.05436    0.01977   -0.00889
 32 Rh   -0.02452    0.02105    0.20957
 33 Rh   -0.01476    0.02782   -0.20083
 34 Rh   -0.00714   -0.00769   -0.00519
 35 Rh    0.01796    0.04909   -0.03572
 36 H    -0.01709    0.04230    0.17168
 37 O     0.00916    0.00318    0.42469
 38 C    -0.10566   -0.14776    0.08489
 39 C     0.10730   -0.28799   -0.27455
 40 O    -0.05566   -0.07104    0.22421

BFGS:    5 04:08:07    -5216.469881        0.4248
System changes: positions 

Initializing position-dependent things.

Density initialized from wave functions
                                            
                                            
                                            
                                            
                                            
                                            
                                            
                   O                        
                  HC                        
           Rh    Oh     Rh                  
            Rh    CRh     Rh                
            Rh    Rh     Rh                 
             RRh    RRh    Rh               
                                            
              RRh    RRh    Rh              
                Rh     Rh     Rh            
                                            
           Rh    RRh    RRh    Rh           
            Rh     Rh     Rh                
                                            
              Rh     Rh    Rh               
                                            
                                            
                                            
                                            

Positions:
   0 Rh     0.000000    0.000000    9.999999    ( 0.0000,  0.0000,  0.0000)
   1 Rh     1.374814    0.793749   12.245061    ( 0.0000,  0.0000,  0.0000)
   2 Rh    -0.001116    1.582157   14.427348    ( 0.0000,  0.0000,  0.0000)
   3 Rh     0.014074    0.015354   16.720646    ( 0.0000,  0.0000,  0.0000)
   4 Rh    -1.374814    2.381247    9.999999    ( 0.0000,  0.0000,  0.0000)
   5 Rh    -0.000000    3.174997   12.245061    ( 0.0000,  0.0000,  0.0000)
   6 Rh    -1.371004    3.969921   14.447553    ( 0.0000,  0.0000,  0.0000)
   7 Rh    -1.396290    2.386926   16.659962    ( 0.0000,  0.0000,  0.0000)
   8 Rh    -2.749628    4.762495    9.999999    ( 0.0000,  0.0000,  0.0000)
   9 Rh    -1.374814    5.556244   12.245061    ( 0.0000,  0.0000,  0.0000)
  10 Rh    -2.751206    6.355021   14.432247    ( 0.0000,  0.0000,  0.0000)
  11 Rh    -2.752068    4.729655   16.649343    ( 0.0000,  0.0000,  0.0000)
  12 Rh     2.749628    0.000000    9.999999    ( 0.0000,  0.0000,  0.0000)
  13 Rh     4.124441    0.793749   12.245061    ( 0.0000,  0.0000,  0.0000)
  14 Rh     2.749717    1.584972   14.426214    ( 0.0000,  0.0000,  0.0000)
  15 Rh     2.744750    0.018356   16.703180    ( 0.0000,  0.0000,  0.0000)
  16 Rh     1.374814    2.381247    9.999999    ( 0.0000,  0.0000,  0.0000)
  17 Rh     2.749628    3.174997   12.245061    ( 0.0000,  0.0000,  0.0000)
  18 Rh     1.374225    3.988230   14.420667    ( 0.0000,  0.0000,  0.0000)
  19 Rh     1.368296    2.451616   16.682363    ( 0.0000,  0.0000,  0.0000)
  20 Rh    -0.000000    4.762495    9.999999    ( 0.0000,  0.0000,  0.0000)
  21 Rh     1.374814    5.556244   12.245061    ( 0.0000,  0.0000,  0.0000)
  22 Rh     0.013220    6.339968   14.435607    ( 0.0000,  0.0000,  0.0000)
  23 Rh    -0.000116    4.766138   16.655618    ( 0.0000,  0.0000,  0.0000)
  24 Rh     5.499255    0.000000    9.999999    ( 0.0000,  0.0000,  0.0000)
  25 Rh     6.874069    0.793749   12.245061    ( 0.0000,  0.0000,  0.0000)
  26 Rh     5.499386    1.582921   14.449001    ( 0.0000,  0.0000,  0.0000)
  27 Rh     5.503070    0.003285   16.656383    ( 0.0000,  0.0000,  0.0000)
  28 Rh     4.124441    2.381247    9.999999    ( 0.0000,  0.0000,  0.0000)
  29 Rh     5.499255    3.174997   12.245061    ( 0.0000,  0.0000,  0.0000)
  30 Rh     4.121291    3.970018   14.447360    ( 0.0000,  0.0000,  0.0000)
  31 Rh     4.143640    2.388942   16.659239    ( 0.0000,  0.0000,  0.0000)
  32 Rh     2.749628    4.762495    9.999999    ( 0.0000,  0.0000,  0.0000)
  33 Rh     4.124441    5.556244   12.245061    ( 0.0000,  0.0000,  0.0000)
  34 Rh     2.739143    6.342106   14.436629    ( 0.0000,  0.0000,  0.0000)
  35 Rh     2.751724    4.768417   16.654171    ( 0.0000,  0.0000,  0.0000)
  36 H      1.436097   -0.146053   20.082302    ( 0.0000,  0.0000,  0.0000)
  37 O      1.418336   -0.585663   19.212994    ( 0.0000,  0.0000,  0.0000)
  38 C      1.387391    0.346836   18.226241    ( 0.0000,  0.0000,  0.0000)
  39 C      1.383837    1.782210   18.556721    ( 0.0000,  0.0000,  0.0000)
  40 O      1.380314    2.358138   19.616052    ( 0.0000,  0.0000,  0.0000)

Unit cell:
           periodic     x           y           z      points  spacing
  1. axis:    yes    8.248883    0.000000    0.000000    40     0.1786
  2. axis:    yes   -4.124441    7.143742    0.000000    40     0.1786
  3. axis:    no     0.000000    0.000000   26.735183   148     0.1806

  Lengths:   8.248883   8.248883  26.735183
  Angles:   90.000000  90.000000 120.000000

Effective grid spacing dv^(1/3) = 0.1881

     iter     time        total  log10-change:
                         energy  eigst   dens
iter:   1 04:10:00 -5216.742466  -2.01
iter:   2 04:10:48 -5221.771278  -2.26  -2.39
iter:   3 04:11:37 -5216.594950  -2.67  -1.71
iter:   4 04:12:25 -5216.511509  -3.36  -2.69
iter:   5 04:13:14 -5216.508318c -4.02  -2.89
iter:   6 04:14:02 -5216.504099c -4.29  -3.15
iter:   7 04:14:51 -5216.504400c -4.70  -3.19
iter:   8 04:15:39 -5216.547276c -4.15  -3.24
iter:   9 04:16:28 -5216.504257c -4.56  -2.73
iter:  10 04:17:16 -5216.498505c -4.89  -3.26
iter:  11 04:18:04 -5216.500960c -5.31  -3.56
iter:  12 04:18:53 -5216.499593c -5.61  -3.72
iter:  13 04:19:41 -5216.500209c -5.91  -3.87
iter:  14 04:20:30 -5216.499849c -5.68  -3.93
iter:  15 04:21:18 -5216.500191c -5.92  -3.98
iter:  16 04:22:07 -5216.499838c -6.38  -3.73
iter:  17 04:22:55 -5216.499712c -6.34  -4.12c
iter:  18 04:23:44 -5216.500049c -6.43  -4.39c
iter:  19 04:24:32 -5216.499617c -7.00  -4.36c
iter:  20 04:25:20 -5216.499808c -7.21  -4.39c
iter:  21 04:26:09 -5216.499768c -7.43c -4.74c

Converged after 21 iterations.

Dipole moment: (-2.337173, -10.044631, -0.015797) |e|*Ang

Energy contributions relative to reference atoms: (reference = -4690996.743002)

Kinetic:       +787.737861
Potential:     -814.746380
External:        +0.000000
XC:            -5179.369652
Entropy (-ST):   -2.184122
Local:           -9.029536
--------------------------
Free energy:   -5217.591828
Extrapolated:  -5216.499768

Showing only first 2 kpts
 Kpt  Band  Eigenvalues  Occupancy
  0   278     -5.32987    1.18770
  0   279     -5.30528    1.06690
  0   280     -5.23877    0.74053
  0   281     -5.22599    0.68200

  1   278     -5.36996    1.37173
  1   279     -5.33094    1.19284
  1   280     -5.30958    1.08829
  1   281     -5.29520    1.01663


Fermi level: -5.29188

No gap

Forces in eV/Ang:
  0 Rh    0.02613    0.01616    0.18749
  1 Rh   -0.03348   -0.02415   -0.25659
  2 Rh    0.04483   -0.00102    0.07822
  3 Rh   -0.04050    0.03604    0.07439
  4 Rh    0.01136   -0.00541    0.14688
  5 Rh   -0.02867   -0.00473   -0.22668
  6 Rh    0.01156   -0.00023   -0.02070
  7 Rh   -0.02281    0.00064   -0.00745
  8 Rh   -0.00516    0.01746    0.15055
  9 Rh    0.00264   -0.00278   -0.20562
 10 Rh   -0.00133    0.03166    0.09588
 11 Rh   -0.00438   -0.01438   -0.03633
 12 Rh   -0.03339    0.01967    0.16705
 13 Rh    0.04381   -0.01266   -0.25546
 14 Rh   -0.05026    0.00776    0.07224
 15 Rh    0.00591    0.07642    0.11129
 16 Rh   -0.00063   -0.03213    0.15816
 17 Rh    0.02956    0.00630   -0.22616
 18 Rh   -0.00808    0.00650   -0.06256
 19 Rh    0.03116    0.05056    0.09719
 20 Rh    0.02505    0.01151    0.22938
 21 Rh    0.00471    0.03262   -0.84551
 22 Rh   -0.04496    0.02877    0.01638
 23 Rh   -0.02813    0.07455   -0.03290
 24 Rh    0.00683   -0.03203    0.24065
 25 Rh   -0.01941   -0.03217   -0.25445
 26 Rh   -0.00128   -0.00818   -0.01759
 27 Rh    0.01048    0.01799   -0.00539
 28 Rh   -0.01034    0.00034    0.15781
 29 Rh   -0.00324   -0.02035   -0.19944
 30 Rh   -0.00862    0.00103   -0.02637
 31 Rh   -0.01792   -0.00944   -0.01170
 32 Rh   -0.02354    0.02052    0.21029
 33 Rh   -0.01229    0.02802   -0.20523
 34 Rh    0.04627    0.03298    0.03634
 35 Rh    0.02272    0.06714   -0.03268
 36 H    -0.01691   -0.00171    0.04940
 37 O    -0.00888   -0.17835    0.79244
 38 C     0.00437   -0.16174   -0.16519
 39 C    -0.04762   -0.14418   -0.34607
 40 O     0.00057    0.03151    0.44419

BFGS:    6 04:26:37    -5216.499768        0.8123
System changes: positions 

Initializing position-dependent things.

Density initialized from wave functions
                                            
                                            
                                            
                                            
                                            
                                            
                                            
                   O                        
                  HC                        
           Rh    Oh     Rh                  
            Rh    CRh     Rh                
            Rh    Rh     Rh                 
             RRh    RRh    Rh               
                                            
              RRh    RRh    Rh              
                Rh     Rh     Rh            
                                            
           Rh    RRh    RRh    Rh           
            Rh     Rh     Rh                
                                            
              Rh     Rh    Rh               
                                            
                                            
                                            
                                            

Positions:
   0 Rh     0.000000    0.000000    9.999999    ( 0.0000,  0.0000,  0.0000)
   1 Rh     1.374814    0.793749   12.245061    ( 0.0000,  0.0000,  0.0000)
   2 Rh     0.000284    1.580746   14.425310    ( 0.0000,  0.0000,  0.0000)
   3 Rh     0.016601    0.021103   16.738855    ( 0.0000,  0.0000,  0.0000)
   4 Rh    -1.374814    2.381247    9.999999    ( 0.0000,  0.0000,  0.0000)
   5 Rh    -0.000000    3.174997   12.245061    ( 0.0000,  0.0000,  0.0000)
   6 Rh    -1.369734    3.970168   14.446860    ( 0.0000,  0.0000,  0.0000)
   7 Rh    -1.403134    2.388898   16.659578    ( 0.0000,  0.0000,  0.0000)
   8 Rh    -2.749628    4.762495    9.999999    ( 0.0000,  0.0000,  0.0000)
   9 Rh    -1.374814    5.556244   12.245061    ( 0.0000,  0.0000,  0.0000)
  10 Rh    -2.751452    6.357489   14.431968    ( 0.0000,  0.0000,  0.0000)
  11 Rh    -2.752662    4.719880   16.645388    ( 0.0000,  0.0000,  0.0000)
  12 Rh     2.749628    0.000000    9.999999    ( 0.0000,  0.0000,  0.0000)
  13 Rh     4.124441    0.793749   12.245061    ( 0.0000,  0.0000,  0.0000)
  14 Rh     2.747859    1.584363   14.423599    ( 0.0000,  0.0000,  0.0000)
  15 Rh     2.744262    0.026449   16.718304    ( 0.0000,  0.0000,  0.0000)
  16 Rh     1.374814    2.381247    9.999999    ( 0.0000,  0.0000,  0.0000)
  17 Rh     2.749628    3.174997   12.245061    ( 0.0000,  0.0000,  0.0000)
  18 Rh     1.373950    3.993573   14.411046    ( 0.0000,  0.0000,  0.0000)
  19 Rh     1.367749    2.471485   16.695348    ( 0.0000,  0.0000,  0.0000)
  20 Rh    -0.000000    4.762495    9.999999    ( 0.0000,  0.0000,  0.0000)
  21 Rh     1.374814    5.556244   12.245061    ( 0.0000,  0.0000,  0.0000)
  22 Rh     0.015056    6.338511   14.433142    ( 0.0000,  0.0000,  0.0000)
  23 Rh    -0.001100    4.769607   16.652917    ( 0.0000,  0.0000,  0.0000)
  24 Rh     5.499255    0.000000    9.999999    ( 0.0000,  0.0000,  0.0000)
  25 Rh     6.874069    0.793749   12.245061    ( 0.0000,  0.0000,  0.0000)
  26 Rh     5.499372    1.581318   14.448979    ( 0.0000,  0.0000,  0.0000)
  27 Rh     5.503895    0.004825   16.655206    ( 0.0000,  0.0000,  0.0000)
  28 Rh     4.124441    2.381247    9.999999    ( 0.0000,  0.0000,  0.0000)
  29 Rh     5.499255    3.174997   12.245061    ( 0.0000,  0.0000,  0.0000)
  30 Rh     4.120181    3.970407   14.446672    ( 0.0000,  0.0000,  0.0000)
  31 Rh     4.148087    2.390659   16.658407    ( 0.0000,  0.0000,  0.0000)
  32 Rh     2.749628    4.762495    9.999999    ( 0.0000,  0.0000,  0.0000)
  33 Rh     4.124441    5.556244   12.245061    ( 0.0000,  0.0000,  0.0000)
  34 Rh     2.737911    6.341140   14.435500    ( 0.0000,  0.0000,  0.0000)
  35 Rh     2.752841    4.771725   16.651442    ( 0.0000,  0.0000,  0.0000)
  36 H      1.434801   -0.139641   20.099478    ( 0.0000,  0.0000,  0.0000)
  37 O      1.418677   -0.587442   19.236503    ( 0.0000,  0.0000,  0.0000)
  38 C      1.379076    0.334440   18.237506    ( 0.0000,  0.0000,  0.0000)
  39 C      1.391766    1.767641   18.554264    ( 0.0000,  0.0000,  0.0000)
  40 O      1.376348    2.344210   19.615906    ( 0.0000,  0.0000,  0.0000)

Unit cell:
           periodic     x           y           z      points  spacing
  1. axis:    yes    8.248883    0.000000    0.000000    40     0.1786
  2. axis:    yes   -4.124441    7.143742    0.000000    40     0.1786
  3. axis:    no     0.000000    0.000000   26.735183   148     0.1806

  Lengths:   8.248883   8.248883  26.735183
  Angles:   90.000000  90.000000 120.000000

Effective grid spacing dv^(1/3) = 0.1881

     iter     time        total  log10-change:
                         energy  eigst   dens
iter:   1 04:28:30 -5216.765845  -2.04
iter:   2 04:29:19 -5224.071380  -2.14  -2.38
iter:   3 04:30:08 -5216.588473  -2.58  -1.64
iter:   4 04:30:58 -5216.522418  -3.34  -2.72
iter:   5 04:31:47 -5216.523501c -4.16  -3.04
iter:   6 04:32:35 -5216.521620c -4.47  -3.22
iter:   7 04:33:24 -5216.521867c -4.72  -3.28
iter:   8 04:34:13 -5216.522928c -4.47  -3.38
iter:   9 04:35:02 -5216.523062c -5.05  -3.22
iter:  10 04:35:51 -5216.519050c -5.20  -3.28
iter:  11 04:36:40 -5216.519676c -5.86  -3.84
iter:  12 04:37:29 -5216.518239c -5.80  -3.83
iter:  13 04:38:18 -5216.519569c -5.72  -3.91
iter:  14 04:39:07 -5216.519008c -5.98  -4.06c
iter:  15 04:39:56 -5216.519058c -6.67  -4.28c
iter:  16 04:40:45 -5216.519332c -6.68  -4.23c
iter:  17 04:41:34 -5216.519249c -6.72  -3.95
iter:  18 04:42:23 -5216.518935c -6.99  -4.42c
iter:  19 04:43:12 -5216.519270c -7.02  -4.52c
iter:  20 04:44:01 -5216.519070c -7.38  -4.60c
iter:  21 04:44:50 -5216.519142c -7.67c -4.70c

Converged after 21 iterations.

Dipole moment: (-1.511205, -10.959226, -0.028726) |e|*Ang

Energy contributions relative to reference atoms: (reference = -4690996.743002)

Kinetic:       +787.648829
Potential:     -814.669365
External:        +0.000000
XC:            -5179.369887
Entropy (-ST):   -2.181837
Local:           -9.037800
--------------------------
Free energy:   -5217.610060
Extrapolated:  -5216.519142

Showing only first 2 kpts
 Kpt  Band  Eigenvalues  Occupancy
  0   278     -5.34044    1.18386
  0   279     -5.31441    1.05576
  0   280     -5.25040    0.74172
  0   281     -5.23903    0.68949

  1   278     -5.38217    1.37533
  1   279     -5.34344    1.19830
  1   280     -5.31999    1.08350
  1   281     -5.30704    1.01895


Fermi level: -5.30325

No gap

Forces in eV/Ang:
  0 Rh    0.02802    0.01498    0.18716
  1 Rh   -0.03444   -0.02620   -0.26971
  2 Rh    0.05518    0.02004    0.14852
  3 Rh   -0.10878   -0.00981   -0.08356
  4 Rh    0.01218   -0.00315    0.14738
  5 Rh   -0.03957   -0.01274   -0.24420
  6 Rh    0.00414   -0.00180   -0.02746
  7 Rh    0.04983   -0.01834   -0.01113
  8 Rh   -0.00458    0.01833    0.15088
  9 Rh   -0.00509   -0.00103   -0.20942
 10 Rh    0.00273    0.02088    0.15786
 11 Rh    0.00331    0.10395   -0.01136
 12 Rh   -0.03577    0.01915    0.16565
 13 Rh    0.04202   -0.00718   -0.25701
 14 Rh   -0.05797    0.02248    0.14547
 15 Rh    0.03201    0.02186    0.01164
 16 Rh   -0.00064   -0.03402    0.15341
 17 Rh    0.03937    0.00092   -0.24286
 18 Rh   -0.00953   -0.05572    0.02057
 19 Rh    0.05887   -0.13561    0.00050
 20 Rh    0.02326    0.01022    0.22974
 21 Rh    0.00562    0.05881   -0.88018
 22 Rh   -0.09693    0.06916    0.05456
 23 Rh   -0.04017    0.08687   -0.02945
 24 Rh    0.00677   -0.03333    0.24210
 25 Rh   -0.01899   -0.02899   -0.25565
 26 Rh   -0.00228    0.00745   -0.03219
 27 Rh    0.00614    0.01403   -0.00065
 28 Rh   -0.01154    0.00184    0.15749
 29 Rh   -0.00284   -0.02160   -0.19961
 30 Rh   -0.00198   -0.00202   -0.03774
 31 Rh   -0.08618   -0.03319   -0.01523
 32 Rh   -0.02216    0.01967    0.20882
 33 Rh   -0.00733    0.03102   -0.20805
 34 Rh    0.08854    0.06812    0.06442
 35 Rh    0.02730    0.07628   -0.02688
 36 H    -0.01291    0.05476    0.10950
 37 O    -0.04260   -0.20468    0.55938
 38 C     0.12471   -0.24457   -0.09241
 39 C    -0.14990    0.03190   -0.10647
 40 O     0.03558   -0.02898    0.33881

BFGS:    7 04:45:18    -5216.519142        0.5972
System changes: positions 

Initializing position-dependent things.

Density initialized from wave functions
                                            
                                            
                                            
                                            
                                            
                                            
                                            
                   O                        
                  H                         
           Rh    OhC    Rh                  
            Rh    CRh     Rh                
            Rh    Rh     Rh                 
             RRh    RRh    RRh              
                                            
              RRh    RRh    Rh              
                Rh     Rh     Rh            
                                            
           Rh    RRh    RRh    Rh           
            Rh     Rh     Rh                
                                            
              Rh     Rh    Rh               
                                            
                                            
                                            
                                            

Positions:
   0 Rh     0.000000    0.000000    9.999999    ( 0.0000,  0.0000,  0.0000)
   1 Rh     1.374814    0.793749   12.245061    ( 0.0000,  0.0000,  0.0000)
   2 Rh     0.001953    1.580357   14.426755    ( 0.0000,  0.0000,  0.0000)
   3 Rh     0.016050    0.023918   16.746985    ( 0.0000,  0.0000,  0.0000)
   4 Rh    -1.374814    2.381247    9.999999    ( 0.0000,  0.0000,  0.0000)
   5 Rh    -0.000000    3.174997   12.245061    ( 0.0000,  0.0000,  0.0000)
   6 Rh    -1.368999    3.970271   14.446023    ( 0.0000,  0.0000,  0.0000)
   7 Rh    -1.405853    2.389630   16.659159    ( 0.0000,  0.0000,  0.0000)
   8 Rh    -2.749628    4.762495    9.999999    ( 0.0000,  0.0000,  0.0000)
   9 Rh    -1.374814    5.556244   12.245061    ( 0.0000,  0.0000,  0.0000)
  10 Rh    -2.751530    6.359136   14.434492    ( 0.0000,  0.0000,  0.0000)
  11 Rh    -2.752907    4.716596   16.643145    ( 0.0000,  0.0000,  0.0000)
  12 Rh     2.749628    0.000000    9.999999    ( 0.0000,  0.0000,  0.0000)
  13 Rh     4.124441    0.793749   12.245061    ( 0.0000,  0.0000,  0.0000)
  14 Rh     2.745906    1.584428   14.424686    ( 0.0000,  0.0000,  0.0000)
  15 Rh     2.744597    0.031002   16.726408    ( 0.0000,  0.0000,  0.0000)
  16 Rh     1.374814    2.381247    9.999999    ( 0.0000,  0.0000,  0.0000)
  17 Rh     2.749628    3.174997   12.245061    ( 0.0000,  0.0000,  0.0000)
  18 Rh     1.373648    3.995413   14.406377    ( 0.0000,  0.0000,  0.0000)
[...]
  32 Rh     2.749628    4.762495    9.999999    ( 0.0000,  0.0000,  0.0000)
  33 Rh     4.124441    5.556244   12.245061    ( 0.0000,  0.0000,  0.0000)
  34 Rh     2.746725    6.359175   14.452668    ( 0.0000,  0.0000,  0.0000)
  35 Rh     2.746417    4.777960   16.659936    ( 0.0000,  0.0000,  0.0000)
  36 H      1.416261   -0.070586   20.243266    ( 0.0000,  0.0000,  0.0000)
  37 O      1.406578   -0.611897   19.431365    ( 0.0000,  0.0000,  0.0000)
  38 C      1.382800    0.224114   18.352590    ( 0.0000,  0.0000,  0.0000)
  39 C      1.376991    1.679949   18.620007    ( 0.0000,  0.0000,  0.0000)
  40 O      1.380293    2.232112   19.699609    ( 0.0000,  0.0000,  0.0000)

Unit cell:
           periodic     x           y           z      points  spacing
  1. axis:    yes    8.248883    0.000000    0.000000    40     0.1786
  2. axis:    yes   -4.124441    7.143742    0.000000    40     0.1786
  3. axis:    no     0.000000    0.000000   26.735183   148     0.1806

  Lengths:   8.248883   8.248883  26.735183
  Angles:   90.000000  90.000000 120.000000

Effective grid spacing dv^(1/3) = 0.1881

     iter     time        total  log10-change:
                         energy  eigst   dens
iter:   1 08:20:40 -5216.801924  -2.28
iter:   2 08:21:29 -5219.726797  -2.48  -2.51
iter:   3 08:22:17 -5216.776119  -2.76  -1.82
iter:   4 08:23:05 -5216.613927  -3.66  -2.44
iter:   5 08:23:54 -5216.606445c -4.64  -3.20
iter:   6 08:24:42 -5216.604743c -4.87  -3.46
iter:   7 08:25:31 -5216.604260c -4.68  -3.61
iter:   8 08:26:19 -5216.604462c -4.90  -3.75
iter:   9 08:27:07 -5216.606442c -5.35  -3.77
iter:  10 08:27:56 -5216.604347c -5.70  -3.36
iter:  11 08:28:44 -5216.604993c -6.01  -3.85
iter:  12 08:29:32 -5216.603947c -6.36  -4.07c
iter:  13 08:30:21 -5216.604820c -5.79  -4.08c
iter:  14 08:31:09 -5216.604624c -6.39  -4.09c
iter:  15 08:31:57 -5216.604568c -6.93  -4.21c
iter:  16 08:32:46 -5216.604577c -6.90  -4.35c
iter:  17 08:33:34 -5216.604583c -6.67  -4.01c
iter:  18 08:34:22 -5216.604380c -6.71  -4.30c
iter:  19 08:35:11 -5216.604603c -7.48c -4.59c

Converged after 19 iterations.

Dipole moment: (-0.695086, -12.133089, -0.092006) |e|*Ang

Energy contributions relative to reference atoms: (reference = -4690996.743002)

Kinetic:       +773.404772
Potential:     -802.953872
External:        +0.000000
XC:            -5176.903197
Entropy (-ST):   -2.205173
Local:           -9.049720
--------------------------
Free energy:   -5217.707189
Extrapolated:  -5216.604603

Showing only first 2 kpts
 Kpt  Band  Eigenvalues  Occupancy
  0   278     -5.40469    1.18032
  0   279     -5.38117    1.06461
  0   280     -5.31687    0.74872
  0   281     -5.30229    0.68177

  1   278     -5.44540    1.36781
  1   279     -5.40696    1.19130
  1   280     -5.38021    1.05982
  1   281     -5.36030    0.96041


Fermi level: -5.36823

No gap

Forces in eV/Ang:
  0 Rh    0.02564    0.01236    0.19637
  1 Rh   -0.03285   -0.00635   -0.12743
  2 Rh   -0.00161   -0.00790    0.01490
  3 Rh    0.01964    0.00236    0.02727
  4 Rh    0.00742   -0.00236    0.14432
  5 Rh   -0.00502   -0.01045   -0.16873
  6 Rh    0.00277   -0.02041    0.00844
  7 Rh   -0.00227   -0.02794    0.01795
  8 Rh   -0.00564    0.01580    0.14931
  9 Rh   -0.01474    0.06730   -0.11620
 10 Rh    0.00062   -0.02441    0.02293
 11 Rh   -0.00280   -0.02761    0.01333
 12 Rh   -0.03450    0.01571    0.17761
 13 Rh   -0.01104    0.01802   -0.15408
 14 Rh   -0.00045   -0.00680    0.00634
 15 Rh   -0.01163   -0.00173    0.02033
 16 Rh   -0.00210   -0.03179    0.16536
 17 Rh    0.00154   -0.00547   -0.16045
 18 Rh   -0.00287   -0.01244    0.00084
 19 Rh   -0.00126   -0.00522    0.04904
 20 Rh    0.01597    0.00101    0.25089
 21 Rh    0.00254    0.07997   -0.68374
 22 Rh   -0.00251   -0.01396    0.00540
 23 Rh   -0.00794    0.00321    0.00545
 24 Rh    0.00619   -0.02936    0.26090
 25 Rh    0.03167   -0.00191   -0.15639
 26 Rh   -0.00164   -0.01016   -0.00325
 27 Rh   -0.00421   -0.02203    0.02401
 28 Rh   -0.00727    0.00275    0.15373
 29 Rh   -0.00473    0.00280   -0.16521
 30 Rh    0.00070   -0.02028    0.00035
 31 Rh   -0.01005   -0.02974    0.01880
 32 Rh   -0.01492    0.00925    0.23374
 33 Rh    0.00817    0.09777   -0.11712
 34 Rh   -0.00055   -0.01327   -0.00593
 35 Rh    0.00129   -0.00236    0.00766
 36 H    -0.01102   -0.02366   -0.00968
 37 O    -0.00283    0.01369   -0.04525
 38 C     0.00388    0.00065   -0.05413
 39 C     0.00877   -0.03889   -0.00142
 40 O     0.01876    0.00722   -0.02315

BFGS:   21 08:35:39    -5216.604603        0.0543
System changes: positions 

Initializing position-dependent things.

Density initialized from wave functions
                                            
                                            
                                            
                                            
                                            
                                            
                                            
                   O                        
                  H                         
           Rh    OhC    Rh                  
            Rh    CRh     Rh                
            Rh    Rh     Rh                 
             RRh    RRh    RRh              
                                            
              RRh    RRh    RRh             
                Rh     Rh     Rh            
                                            
           Rh    RRh    RRh    Rh           
            Rh     Rh     Rh                
                                            
              Rh     Rh    Rh               
                                            
                                            
                                            
                                            

Positions:
   0 Rh     0.000000    0.000000    9.999999    ( 0.0000,  0.0000,  0.0000)
   1 Rh     1.374814    0.793749   12.245061    ( 0.0000,  0.0000,  0.0000)
   2 Rh     0.007133    1.591356   14.454047    ( 0.0000,  0.0000,  0.0000)
   3 Rh     0.013998    0.001292   16.794910    ( 0.0000,  0.0000,  0.0000)
   4 Rh    -1.374814    2.381247    9.999999    ( 0.0000,  0.0000,  0.0000)
   5 Rh    -0.000000    3.174997   12.245061    ( 0.0000,  0.0000,  0.0000)
   6 Rh    -1.369270    3.979300   14.448318    ( 0.0000,  0.0000,  0.0000)
   7 Rh    -1.397833    2.397368   16.668335    ( 0.0000,  0.0000,  0.0000)
   8 Rh    -2.749628    4.762495    9.999999    ( 0.0000,  0.0000,  0.0000)
   9 Rh    -1.374814    5.556244   12.245061    ( 0.0000,  0.0000,  0.0000)
  10 Rh    -2.751050    6.371069   14.459437    ( 0.0000,  0.0000,  0.0000)
  11 Rh    -2.754889    4.735116   16.655510    ( 0.0000,  0.0000,  0.0000)
  12 Rh     2.749628    0.000000    9.999999    ( 0.0000,  0.0000,  0.0000)
  13 Rh     4.124441    0.793749   12.245061    ( 0.0000,  0.0000,  0.0000)
  14 Rh     2.739293    1.592963   14.454329    ( 0.0000,  0.0000,  0.0000)
  15 Rh     2.735492    0.006141   16.784336    ( 0.0000,  0.0000,  0.0000)
  16 Rh     1.374814    2.381247    9.999999    ( 0.0000,  0.0000,  0.0000)
  17 Rh     2.749628    3.174997   12.245061    ( 0.0000,  0.0000,  0.0000)
  18 Rh     1.372555    3.993258   14.430627    ( 0.0000,  0.0000,  0.0000)
  19 Rh     1.368550    2.442979   16.759326    ( 0.0000,  0.0000,  0.0000)
  20 Rh    -0.000000    4.762495    9.999999    ( 0.0000,  0.0000,  0.0000)
  21 Rh     1.374814    5.556244   12.245061    ( 0.0000,  0.0000,  0.0000)
  22 Rh     0.004749    6.357116   14.452222    ( 0.0000,  0.0000,  0.0000)
  23 Rh    -0.001010    4.774031   16.661626    ( 0.0000,  0.0000,  0.0000)
  24 Rh     5.499255    0.000000    9.999999    ( 0.0000,  0.0000,  0.0000)
  25 Rh     6.874069    0.793749   12.245061    ( 0.0000,  0.0000,  0.0000)
  26 Rh     5.498739    1.591082   14.451760    ( 0.0000,  0.0000,  0.0000)
  27 Rh     5.501565    0.021499   16.664294    ( 0.0000,  0.0000,  0.0000)
  28 Rh     4.124441    2.381247    9.999999    ( 0.0000,  0.0000,  0.0000)
  29 Rh     5.499255    3.174997   12.245061    ( 0.0000,  0.0000,  0.0000)
  30 Rh     4.118059    3.978548   14.447789    ( 0.0000,  0.0000,  0.0000)
  31 Rh     4.137174    2.395536   16.665512    ( 0.0000,  0.0000,  0.0000)
  32 Rh     2.749628    4.762495    9.999999    ( 0.0000,  0.0000,  0.0000)
  33 Rh     4.124441    5.556244   12.245061    ( 0.0000,  0.0000,  0.0000)
  34 Rh     2.746755    6.358255   14.451904    ( 0.0000,  0.0000,  0.0000)
  35 Rh     2.747064    4.778277   16.659283    ( 0.0000,  0.0000,  0.0000)
  36 H      1.416939   -0.073973   20.237051    ( 0.0000,  0.0000,  0.0000)
  37 O      1.406881   -0.610919   19.422468    ( 0.0000,  0.0000,  0.0000)
  38 C      1.383120    0.228611   18.346637    ( 0.0000,  0.0000,  0.0000)
  39 C      1.377352    1.682811   18.616932    ( 0.0000,  0.0000,  0.0000)
  40 O      1.380831    2.236650   19.695341    ( 0.0000,  0.0000,  0.0000)

Unit cell:
           periodic     x           y           z      points  spacing
  1. axis:    yes    8.248883    0.000000    0.000000    40     0.1786
  2. axis:    yes   -4.124441    7.143742    0.000000    40     0.1786
  3. axis:    no     0.000000    0.000000   26.735183   148     0.1806

  Lengths:   8.248883   8.248883  26.735183
  Angles:   90.000000  90.000000 120.000000

Effective grid spacing dv^(1/3) = 0.1881

     iter     time        total  log10-change:
                         energy  eigst   dens
iter:   1 08:37:31 -5216.606556  -3.28
iter:   2 08:38:20 -5216.693446  -3.89  -3.35
iter:   3 08:39:09 -5216.606220c -4.43  -2.59
iter:   4 08:39:57 -5216.604718c -5.16  -3.79
iter:   5 08:40:46 -5216.606081c -5.70  -3.90
iter:   6 08:41:35 -5216.605242c -5.48  -3.88
iter:   7 08:42:23 -5216.605381c -5.83  -4.19c
iter:   8 08:43:12 -5216.605336c -6.48  -4.31c
iter:   9 08:44:01 -5216.605680c -6.51  -4.21c
iter:  10 08:44:49 -5216.605183c -6.44  -3.84
iter:  11 08:45:38 -5216.605563c -6.74  -4.58c
iter:  12 08:46:26 -5216.605269c -7.23  -4.56c
iter:  13 08:47:15 -5216.605367c -7.70c -4.70c

Converged after 13 iterations.

Dipole moment: (-0.661349, -12.142052, -0.089475) |e|*Ang

Energy contributions relative to reference atoms: (reference = -4690996.743002)

Kinetic:       +774.225228
Potential:     -803.643890
External:        +0.000000
XC:            -5177.039883
Entropy (-ST):   -2.204556
Local:           -9.044544
--------------------------
Free energy:   -5217.707645
Extrapolated:  -5216.605367

Showing only first 2 kpts
 Kpt  Band  Eigenvalues  Occupancy
  0   278     -5.40060    1.18000
  0   279     -5.37711    1.06442
  0   280     -5.31281    0.74854
  0   281     -5.29847    0.68268

  1   278     -5.44139    1.36784
  1   279     -5.40297    1.19144
  1   280     -5.37616    1.05968
  1   281     -5.35682    0.96310


Fermi level: -5.36420

No gap

Forces in eV/Ang:
  0 Rh    0.02554    0.01237    0.20276
  1 Rh   -0.03286   -0.00967   -0.13078
  2 Rh   -0.00211   -0.00451    0.01677
  3 Rh    0.01717   -0.00202    0.01845
  4 Rh    0.00765   -0.00227    0.15069
  5 Rh   -0.00807   -0.01399   -0.17366
  6 Rh    0.00070   -0.01850    0.01072
  7 Rh    0.00317   -0.02236    0.00946
  8 Rh   -0.00573    0.01568    0.15609
  9 Rh   -0.01661    0.06490   -0.11928
 10 Rh    0.00015   -0.02154    0.01943
 11 Rh   -0.00254   -0.01671    0.00984
 12 Rh   -0.03419    0.01608    0.18384
 13 Rh   -0.01066    0.01679   -0.15721
 14 Rh    0.00058   -0.00467    0.00931
 15 Rh   -0.01037   -0.00857    0.00988
 16 Rh   -0.00165   -0.03165    0.17106
 17 Rh    0.00468   -0.00815   -0.16633
 18 Rh   -0.00213   -0.01019    0.01468
 19 Rh   -0.00408   -0.01464    0.03482
 20 Rh    0.01657    0.00147    0.25646
 21 Rh    0.00291    0.08203   -0.69319
 22 Rh   -0.00035   -0.00849    0.00841
 23 Rh   -0.01040   -0.00126   -0.00278
 24 Rh    0.00597   -0.02961    0.26654
 25 Rh    0.03130   -0.00315   -0.15911
 26 Rh   -0.00208   -0.00828   -0.00008
 27 Rh   -0.00377   -0.01793    0.01282
 28 Rh   -0.00789    0.00281    0.15991
 29 Rh   -0.00452    0.00087   -0.16758
 30 Rh    0.00051   -0.01756    0.00485
 31 Rh   -0.01153   -0.02260    0.00926
 32 Rh   -0.01537    0.00931    0.23909
 33 Rh    0.00970    0.09554   -0.12008
 34 Rh   -0.00183   -0.00990   -0.00180
 35 Rh    0.00386   -0.00469   -0.00176
 36 H    -0.01155   -0.01620   -0.01019
 37 O    -0.00030   -0.01023   -0.02717
 38 C    -0.00903   -0.01279   -0.02388
 39 C     0.00969   -0.02448   -0.01936
 40 O     0.02996   -0.02263    0.02699

BFGS:   22 08:47:43    -5216.605367        0.0462
Timing:                                      incl.     excl.
-------------------------------------------------------------------
Density initialized from wave functions:    19.441    19.440   0.1% |
 Symmetrize density:                         0.001     0.001   0.0% |
Forces:                                    644.583   644.583   2.5% ||
Hamiltonian:                                82.883     0.003   0.0% |
 Atomic:                                     3.453     0.018   0.0% |
  XC Correction:                             3.434     3.434   0.0% |
 Calculate atomic Hamiltonians:              1.908     1.908   0.0% |
 Communicate:                                0.342     0.342   0.0% |
 Hartree integrate/restrict:                 0.214     0.214   0.0% |
 Initialize Hamiltonian:                     0.001     0.001   0.0% |
 Poisson:                                    4.098     0.163   0.0% |
  Communicate from 1D:                       0.326     0.326   0.0% |
  Communicate from 2D:                       0.668     0.668   0.0% |
  Communicate to 1D:                         0.193     0.193   0.0% |
  Communicate to 2D:                         0.733     0.733   0.0% |
  FFT 1D:                                    1.037     1.037   0.0% |
  FFT 2D:                                    0.979     0.979   0.0% |
 XC 3D grid:                                72.635    18.226   0.1% |
  VdW-DF integral:                          54.409     2.919   0.0% |
   Convolution:                              4.780     4.780   0.0% |
   FFT:                                      3.366     3.366   0.0% |
   gather:                                  16.910    16.910   0.1% |
   hmm1:                                     0.959     0.959   0.0% |
   hmm2:                                     1.979     1.979   0.0% |
   iFFT:                                     3.262     3.262   0.0% |
   potential:                               15.585     0.367   0.0% |
    collect:                                 1.049     1.049   0.0% |
    p1:                                      9.298     9.298   0.0% |
    p2:                                      3.161     3.161   0.0% |
    sum:                                     1.710     1.710   0.0% |
   splines:                                  4.648     4.648   0.0% |
 vbar:                                       0.228     0.228   0.0% |
LCAO initialization:                        65.628     2.456   0.0% |
 LCAO eigensolver:                          51.205     0.005   0.0% |
  Calculate projections:                     0.000     0.000   0.0% |
  DenseAtomicCorrection:                     0.000     0.000   0.0% |
  Distribute overlap matrix:                50.137    50.137   0.2% |
  Orbital Layouts:                           0.851     0.851   0.0% |
  Potential matrix:                          0.063     0.063   0.0% |
  Sum over cells:                            0.149     0.149   0.0% |
 LCAO to grid:                               9.715     9.715   0.0% |
 Set positions (LCAO WFS):                   2.252     1.518   0.0% |
  Basic WFS set positions:                   0.001     0.001   0.0% |
  Basis functions set positions:             0.000     0.000   0.0% |
  P tci:                                     0.001     0.001   0.0% |
  ST tci:                                    0.597     0.597   0.0% |
  mktci:                                     0.134     0.134   0.0% |
Redistribute:                                0.016     0.016   0.0% |
SCF-cycle:                               23454.290   354.480   1.4% ||
 Davidson:                               21349.711  7534.766  29.6% |-----------|
  Apply hamiltonian:                       391.740   391.740   1.5% ||
  Subspace diag:                          1659.040     0.070   0.0% |
   calc_h_matrix:                          830.695   461.483   1.8% ||
    Apply hamiltonian:                     369.212   369.212   1.4% ||
   diagonalize:                             37.501    37.501   0.1% |
   rotate_psi:                             790.774   790.774   3.1% ||
  calc. matrices:                         9997.475  3018.107  11.8% |----|
   Apply hamiltonian:                     6979.368  6979.368  27.4% |----------|
  diagonalize:                             249.466   249.466   1.0% |
  rotate_psi:                             1517.224  1517.224   6.0% |-|
 Density:                                   33.134     0.011   0.0% |
  Atomic density matrices:                   3.162     3.162   0.0% |
  Mix:                                       8.321     8.321   0.0% |
  Multipole moments:                         0.213     0.213   0.0% |
  Pseudo density:                           21.427    21.409   0.1% |
   Symmetrize density:                       0.018     0.018   0.0% |
 Hamiltonian:                             1537.301     0.060   0.0% |
  Atomic:                                   68.582     0.354   0.0% |
   XC Correction:                           68.228    68.228   0.3% |
  Calculate atomic Hamiltonians:            38.556    38.556   0.2% |
  Communicate:                               4.802     4.802   0.0% |
  Hartree integrate/restrict:                4.150     4.150   0.0% |
  Poisson:                                  81.467     3.207   0.0% |
   Communicate from 1D:                      6.428     6.428   0.0% |
   Communicate from 2D:                     13.420    13.420   0.1% |
   Communicate to 1D:                        3.788     3.788   0.0% |
   Communicate to 2D:                       14.767    14.767   0.1% |
   FFT 1D:                                  20.549    20.549   0.1% |
   FFT 2D:                                  19.308    19.308   0.1% |
  XC 3D grid:                             1338.873   370.838   1.5% ||
   VdW-DF integral:                        968.036    58.299   0.2% |
    Convolution:                            95.843    95.843   0.4% |
    FFT:                                    68.180    68.180   0.3% |
    gather:                                316.330   316.330   1.2% |
    hmm1:                                   19.050    19.050   0.1% |
    hmm2:                                   39.253    39.253   0.2% |
    iFFT:                                   65.166    65.166   0.3% |
    potential:                             305.912     7.108   0.0% |
     collect:                               20.509    20.509   0.1% |
     p1:                                   184.621   184.621   0.7% |
     p2:                                    62.642    62.642   0.2% |
     sum:                                   31.032    31.032   0.1% |
    splines:                                 0.002     0.002   0.0% |
  vbar:                                      0.810     0.810   0.0% |
 Orthonormalize:                           179.665     0.006   0.0% |
  calc_s_matrix:                             9.586     9.586   0.0% |
  inverse-cholesky:                        151.419   151.419   0.6% |
  projections:                               0.002     0.002   0.0% |
  rotate_psi_s:                             18.653    18.653   0.1% |
Set symmetry:                                0.002     0.002   0.0% |
Other:                                    1226.013  1226.013   4.8% |-|
-------------------------------------------------------------------
Total:                                             25492.855 100.0%

Memory usage: 1.62 GiB
Date: Fri Sep 29 08:47:43 2023
