
  ___ ___ ___ _ _ _  
 |   |   |_  | | | | 
 | | | | | . | | | | 
 |__ |  _|___|_____|  22.8.0
 |___|_|             

User:   s204775@a009.nifl.fysik.dtu.dk
Date:   Fri Sep 29 01:42:55 2023
Arch:   x86_64
Pid:    126890
CWD:    /home/cat/s204775/projects/Bachelor_project/OCCOH_missing_features
Python: 3.10.4
gpaw:   /home/modules/software/GPAW/22.8.0-intel-2022a/lib/python3.10/site-packages/gpaw
_gpaw:  /home/modules/software/GPAW/22.8.0-intel-2022a/lib/python3.10/site-packages/
        _gpaw.cpython-310-x86_64-linux-gnu.so
ase:    /home/modules/software/ASE/3.22.1-intel-2022a/lib/python3.10/site-packages/ase (version 3.22.1)
numpy:  /home/modules/software/SciPy-bundle/2022.05-intel-2022a/lib/python3.10/site-packages/numpy (version 1.22.3)
scipy:  /home/modules/software/SciPy-bundle/2022.05-intel-2022a/lib/python3.10/site-packages/scipy (version 1.8.1)
libxc:  5.2.3
units:  Angstrom and eV
cores: 40
OpenMP: False
OMP_NUM_THREADS: 1

Input parameters:
  basis: dzp
  h: 0.18
  kpts: {size: (4, 4, 1)}
  xc: BEEF-vdW

System changes: positions, numbers, cell, pbc, initial_charges, initial_magmoms 

Initialize ...

species:
  Ru:
    name: Ruthenium
    id: 670232e5f51aeb2542f664849653fb2d
    Z: 44.0
    valence: 16
    core: 28
    charge: 0.0
    file: /home/modules/software/GPAW-setups/0.9.20000/Ru.PBE.gz
    compensation charges: {type: gauss,
                           rc: 0.39,
                           lmax: 2}
    cutoffs: {filter: 2.16,
              core: 1.30}
    valence states:
      #              energy  rcut
      - 4s(2.00)   -76.316   1.281
      - 5s(1.00)    -4.236   1.281
      - 4p(6.00)   -46.423   1.286
      - 5p(0.00)    -0.913   1.286
      - 4d(7.00)    -5.203   1.254
      -  d          22.008   1.254
  
    # LCAO basis set for Ru:
    #   Name: dzp
    #   File: /home/modules/software/GPAW-setups/0.9.20000/Ru.dzp.basis.gz
    #   Number of radial functions: 11
    #   Number of spherical harmonics: 29
    #     l=0, rc=3.2969 Bohr: 4s-sz confined orbital
    #     l=0, rc=9.6875 Bohr: 5s-sz confined orbital
    #     l=1, rc=3.7656 Bohr: 4p-sz confined orbital
    #     l=1, rc=14.0938 Bohr: 5p-sz confined orbital
    #     l=2, rc=6.3281 Bohr: 4d-sz confined orbital
    #     l=0, rc=2.0781 Bohr: 4s-dz split-valence wave
    #     l=0, rc=5.8281 Bohr: 5s-dz split-valence wave
    #     l=1, rc=2.4219 Bohr: 4p-dz split-valence wave
    #     l=1, rc=8.7031 Bohr: 5p-dz split-valence wave
    #     l=2, rc=3.7500 Bohr: 4d-dz split-valence wave
    #     l=1, rc=9.6875 Bohr: p-type Gaussian polarization
    #   Number of RI-basis functions 0

  H:
    name: Hydrogen
    id: d65de229564ff8ea4db303e23b6d1ecf
    Z: 1.0
    valence: 1
    core: 0
    charge: 0.0
    file: /home/modules/software/GPAW-setups/0.9.20000/H.PBE.gz
    compensation charges: {type: gauss,
                           rc: 0.15,
                           lmax: 2}
    cutoffs: {filter: 0.85,
              core: 0.53}
    valence states:
      #              energy  rcut
      - 1s(1.00)    -6.494   0.476
      -  s          20.717   0.476
      -  p           0.000   0.476
  
    # LCAO basis set for H:
    #   Name: dzp
    #   File: /home/modules/software/GPAW-setups/0.9.20000/H.dzp.basis.gz
    #   Number of radial functions: 3
    #   Number of spherical harmonics: 5
    #     l=0, rc=6.4219 Bohr: 1s-sz confined orbital
    #     l=0, rc=3.6094 Bohr: 1s-dz split-valence wave
    #     l=1, rc=6.4219 Bohr: p-type Gaussian polarization
    #   Number of RI-basis functions 0

  O:
    name: Oxygen
    id: 32ecd46bf208036f09c70b0ec9a88b78
    Z: 8.0
    valence: 6
    core: 2
    charge: 0.0
    file: /home/modules/software/GPAW-setups/0.9.20000/O.PBE.gz
    compensation charges: {type: gauss,
                           rc: 0.21,
                           lmax: 2}
    cutoffs: {filter: 1.17,
              core: 0.83}
    valence states:
      #              energy  rcut
      - 2s(2.00)   -23.961   0.688
      - 2p(4.00)    -9.029   0.598
      -  s           3.251   0.688
      -  p          18.182   0.598
      -  d           0.000   0.619
  
    # LCAO basis set for O:
    #   Name: dzp
    #   File: /home/modules/software/GPAW-setups/0.9.20000/O.dzp.basis.gz
    #   Number of radial functions: 5
    #   Number of spherical harmonics: 13
    #     l=0, rc=4.3438 Bohr: 2s-sz confined orbital
    #     l=1, rc=5.3906 Bohr: 2p-sz confined orbital
    #     l=0, rc=2.2969 Bohr: 2s-dz split-valence wave
    #     l=1, rc=2.8906 Bohr: 2p-dz split-valence wave
    #     l=2, rc=5.3906 Bohr: d-type Gaussian polarization
    #   Number of RI-basis functions 0

  C:
    name: Carbon
    id: 4aa54d4b901d75f77cc0ea3eec22967b
    Z: 6.0
    valence: 4
    core: 2
    charge: 0.0
    file: /home/modules/software/GPAW-setups/0.9.20000/C.PBE.gz
    compensation charges: {type: gauss,
                           rc: 0.20,
                           lmax: 2}
    cutoffs: {filter: 1.14,
              core: 1.14}
    valence states:
      #              energy  rcut
      - 2s(2.00)   -13.751   0.635
      - 2p(2.00)    -5.284   0.635
      -  s          13.461   0.635
      -  p          21.927   0.635
      -  d           0.000   0.635
  
    # LCAO basis set for C:
    #   Name: dzp
    #   File: /home/modules/software/GPAW-setups/0.9.20000/C.dzp.basis.gz
    #   Number of radial functions: 5
    #   Number of spherical harmonics: 13
    #     l=0, rc=5.5469 Bohr: 2s-sz confined orbital
    #     l=1, rc=6.6719 Bohr: 2p-sz confined orbital
    #     l=0, rc=3.0312 Bohr: 2s-dz split-valence wave
    #     l=1, rc=3.7500 Bohr: 2p-dz split-valence wave
    #     l=2, rc=6.6719 Bohr: d-type Gaussian polarization
    #   Number of RI-basis functions 0

Reference energy: -4442973.950380  # eV

Spin-paired calculation

Convergence criteria:
 Maximum [total energy] change in last 3 cyles: 0.0005 eV / electron
 Maximum integral of absolute [dens]ity change: 0.0001 electrons / valence electron
 Maximum integral of absolute [eigenst]ate change: 4e-08 eV^2 / valence electron
 Maximum number of scf [iter]ations: 333
 (Square brackets indicate name in SCF output, whereas a 'c' in
 the SCF output indicates the quantity has converged.)

Symmetries present (total): 1

  ( 1  0  0)
  ( 0  1  0)
  ( 0  0  1)

16 k-points: 4 x 4 x 1 Monkhorst-Pack grid
8 k-points in the irreducible part of the Brillouin zone
       k-points in crystal coordinates                weights
   0:     0.12500000   -0.37500000    0.00000000          2/16
   1:     0.12500000   -0.12500000    0.00000000          2/16
   2:     0.12500000    0.12500000    0.00000000          2/16
   3:     0.12500000    0.37500000    0.00000000          2/16
   4:     0.37500000   -0.37500000    0.00000000          2/16
   5:     0.37500000   -0.12500000    0.00000000          2/16
   6:     0.37500000    0.12500000    0.00000000          2/16
   7:     0.37500000    0.37500000    0.00000000          2/16

Wave functions: Uniform real-space grid
  Kinetic energy operator: 8*3+1=25 point O(h^6) finite-difference Laplacian
  ScaLapack parameters: grid=1x1, blocksize=None
  Wavefunction extrapolation:
    Improved wavefunction reuse through dual PAW basis 

Occupation numbers: Fermi-Dirac:
  width: 0.1000  # eV
 

Eigensolver
   Davidson(niter=2) 

Densities:
  Coarse grid: 40*40*148 grid
  Fine grid: 80*80*296 grid
  Total Charge: 0.000000 

Density mixing:
  Method: separate
  Backend: pulay
  Linear mixing parameter: 0.05
  old densities: 5
  Damping of long wavelength oscillations: 50 

Hamiltonian:
  XC and Coulomb potentials evaluated on a 80*80*296 grid
  Using the BEEF-vdW Exchange-Correlation functional
  Interpolation: tri-quintic (5. degree polynomial)
  Poisson solver: FastPoissonSolver using
    Stencil: 8*3+1=25 point O(h^6) finite-difference Laplacian
    FFT axes: [0, 1]
    FST axes: [2]
 

XC parameters: BEEF-vdW with 2 nearest neighbor stencil

Memory estimate:
  Process memory now: 199.86 MiB
  Calculator: 611.50 MiB
    Density: 57.46 MiB
      Arrays: 9.35 MiB
      Localized functions: 44.57 MiB
      Mixer: 3.54 MiB
    Hamiltonian: 9.04 MiB
      Arrays: 6.12 MiB
      XC: 0.00 MiB
      Poisson: 0.00 MiB
      vbar: 2.93 MiB
    Wavefunctions: 545.00 MiB
      Arrays psit_nG: 257.01 MiB
      Eigensolver: 280.66 MiB
      Projections: 0.78 MiB
      Projectors: 6.54 MiB

Total number of cores used: 40
Parallelization over k-points: 8
Domain decomposition: 1 x 1 x 5

Number of atoms: 41
Number of atomic orbitals: 1101
Number of bands in calculation: 363
Number of valence electrons: 597
Bands to converge: occupied

... initialized

Initializing position-dependent things.

Density initialized from atomic densities
Creating initial wave functions:
  363 bands from LCAO basis set

                                               
                                               
                                               
                                               
                                               
                                               
                                               
                          O                    
                        H                      
                 Ru     OC    Ru               
            Ru    RRu   CRu     Ru             
                                               
             Ru     RRu   RRu     Ru           
               Ru     Ru    Ru                 
              Ru     Ru    Ru                  
                Ru     Ru    Ru                
                                               
           Ru    RRu    Ru     Ru              
            Ru     Ru    Ru                    
                                               
              Ru     Ru    Ru                  
                                               
                                               
                                               
                                               

Positions:
   0 Ru     0.000000    0.000000    9.999999    ( 0.0000,  0.0000,  0.0000)
   1 Ru     1.355017    0.782320   12.212733    ( 0.0000,  0.0000,  0.0000)
   2 Ru    -0.000000    1.567087   14.455961    ( 0.0000,  0.0000,  0.0000)
   3 Ru     2.710329   -0.000147   16.576449    ( 0.0000,  0.0000,  0.0000)
   4 Ru    -1.355017    2.346959    9.999999    ( 0.0000,  0.0000,  0.0000)
   5 Ru    -0.000000    3.129279   12.212733    ( 0.0000,  0.0000,  0.0000)
   6 Ru    -1.356314    3.910850   14.455644    ( 0.0000,  0.0000,  0.0000)
   7 Ru     1.355037    2.347288   16.576449    ( 0.0000,  0.0000,  0.0000)
   8 Ru    -2.710035    4.693918    9.999999    ( 0.0000,  0.0000,  0.0000)
   9 Ru    -1.355017    5.476238   12.212733    ( 0.0000,  0.0000,  0.0000)
  10 Ru    -2.707915    6.257334   14.455961    ( 0.0000,  0.0000,  0.0000)
  11 Ru    -0.000000    4.693918   16.575086    ( 0.0000,  0.0000,  0.0000)
  12 Ru     2.710035    0.000000    9.999999    ( 0.0000,  0.0000,  0.0000)
  13 Ru     4.065052    0.782320   12.212733    ( 0.0000,  0.0000,  0.0000)
  14 Ru     2.708133    1.563542   14.457333    ( 0.0000,  0.0000,  0.0000)
  15 Ru     5.419776   -0.000147   16.576449    ( 0.0000,  0.0000,  0.0000)
  16 Ru     1.355017    2.346959    9.999999    ( 0.0000,  0.0000,  0.0000)
  17 Ru     2.710035    3.129279   12.212733    ( 0.0000,  0.0000,  0.0000)
  18 Ru     1.356314    3.910850   14.455644    ( 0.0000,  0.0000,  0.0000)
  19 Ru     4.065052    2.346959   16.575797    ( 0.0000,  0.0000,  0.0000)
  20 Ru     0.000000    4.693918    9.999999    ( 0.0000,  0.0000,  0.0000)
  21 Ru     1.355017    5.476238   12.212733    ( 0.0000,  0.0000,  0.0000)
  22 Ru    -0.000000    6.260055   14.455644    ( 0.0000,  0.0000,  0.0000)
  23 Ru     2.709760    4.693737   16.576449    ( 0.0000,  0.0000,  0.0000)
  24 Ru     5.420070    0.000000    9.999999    ( 0.0000,  0.0000,  0.0000)
  25 Ru     6.775087    0.782320   12.212733    ( 0.0000,  0.0000,  0.0000)
  26 Ru     5.421972    1.563542   14.457333    ( 0.0000,  0.0000,  0.0000)
  27 Ru     8.130105    0.000000   16.573376    ( 0.0000,  0.0000,  0.0000)
  28 Ru     4.065052    2.346959    9.999999    ( 0.0000,  0.0000,  0.0000)
  29 Ru     5.420070    3.129279   12.212733    ( 0.0000,  0.0000,  0.0000)
  30 Ru     4.065052    3.913794   14.457333    ( 0.0000,  0.0000,  0.0000)
  31 Ru     6.775068    2.347288   16.576449    ( 0.0000,  0.0000,  0.0000)
  32 Ru     2.710035    4.693918    9.999999    ( 0.0000,  0.0000,  0.0000)
  33 Ru     4.065052    5.476238   12.212733    ( 0.0000,  0.0000,  0.0000)
  34 Ru     2.707915    6.257334   14.455961    ( 0.0000,  0.0000,  0.0000)
  35 Ru     5.420345    4.693737   16.576449    ( 0.0000,  0.0000,  0.0000)
  36 H      4.129720   -0.215621   19.913042    ( 0.0000,  0.0000,  0.0000)
  37 O      4.107203   -0.581257   19.120969    ( 0.0000,  0.0000,  0.0000)
  38 C      4.110956    0.285198   18.121876    ( 0.0000,  0.0000,  0.0000)
  39 C      4.037642    1.781166   18.363983    ( 0.0000,  0.0000,  0.0000)
  40 O      4.090195    2.409714   19.647363    ( 0.0000,  0.0000,  0.0000)

Unit cell:
           periodic     x           y           z      points  spacing
  1. axis:    yes    8.130105    0.000000    0.000000    40     0.1760
  2. axis:    yes   -4.065052    7.040877    0.000000    40     0.1760
  3. axis:    no     0.000000    0.000000   26.638201   148     0.1800

  Lengths:   8.130105   8.130105  26.638201
  Angles:   90.000000  90.000000 120.000000

Effective grid spacing dv^(1/3) = 0.1860

     iter     time        total  log10-change:
                         energy  eigst   dens
iter:   1 01:44:46 -5179.436776
iter:   2 01:45:21 -5718.485666  +1.10  -1.10
iter:   3 01:45:56 -5145.485072  -0.19  -0.81
iter:   4 01:46:31 -5125.139657  -0.89  -1.24
iter:   5 01:47:06 -5123.851427  -1.54  -1.35
iter:   6 01:47:41 -5121.591926  -0.57  -1.37
iter:   7 01:48:16 -5114.115281  -1.76  -1.52
iter:   8 01:48:50 -5113.414575  -1.32  -1.66
iter:   9 01:49:25 -5115.625901  -2.05  -1.89
iter:  10 01:50:00 -5113.485237  -1.97  -1.77
iter:  11 01:50:35 -5112.886416  -2.33  -1.95
iter:  12 01:51:10 -5113.136516  -2.77  -2.12
iter:  13 01:51:45 -5113.005372c -2.84  -2.16
iter:  14 01:52:20 -5112.896229c -3.36  -2.20
iter:  15 01:52:54 -5112.702147  -2.77  -2.27
iter:  16 01:53:29 -5112.923158c -2.80  -2.39
iter:  17 01:54:04 -5112.561572  -2.98  -2.29
iter:  18 01:54:39 -5112.556095  -3.28  -2.72
iter:  19 01:55:14 -5112.558915c -3.50  -2.74
iter:  20 01:55:49 -5112.558955c -3.85  -2.76
iter:  21 01:56:24 -5112.566314c -4.03  -2.88
iter:  22 01:56:58 -5112.554777c -4.08  -2.87
iter:  23 01:57:33 -5112.554055c -4.70  -3.20
iter:  24 01:58:08 -5112.557245c -4.73  -3.31
iter:  25 01:58:43 -5112.554547c -4.75  -3.38
iter:  26 01:59:18 -5112.554861c -5.23  -3.49
iter:  27 01:59:53 -5112.554808c -5.74  -3.72
iter:  28 02:00:28 -5112.554862c -6.26  -3.76
iter:  29 02:01:03 -5112.555121c -5.54  -3.84
iter:  30 02:01:37 -5112.555045c -6.28  -3.94
iter:  31 02:02:12 -5112.555175c -6.74  -4.18c
iter:  32 02:02:47 -5112.555079c -6.90  -4.24c
iter:  33 02:03:22 -5112.555078c -6.77  -4.35c
iter:  34 02:03:57 -5112.555066c -7.39  -4.47c
iter:  35 02:04:32 -5112.555088c -7.49c -4.49c

Converged after 35 iterations.

Dipole moment: (-3.280061, -9.092646, -0.346367) |e|*Ang

Energy contributions relative to reference atoms: (reference = -4442973.950380)

Kinetic:       +660.087449
Potential:     -744.956326
External:        +0.000000
XC:            -5020.392126
Entropy (-ST):   -1.959028
Local:           -6.314572
--------------------------
Free energy:   -5113.534602
Extrapolated:  -5112.555088

Showing only first 2 kpts
 Kpt  Band  Eigenvalues  Occupancy
  0   296     -5.60156    1.40163
  0   297     -5.56975    1.26042
  0   298     -5.51451    0.99033
  0   299     -5.49605    0.89840

  1   296     -5.50876    0.96164
  1   297     -5.48322    0.83540
  1   298     -5.44621    0.66262
  1   299     -5.42744    0.58223


Fermi level: -5.51644

No gap

Forces in eV/Ang:
  0 Ru   -0.00541   -0.02289    0.65902
  1 Ru    0.08851    0.02795   -0.75811
  2 Ru   -0.02122   -0.02418    0.18224
  3 Ru   -0.20238    0.15884    0.51705
  4 Ru   -0.00181    0.00942    0.73020
  5 Ru    0.01311    0.01169   -0.66878
  6 Ru   -0.07116    0.09961    0.02856
  7 Ru   -0.25142    0.00382   -0.07039
  8 Ru   -0.02046   -0.00267    0.68345
  9 Ru    0.05855   -0.00116   -0.72452
 10 Ru   -0.36646   -0.31254   -0.49119
 11 Ru   -0.00073   -0.38253   -0.11744
 12 Ru   -0.03552   -0.03022    0.71730
 13 Ru    0.01848   -0.00705   -0.72054
 14 Ru   -0.08633   -0.02572   -0.28792
 15 Ru    0.35220    0.13619    0.28674
 16 Ru   -0.00568    0.01287    0.72913
 17 Ru    0.01576   -0.04716   -0.80626
 18 Ru    0.03916    0.11080    0.01200
 19 Ru   -0.03879    1.41877   -1.61034
 20 Ru   -0.00001    0.00419    0.74373
 21 Ru   -0.03696    0.00922   -0.71122
 22 Ru   -0.01781   -0.05600   -0.26379
 23 Ru   -0.04279    0.03300   -0.06690
 24 Ru    0.03084   -0.03364    0.70508
 25 Ru   -0.05941    0.02829   -0.75300
 26 Ru    0.05884   -0.05745   -0.30758
 27 Ru   -0.00145    0.04295   -0.10643
 28 Ru   -0.00381    0.06184    0.76493
 29 Ru    0.02006   -0.04081   -0.80357
 30 Ru   -0.01478    0.34738   -0.44949
 31 Ru    0.27033    0.03080   -0.07651
 32 Ru    0.01019   -0.00219    0.66374
 33 Ru    0.02795   -0.00775   -0.42011
 34 Ru    0.41477   -0.34191   -0.60276
 35 Ru    0.03427    0.02316   -0.06683
 36 H     0.11411    3.09139    6.16115
 37 O    -0.14028   -4.12821   -4.61702
 38 C    -0.37846    2.04052    0.19030
 39 C     0.54801    0.96051    7.69081
 40 O    -0.35752   -3.13901   -6.00439

      Step     Time          Energy         fmax
BFGS:    0 02:04:49    -5112.555088        7.7699
System changes: positions 

Initializing position-dependent things.

Density initialized from wave functions
                                               
                                               
                                               
                                               
                                               
                                               
                                               
                          O                    
                        HC                     
                 Ru     Ou    Ru               
            Ru    RRu   CRRu    Ru             
                                               
             Ru     RRu    Ru     Ru           
               Ru     Ru    Ru                 
              Ru     Ru     Ru                 
                Ru     Ru    Ru                
                                               
           Ru    RRu    Ru     Ru              
            Ru     Ru    Ru                    
                                               
              Ru     Ru    Ru                  
                                               
                                               
                                               
                                               

Positions:
   0 Ru     0.000000    0.000000    9.999999    ( 0.0000,  0.0000,  0.0000)
   1 Ru     1.355017    0.782320   12.212733    ( 0.0000,  0.0000,  0.0000)
   2 Ru    -0.000303    1.566742   14.458564    ( 0.0000,  0.0000,  0.0000)
   3 Ru     2.707438    0.002122   16.583835    ( 0.0000,  0.0000,  0.0000)
   4 Ru    -1.355017    2.346959    9.999999    ( 0.0000,  0.0000,  0.0000)
   5 Ru    -0.000000    3.129279   12.212733    ( 0.0000,  0.0000,  0.0000)
   6 Ru    -1.357331    3.912273   14.456051    ( 0.0000,  0.0000,  0.0000)
   7 Ru     1.351446    2.347342   16.575443    ( 0.0000,  0.0000,  0.0000)
   8 Ru    -2.710035    4.693918    9.999999    ( 0.0000,  0.0000,  0.0000)
   9 Ru    -1.355017    5.476238   12.212733    ( 0.0000,  0.0000,  0.0000)
  10 Ru    -2.713150    6.252869   14.448944    ( 0.0000,  0.0000,  0.0000)
  11 Ru    -0.000010    4.688454   16.573408    ( 0.0000,  0.0000,  0.0000)
  12 Ru     2.710035    0.000000    9.999999    ( 0.0000,  0.0000,  0.0000)
  13 Ru     4.065052    0.782320   12.212733    ( 0.0000,  0.0000,  0.0000)
  14 Ru     2.706900    1.563174   14.453220    ( 0.0000,  0.0000,  0.0000)
  15 Ru     5.424807    0.001799   16.580545    ( 0.0000,  0.0000,  0.0000)
  16 Ru     1.355017    2.346959    9.999999    ( 0.0000,  0.0000,  0.0000)
  17 Ru     2.710035    3.129279   12.212733    ( 0.0000,  0.0000,  0.0000)
  18 Ru     1.356874    3.912433   14.455815    ( 0.0000,  0.0000,  0.0000)
  19 Ru     4.064498    2.367227   16.552792    ( 0.0000,  0.0000,  0.0000)
  20 Ru     0.000000    4.693918    9.999999    ( 0.0000,  0.0000,  0.0000)
  21 Ru     1.355017    5.476238   12.212733    ( 0.0000,  0.0000,  0.0000)
  22 Ru    -0.000254    6.259255   14.451875    ( 0.0000,  0.0000,  0.0000)
  23 Ru     2.709149    4.694208   16.575493    ( 0.0000,  0.0000,  0.0000)
  24 Ru     5.420070    0.000000    9.999999    ( 0.0000,  0.0000,  0.0000)
  25 Ru     6.775087    0.782320   12.212733    ( 0.0000,  0.0000,  0.0000)
  26 Ru     5.422812    1.562721   14.452939    ( 0.0000,  0.0000,  0.0000)
  27 Ru     8.130084    0.000614   16.571856    ( 0.0000,  0.0000,  0.0000)
  28 Ru     4.065052    2.346959    9.999999    ( 0.0000,  0.0000,  0.0000)
  29 Ru     5.420070    3.129279   12.212733    ( 0.0000,  0.0000,  0.0000)
  30 Ru     4.064841    3.918757   14.450912    ( 0.0000,  0.0000,  0.0000)
  31 Ru     6.778929    2.347728   16.575356    ( 0.0000,  0.0000,  0.0000)
  32 Ru     2.710035    4.693918    9.999999    ( 0.0000,  0.0000,  0.0000)
  33 Ru     4.065052    5.476238   12.212733    ( 0.0000,  0.0000,  0.0000)
  34 Ru     2.713841    6.252449   14.447350    ( 0.0000,  0.0000,  0.0000)
  35 Ru     5.420834    4.694068   16.575494    ( 0.0000,  0.0000,  0.0000)
  36 H      4.131350   -0.171459   20.001059    ( 0.0000,  0.0000,  0.0000)
  37 O      4.105199   -0.640232   19.055012    ( 0.0000,  0.0000,  0.0000)
  38 C      4.105549    0.314348   18.124595    ( 0.0000,  0.0000,  0.0000)
  39 C      4.045471    1.794887   18.473852    ( 0.0000,  0.0000,  0.0000)
  40 O      4.085087    2.364871   19.561586    ( 0.0000,  0.0000,  0.0000)

Unit cell:
           periodic     x           y           z      points  spacing
  1. axis:    yes    8.130105    0.000000    0.000000    40     0.1760
  2. axis:    yes   -4.065052    7.040877    0.000000    40     0.1760
  3. axis:    no     0.000000    0.000000   26.638201   148     0.1800

  Lengths:   8.130105   8.130105  26.638201
  Angles:   90.000000  90.000000 120.000000

Effective grid spacing dv^(1/3) = 0.1860

     iter     time        total  log10-change:
                         energy  eigst   dens
iter:   1 02:06:36 -5117.228956  -0.84
iter:   2 02:07:12 -5121.919630  -1.53  -2.02
iter:   3 02:07:47 -5133.199666  -1.42  -1.63
iter:   4 02:08:23 -5115.049493  -1.86  -1.44
iter:   5 02:08:58 -5114.419240  -2.31  -2.06
iter:   6 02:09:34 -5114.059429  -2.35  -2.36
iter:   7 02:10:09 -5113.926051  -2.23  -2.68
iter:   8 02:10:45 -5113.907372c -2.62  -2.76
iter:   9 02:11:20 -5114.173853c -2.86  -2.72
iter:  10 02:11:56 -5113.869406  -2.97  -2.29
iter:  11 02:12:31 -5113.852925  -3.31  -2.77
iter:  12 02:13:07 -5113.845131c -3.73  -3.00
iter:  13 02:13:42 -5113.839114c -4.13  -3.09
iter:  14 02:14:18 -5113.837923c -4.34  -3.37
iter:  15 02:14:53 -5113.838440c -4.35  -3.49
iter:  16 02:15:29 -5113.846852c -4.68  -3.52
iter:  17 02:16:04 -5113.839135c -4.88  -3.09
iter:  18 02:16:40 -5113.839230c -5.52  -3.50
iter:  19 02:17:15 -5113.839646c -5.03  -3.74
iter:  20 02:17:51 -5113.839847c -5.25  -3.73
iter:  21 02:18:26 -5113.839308c -5.53  -3.85
iter:  22 02:19:02 -5113.839301c -6.02  -4.06c
iter:  23 02:19:37 -5113.839649c -6.45  -4.12c
iter:  24 02:20:13 -5113.839234c -6.17  -3.90
iter:  25 02:20:48 -5113.839257c -6.08  -4.00
iter:  26 02:21:24 -5113.839274c -6.59  -4.34c
iter:  27 02:21:59 -5113.839350c -7.12  -4.57c
iter:  28 02:22:35 -5113.839329c -7.06  -4.73c
iter:  29 02:23:10 -5113.839326c -7.25  -4.61c
iter:  30 02:23:46 -5113.839367c -7.29  -4.35c
iter:  31 02:24:21 -5113.839306c -7.91c -4.66c

Converged after 31 iterations.

Dipole moment: (-2.985442, -9.905764, -0.055935) |e|*Ang

Energy contributions relative to reference atoms: (reference = -4442973.950380)

Kinetic:       +654.685822
Potential:     -741.472393
External:        +0.000000
XC:            -5019.842746
Entropy (-ST):   -1.953129
Local:           -6.233425
--------------------------
Free energy:   -5114.815870
Extrapolated:  -5113.839306

Showing only first 2 kpts
 Kpt  Band  Eigenvalues  Occupancy
  0   296     -5.32785    1.42298
  0   297     -5.28793    1.24650
  0   298     -5.23811    1.00260
  0   299     -5.21064    0.86606

  1   296     -5.22581    0.94115
  1   297     -5.20966    0.86125
  1   298     -5.16839    0.66717
  1   299     -5.15019    0.58884


Fermi level: -5.23759

No gap

Forces in eV/Ang:
  0 Ru   -0.00373   -0.01038    0.64177
  1 Ru    0.08050    0.03363   -0.76524
  2 Ru   -0.01941   -0.05907    0.11210
  3 Ru   -0.06265    0.23387    0.44030
  4 Ru    0.00597    0.01146    0.71370
  5 Ru    0.01173    0.00479   -0.66765
  6 Ru   -0.03934    0.09567    0.02032
  7 Ru   -0.18464    0.01888   -0.06286
  8 Ru   -0.01877   -0.00755    0.65971
  9 Ru    0.06350    0.00166   -0.71507
 10 Ru   -0.31029   -0.23017   -0.47974
 11 Ru   -0.00006   -0.33150   -0.09707
 12 Ru   -0.04214   -0.02922    0.70480
 13 Ru    0.01838   -0.01201   -0.70330
 14 Ru   -0.06464   -0.06386   -0.21391
 15 Ru    0.17000    0.24950    0.27855
 16 Ru   -0.01285    0.01228    0.71326
 17 Ru    0.00993   -0.05072   -0.81590
 18 Ru    0.00814    0.10144    0.00311
 19 Ru   -0.04909    0.55695   -0.05226
 20 Ru   -0.00053    0.00039    0.73149
 21 Ru   -0.04194    0.00984   -0.70074
 22 Ru   -0.01799   -0.02861   -0.18626
 23 Ru   -0.06238    0.05120   -0.09331
 24 Ru    0.03659   -0.03278    0.69294
 25 Ru   -0.05081    0.03113   -0.76130
 26 Ru    0.03608   -0.08318   -0.22505
 27 Ru    0.00400    0.04455   -0.08054
 28 Ru   -0.00416    0.06639    0.75951
 29 Ru    0.02816   -0.04356   -0.81626
 30 Ru   -0.01377    0.26318   -0.34648
 31 Ru    0.20658    0.04365   -0.07054
 32 Ru    0.01093   -0.00669    0.64329
 33 Ru    0.02828   -0.01137   -0.44537
 34 Ru    0.33891   -0.24960   -0.56578
 35 Ru    0.05824    0.05062   -0.09164
 36 H    -0.10429   -1.32902   -2.22173
 37 O     0.11455    0.50257    4.17486
 38 C    -0.30586    1.43640   -0.32526
 39 C     0.36254   -0.43024    0.90470
 40 O    -0.12134   -0.78202   -0.67142

BFGS:    1 02:24:39    -5113.839306        4.2066
System changes: positions 

Initializing position-dependent things.

Density initialized from wave functions
                                               
                                               
                                               
                                               
                                               
                                               
                                               
                          O                    
                        HC                     
                 Ru     Ou    Ru               
            Ru    RRu   CRRu    Ru             
                                               
             Ru     RRu    Ru     Ru           
               Ru     Ru    Ru                 
              Ru     Ru     Ru                 
                Ru     Ru    Ru                
                                               
           Ru    RRu    Ru     Ru              
            Ru     Ru    Ru                    
                                               
              Ru     Ru    Ru                  
                                               
                                               
                                               
                                               

Positions:
   0 Ru     0.000000    0.000000    9.999999    ( 0.0000,  0.0000,  0.0000)
   1 Ru     1.355017    0.782320   12.212733    ( 0.0000,  0.0000,  0.0000)
   2 Ru    -0.000592    1.565931   14.460333    ( 0.0000,  0.0000,  0.0000)
   3 Ru     2.706279    0.005437   16.590446    ( 0.0000,  0.0000,  0.0000)
   4 Ru    -1.355017    2.346959    9.999999    ( 0.0000,  0.0000,  0.0000)
   5 Ru    -0.000000    3.129279   12.212733    ( 0.0000,  0.0000,  0.0000)
   6 Ru    -1.357964    3.913688   14.456365    ( 0.0000,  0.0000,  0.0000)
   7 Ru     1.348615    2.347595   16.574505    ( 0.0000,  0.0000,  0.0000)
   8 Ru    -2.710035    4.693918    9.999999    ( 0.0000,  0.0000,  0.0000)
   9 Ru    -1.355017    5.476238   12.212733    ( 0.0000,  0.0000,  0.0000)
  10 Ru    -2.717813    6.249341   14.441863    ( 0.0000,  0.0000,  0.0000)
  11 Ru    -0.000012    4.683488   16.571945    ( 0.0000,  0.0000,  0.0000)
  12 Ru     2.710035    0.000000    9.999999    ( 0.0000,  0.0000,  0.0000)
  13 Ru     4.065052    0.782320   12.212733    ( 0.0000,  0.0000,  0.0000)
  14 Ru     2.705912    1.562299   14.449946    ( 0.0000,  0.0000,  0.0000)
  15 Ru     5.427619    0.005278   16.584659    ( 0.0000,  0.0000,  0.0000)
  16 Ru     1.355017    2.346959    9.999999    ( 0.0000,  0.0000,  0.0000)
  17 Ru     2.710035    3.129279   12.212733    ( 0.0000,  0.0000,  0.0000)
  18 Ru     1.357046    3.913942   14.455876    ( 0.0000,  0.0000,  0.0000)
  19 Ru     4.063793    2.376888   16.549377    ( 0.0000,  0.0000,  0.0000)
  20 Ru     0.000000    4.693918    9.999999    ( 0.0000,  0.0000,  0.0000)
  21 Ru     1.355017    5.476238   12.212733    ( 0.0000,  0.0000,  0.0000)
  22 Ru    -0.000519    6.258787   14.449002    ( 0.0000,  0.0000,  0.0000)
  23 Ru     2.708264    4.694931   16.574165    ( 0.0000,  0.0000,  0.0000)
  24 Ru     5.420070    0.000000    9.999999    ( 0.0000,  0.0000,  0.0000)
  25 Ru     6.775087    0.782320   12.212733    ( 0.0000,  0.0000,  0.0000)
  26 Ru     5.423382    1.561540   14.449486    ( 0.0000,  0.0000,  0.0000)
  27 Ru     8.130134    0.001267   16.570627    ( 0.0000,  0.0000,  0.0000)
  28 Ru     4.065052    2.346959    9.999999    ( 0.0000,  0.0000,  0.0000)
  29 Ru     5.420070    3.129279   12.212733    ( 0.0000,  0.0000,  0.0000)
  30 Ru     4.064637    3.922774   14.445637    ( 0.0000,  0.0000,  0.0000)
  31 Ru     6.782078    2.348348   16.574308    ( 0.0000,  0.0000,  0.0000)
  32 Ru     2.710035    4.693918    9.999999    ( 0.0000,  0.0000,  0.0000)
  33 Ru     4.065052    5.476238   12.212733    ( 0.0000,  0.0000,  0.0000)
  34 Ru     2.718958    6.248619   14.438960    ( 0.0000,  0.0000,  0.0000)
  35 Ru     5.421650    4.694766   16.574187    ( 0.0000,  0.0000,  0.0000)
  36 H      4.130186   -0.183512   19.982596    ( 0.0000,  0.0000,  0.0000)
  37 O      4.106452   -0.640700   19.101526    ( 0.0000,  0.0000,  0.0000)
  38 C      4.100924    0.336515   18.120683    ( 0.0000,  0.0000,  0.0000)
  39 C      4.051121    1.790917   18.498693    ( 0.0000,  0.0000,  0.0000)
  40 O      4.082900    2.349358   19.542646    ( 0.0000,  0.0000,  0.0000)

Unit cell:
           periodic     x           y           z      points  spacing
  1. axis:    yes    8.130105    0.000000    0.000000    40     0.1760
  2. axis:    yes   -4.065052    7.040877    0.000000    40     0.1760
  3. axis:    no     0.000000    0.000000   26.638201   148     0.1800

  Lengths:   8.130105   8.130105  26.638201
  Angles:   90.000000  90.000000 120.000000

Effective grid spacing dv^(1/3) = 0.1860

     iter     time        total  log10-change:
                         energy  eigst   dens
iter:   1 02:26:24 -5115.255297  -1.66
iter:   2 02:27:00 -5125.291716  -1.72  -2.14
iter:   3 02:27:35 -5119.659560  -1.76  -1.57
iter:   4 02:28:10 -5114.201690  -2.57  -1.70
iter:   5 02:28:46 -5114.103082  -3.10  -2.52
iter:   6 02:29:21 -5114.074650c -3.41  -2.78
iter:   7 02:29:57 -5114.054530c -3.22  -2.94
iter:   8 02:30:32 -5114.049637c -3.24  -3.02
iter:   9 02:31:07 -5114.151378c -3.51  -3.07
iter:  10 02:31:43 -5114.042389c -4.01  -2.53
iter:  11 02:32:18 -5114.040478c -4.46  -3.44
iter:  12 02:32:53 -5114.040440c -4.51  -3.56
iter:  13 02:33:29 -5114.040212c -4.78  -3.65
iter:  14 02:34:04 -5114.040649c -5.22  -3.84
iter:  15 02:34:39 -5114.040309c -5.61  -3.90
iter:  16 02:35:15 -5114.040718c -5.79  -4.03c
iter:  17 02:35:50 -5114.040555c -6.06  -3.96
iter:  18 02:36:26 -5114.040390c -6.43  -3.74
iter:  19 02:37:01 -5114.040343c -6.26  -4.15c
iter:  20 02:37:36 -5114.040359c -6.07  -4.21c
iter:  21 02:38:12 -5114.040451c -6.68  -4.42c
iter:  22 02:38:47 -5114.040388c -7.00  -4.52c
iter:  23 02:39:22 -5114.040454c -7.02  -4.52c
iter:  24 02:39:58 -5114.040432c -6.83  -4.66c
iter:  25 02:40:33 -5114.040387c -6.87  -4.59c
iter:  26 02:41:09 -5114.040410c -7.59c -4.38c

Converged after 26 iterations.

Dipole moment: (-3.166399, -10.042027, -0.038897) |e|*Ang

Energy contributions relative to reference atoms: (reference = -4442973.950380)

Kinetic:       +658.059585
Potential:     -744.156047
External:        +0.000000
XC:            -5020.758355
Entropy (-ST):   -1.951475
Local:           -6.209855
--------------------------
Free energy:   -5115.016147
Extrapolated:  -5114.040410

Showing only first 2 kpts
 Kpt  Band  Eigenvalues  Occupancy
  0   296     -5.31403    1.42686
  0   297     -5.27559    1.25791
  0   298     -5.22453    1.00854
  0   299     -5.19233    0.84874

  1   296     -5.20729    0.92251
  1   297     -5.19612    0.86730
  1   298     -5.15395    0.66864
  1   299     -5.13703    0.59556


Fermi level: -5.22282

No gap

Forces in eV/Ang:
  0 Ru   -0.00338   -0.00797    0.62136
  1 Ru    0.08251    0.04352   -0.76847
  2 Ru   -0.01676   -0.05814    0.07956
  3 Ru   -0.00745    0.19886    0.41700
  4 Ru    0.01054    0.01347    0.70767
  5 Ru    0.01060    0.00320   -0.67523
  6 Ru   -0.02757    0.08667    0.02005
  7 Ru   -0.15223    0.02618   -0.06631
  8 Ru   -0.01773   -0.00958    0.64427
  9 Ru    0.07194    0.00174   -0.71491
 10 Ru   -0.24451   -0.17390   -0.41792
 11 Ru    0.00090   -0.24880   -0.05930
 12 Ru   -0.04684   -0.03109    0.70044
 13 Ru    0.01735   -0.01133   -0.69162
 14 Ru   -0.04064   -0.07928   -0.16102
 15 Ru    0.09858    0.21221    0.29481
 16 Ru   -0.01851    0.01251    0.70701
 17 Ru    0.00589   -0.05947   -0.82614
 18 Ru   -0.00325    0.08792    0.00723
 19 Ru   -0.03153    0.40457    0.10143
 20 Ru   -0.00129   -0.00471    0.72600
 21 Ru   -0.05107    0.01031   -0.70063
 22 Ru   -0.01771   -0.00563   -0.12690
 23 Ru   -0.06811    0.06355   -0.10376
 24 Ru    0.04153   -0.03379    0.68919
 25 Ru   -0.05235    0.04101   -0.76411
 26 Ru    0.01418   -0.08965   -0.17028
 27 Ru    0.00609    0.03821   -0.08048
 28 Ru   -0.00434    0.07382    0.75841
 29 Ru    0.03444   -0.05076   -0.82940
 30 Ru   -0.01373    0.21801   -0.30640
 31 Ru    0.16937    0.04493   -0.07360
 32 Ru    0.01260   -0.00821    0.62969
 33 Ru    0.02897   -0.02126   -0.47028
 34 Ru    0.26069   -0.18504   -0.48257
 35 Ru    0.06408    0.06609   -0.09904
 36 H    -0.04528   -0.52051   -0.57514
 37 O     0.05981    0.58931    1.30021
 38 C    -0.27891    0.14706    0.55214
 39 C     0.22936   -1.47325   -1.89161
 40 O    -0.01094    0.76950    2.05560

BFGS:    2 02:41:26    -5114.040410        2.4086
System changes: positions 

Initializing position-dependent things.

Density initialized from wave functions
                                               
                                               
                                               
                                               
                                               
                                               
                                               
                          O                    
                        HC                     
                 Ru     Ou    Ru               
            Ru    RRu   CRRu    Ru             
                                               
             Ru     RRu    Ru     Ru           
               Ru     Ru    Ru                 
              Ru     Ru     Ru                 
                Ru     Ru    Ru                
                                               
           Ru    RRu    Ru     Ru              
            Ru     Ru     Ru                   
                                               
              Ru     Ru    Ru                  
                                               
                                               
                                               
                                               

Positions:
   0 Ru     0.000000    0.000000    9.999999    ( 0.0000,  0.0000,  0.0000)
   1 Ru     1.355017    0.782320   12.212733    ( 0.0000,  0.0000,  0.0000)
   2 Ru    -0.000961    1.564736   14.462257    ( 0.0000,  0.0000,  0.0000)
   3 Ru     2.705672    0.009753   16.599396    ( 0.0000,  0.0000,  0.0000)
   4 Ru    -1.355017    2.346959    9.999999    ( 0.0000,  0.0000,  0.0000)
   5 Ru    -0.000000    3.129279   12.212733    ( 0.0000,  0.0000,  0.0000)
   6 Ru    -1.358640    3.915563   14.456794    ( 0.0000,  0.0000,  0.0000)
   7 Ru     1.345171    2.348087   16.573129    ( 0.0000,  0.0000,  0.0000)
   8 Ru    -2.710035    4.693918    9.999999    ( 0.0000,  0.0000,  0.0000)
   9 Ru    -1.355017    5.476238   12.212733    ( 0.0000,  0.0000,  0.0000)
  10 Ru    -2.723383    6.245286   14.432718    ( 0.0000,  0.0000,  0.0000)
  11 Ru    -0.000000    4.677730   16.570457    ( 0.0000,  0.0000,  0.0000)
  12 Ru     2.710035    0.000000    9.999999    ( 0.0000,  0.0000,  0.0000)
  13 Ru     4.065052    0.782320   12.212733    ( 0.0000,  0.0000,  0.0000)
  14 Ru     2.704897    1.560762   14.446188    ( 0.0000,  0.0000,  0.0000)
  15 Ru     5.430270    0.009856   16.590750    ( 0.0000,  0.0000,  0.0000)
  16 Ru     1.355017    2.346959    9.999999    ( 0.0000,  0.0000,  0.0000)
  17 Ru     2.710035    3.129279   12.212733    ( 0.0000,  0.0000,  0.0000)
  18 Ru     1.357073    3.915875   14.456010    ( 0.0000,  0.0000,  0.0000)
  19 Ru     4.063035    2.387021   16.549254    ( 0.0000,  0.0000,  0.0000)
  20 Ru     0.000000    4.693918    9.999999    ( 0.0000,  0.0000,  0.0000)
  21 Ru     1.355017    5.476238   12.212733    ( 0.0000,  0.0000,  0.0000)
  22 Ru    -0.000892    6.258508   14.445918    ( 0.0000,  0.0000,  0.0000)
  23 Ru     2.706887    4.696174   16.572074    ( 0.0000,  0.0000,  0.0000)
  24 Ru     5.420070    0.000000    9.999999    ( 0.0000,  0.0000,  0.0000)
  25 Ru     6.775087    0.782320   12.212733    ( 0.0000,  0.0000,  0.0000)
  26 Ru     5.423830    1.559721   14.445516    ( 0.0000,  0.0000,  0.0000)
  27 Ru     8.130244    0.002105   16.568917    ( 0.0000,  0.0000,  0.0000)
  28 Ru     4.065052    2.346959    9.999999    ( 0.0000,  0.0000,  0.0000)
  29 Ru     5.420070    3.129279   12.212733    ( 0.0000,  0.0000,  0.0000)
  30 Ru     4.064348    3.927688   14.438884    ( 0.0000,  0.0000,  0.0000)
  31 Ru     6.785908    2.349272   16.572778    ( 0.0000,  0.0000,  0.0000)
  32 Ru     2.710035    4.693918    9.999999    ( 0.0000,  0.0000,  0.0000)
  33 Ru     4.065052    5.476238   12.212733    ( 0.0000,  0.0000,  0.0000)
  34 Ru     2.724959    6.244272   14.428309    ( 0.0000,  0.0000,  0.0000)
  35 Ru     5.422939    4.696036   16.572176    ( 0.0000,  0.0000,  0.0000)
  36 H      4.129067   -0.195525   19.967770    ( 0.0000,  0.0000,  0.0000)
  37 O      4.107818   -0.632804   19.138591    ( 0.0000,  0.0000,  0.0000)
  38 C      4.094852    0.347864   18.127425    ( 0.0000,  0.0000,  0.0000)
  39 C      4.056889    1.767477   18.481611    ( 0.0000,  0.0000,  0.0000)
  40 O      4.081806    2.354161   19.564820    ( 0.0000,  0.0000,  0.0000)

Unit cell:
           periodic     x           y           z      points  spacing
  1. axis:    yes    8.130105    0.000000    0.000000    40     0.1760
  2. axis:    yes   -4.065052    7.040877    0.000000    40     0.1760
  3. axis:    no     0.000000    0.000000   26.638201   148     0.1800

  Lengths:   8.130105   8.130105  26.638201
  Angles:   90.000000  90.000000 120.000000

Effective grid spacing dv^(1/3) = 0.1860

     iter     time        total  log10-change:
                         energy  eigst   dens
iter:   1 02:43:11 -5115.009799  -1.68
iter:   2 02:43:47 -5130.748202  -1.71  -2.13
iter:   3 02:44:23 -5114.329029  -2.07  -1.47
iter:   4 02:44:59 -5114.220955  -2.86  -2.49
iter:   5 02:45:35 -5114.156043c -2.92  -2.66
iter:   6 02:46:10 -5114.123241c -3.44  -2.72
iter:   7 02:46:46 -5114.107339c -3.67  -2.87
iter:   8 02:47:22 -5114.101692c -3.56  -3.21
iter:   9 02:47:57 -5114.102490c -3.78  -3.39
iter:  10 02:48:33 -5114.099178c -4.05  -3.24
iter:  11 02:49:09 -5114.098114c -4.43  -3.45
iter:  12 02:49:44 -5114.097842c -5.11  -3.71
iter:  13 02:50:20 -5114.098433c -5.56  -3.73
iter:  14 02:50:56 -5114.097950c -5.62  -3.74
iter:  15 02:51:31 -5114.098081c -5.71  -3.96
iter:  16 02:52:07 -5114.098120c -6.12  -4.13c
iter:  17 02:52:43 -5114.098202c -6.13  -4.04c
iter:  18 02:53:18 -5114.098024c -6.48  -3.90
iter:  19 02:53:54 -5114.098142c -6.76  -4.30c
iter:  20 02:54:30 -5114.097959c -6.66  -4.32c
iter:  21 02:55:05 -5114.098093c -6.64  -4.31c
iter:  22 02:55:41 -5114.098075c -6.79  -4.55c
iter:  23 02:56:17 -5114.098074c -7.11  -4.81c
iter:  24 02:56:52 -5114.098065c -7.54c -4.58c

Converged after 24 iterations.

Dipole moment: (-3.448302, -10.316411, -0.157742) |e|*Ang

Energy contributions relative to reference atoms: (reference = -4442973.950380)

Kinetic:       +655.856145
Potential:     -742.182909
External:        +0.000000
XC:            -5020.577433
Entropy (-ST):   -1.947235
Local:           -6.220251
--------------------------
Free energy:   -5115.071683
Extrapolated:  -5114.098065

Showing only first 2 kpts
 Kpt  Band  Eigenvalues  Occupancy
  0   296     -5.43156    1.43046
  0   297     -5.39712    1.28055
  0   298     -5.34257    1.01552
  0   299     -5.30502    0.82945

  1   296     -5.31929    0.89948
  1   297     -5.31272    0.86708
  1   298     -5.26831    0.65852
  1   299     -5.25503    0.60124


Fermi level: -5.33946

No gap

Forces in eV/Ang:
  0 Ru   -0.00328   -0.01624    0.60521
  1 Ru    0.08710    0.05499   -0.77938
  2 Ru   -0.01332   -0.03298    0.06331
  3 Ru   -0.00279    0.14951    0.31168
  4 Ru    0.01328    0.01775    0.70464
  5 Ru    0.00917    0.00146   -0.68973
  6 Ru   -0.02061    0.07399    0.01794
  7 Ru   -0.11719    0.02201   -0.07496
  8 Ru   -0.01466   -0.01075    0.62372
  9 Ru    0.08114    0.00309   -0.71638
 10 Ru   -0.16914   -0.12147   -0.30964
 11 Ru    0.00239   -0.15933   -0.04952
 12 Ru   -0.05288   -0.03402    0.69635
 13 Ru    0.01656   -0.00752   -0.67771
 14 Ru   -0.00257   -0.06648   -0.07914
 15 Ru    0.05343    0.16295    0.24569
 16 Ru   -0.02268    0.01588    0.70354
 17 Ru    0.00052   -0.07666   -0.83132
 18 Ru   -0.00832    0.07057    0.01205
 19 Ru   -0.01111    0.30865    0.10419
 20 Ru   -0.00193   -0.01415    0.72081
 21 Ru   -0.06153    0.01366   -0.70305
 22 Ru   -0.01694    0.01906   -0.05091
 23 Ru   -0.06494    0.07172   -0.11884
 24 Ru    0.04799   -0.03589    0.68595
 25 Ru   -0.05626    0.05315   -0.77501
 26 Ru   -0.02150   -0.06702   -0.08506
 27 Ru    0.00705    0.02615   -0.08800
 28 Ru   -0.00473    0.08200    0.75476
 29 Ru    0.04192   -0.06511   -0.83900
 30 Ru   -0.01247    0.20779   -0.34646
 31 Ru    0.12710    0.03152   -0.07996
 32 Ru    0.01237   -0.00829    0.61079
 33 Ru    0.02960   -0.02431   -0.49893
 34 Ru    0.17274   -0.12439   -0.35287
 35 Ru    0.06057    0.07875   -0.10931
 36 H     0.01229    0.78870    1.76797
 37 O    -0.01276   -0.37893   -1.57088
 38 C    -0.19103   -0.65029    0.92139
 39 C     0.21505    0.42604    1.10954
 40 O    -0.08206   -0.73682   -0.87603

BFGS:    3 02:57:10    -5114.098065        1.9360
System changes: positions 

Initializing position-dependent things.

Density initialized from wave functions
                                               
                                               
                                               
                                               
                                               
                                               
                                               
                          O                    
                        HC                     
                 Ru     Ou    Ru               
            Ru    RRu   CRRu    Ru             
                                               
             Ru     RRu    Ru     Ru           
               Ru     Ru    Ru                 
              Ru     Ru     Ru                 
                Ru     Ru    Ru                
                                               
           Ru    RRu    Ru     Ru              
            Ru     Ru     Ru                   
                                               
              Ru     Ru    Ru                  
                                               
                                               
                                               
                                               

Positions:
   0 Ru     0.000000    0.000000    9.999999    ( 0.0000,  0.0000,  0.0000)
   1 Ru     1.355017    0.782320   12.212733    ( 0.0000,  0.0000,  0.0000)
   2 Ru    -0.001110    1.564336   14.462953    ( 0.0000,  0.0000,  0.0000)
   3 Ru     2.705659    0.011457   16.602906    ( 0.0000,  0.0000,  0.0000)
   4 Ru    -1.355017    2.346959    9.999999    ( 0.0000,  0.0000,  0.0000)
   5 Ru    -0.000000    3.129279   12.212733    ( 0.0000,  0.0000,  0.0000)
   6 Ru    -1.358867    3.916380   14.456989    ( 0.0000,  0.0000,  0.0000)
   7 Ru     1.343864    2.348333   16.572334    ( 0.0000,  0.0000,  0.0000)
   8 Ru    -2.710035    4.693918    9.999999    ( 0.0000,  0.0000,  0.0000)
   9 Ru    -1.355017    5.476238   12.212733    ( 0.0000,  0.0000,  0.0000)
  10 Ru    -2.725314    6.243910   14.429213    ( 0.0000,  0.0000,  0.0000)
  11 Ru     0.000024    4.675883   16.569910    ( 0.0000,  0.0000,  0.0000)
  12 Ru     2.710035    0.000000    9.999999    ( 0.0000,  0.0000,  0.0000)
  13 Ru     4.065052    0.782320   12.212733    ( 0.0000,  0.0000,  0.0000)
  14 Ru     2.704816    1.560018   14.445224    ( 0.0000,  0.0000,  0.0000)
  15 Ru     5.430882    0.011712   16.593476    ( 0.0000,  0.0000,  0.0000)
  16 Ru     1.355017    2.346959    9.999999    ( 0.0000,  0.0000,  0.0000)
  17 Ru     2.710035    3.129279   12.212733    ( 0.0000,  0.0000,  0.0000)
  18 Ru     1.356985    3.916661   14.456131    ( 0.0000,  0.0000,  0.0000)
  19 Ru     4.062882    2.390341   16.550664    ( 0.0000,  0.0000,  0.0000)
  20 Ru     0.000000    4.693918    9.999999    ( 0.0000,  0.0000,  0.0000)
  21 Ru     1.355017    5.476238   12.212733    ( 0.0000,  0.0000,  0.0000)
  22 Ru    -0.001076    6.258682   14.445268    ( 0.0000,  0.0000,  0.0000)
  23 Ru     2.706177    4.696940   16.570808    ( 0.0000,  0.0000,  0.0000)
  24 Ru     5.420070    0.000000    9.999999    ( 0.0000,  0.0000,  0.0000)
  25 Ru     6.775087    0.782320   12.212733    ( 0.0000,  0.0000,  0.0000)
  26 Ru     5.423647    1.558959   14.444485    ( 0.0000,  0.0000,  0.0000)
  27 Ru     8.130320    0.002406   16.567982    ( 0.0000,  0.0000,  0.0000)
  28 Ru     4.065052    2.346959    9.999999    ( 0.0000,  0.0000,  0.0000)
  29 Ru     5.420070    3.129279   12.212733    ( 0.0000,  0.0000,  0.0000)
  30 Ru     4.064211    3.929934   14.435218    ( 0.0000,  0.0000,  0.0000)
  31 Ru     6.787333    2.349634   16.571924    ( 0.0000,  0.0000,  0.0000)
  32 Ru     2.710035    4.693918    9.999999    ( 0.0000,  0.0000,  0.0000)
  33 Ru     4.065052    5.476238   12.212733    ( 0.0000,  0.0000,  0.0000)
  34 Ru     2.726944    6.242854   14.424308    ( 0.0000,  0.0000,  0.0000)
  35 Ru     5.423603    4.696872   16.571006    ( 0.0000,  0.0000,  0.0000)
  36 H      4.129072   -0.189802   19.981770    ( 0.0000,  0.0000,  0.0000)
  37 O      4.107838   -0.634592   19.127616    ( 0.0000,  0.0000,  0.0000)
  38 C      4.092670    0.341945   18.136710    ( 0.0000,  0.0000,  0.0000)
  39 C      4.059203    1.769028   18.487947    ( 0.0000,  0.0000,  0.0000)
  40 O      4.081066    2.348836   19.560633    ( 0.0000,  0.0000,  0.0000)

Unit cell:
           periodic     x           y           z      points  spacing
  1. axis:    yes    8.130105    0.000000    0.000000    40     0.1760
  2. axis:    yes   -4.065052    7.040877    0.000000    40     0.1760
  3. axis:    no     0.000000    0.000000   26.638201   148     0.1800

  Lengths:   8.130105   8.130105  26.638201
  Angles:   90.000000  90.000000 120.000000

Effective grid spacing dv^(1/3) = 0.1860

     iter     time        total  log10-change:
                         energy  eigst   dens
iter:   1 02:58:55 -5114.272364  -2.60
iter:   2 02:59:31 -5116.607354  -2.57  -2.55
iter:   3 03:00:07 -5114.171889  -3.04  -1.87
iter:   4 03:00:42 -5114.166416  -3.69  -3.13
iter:   5 03:01:18 -5114.163155c -4.19  -3.06
iter:   6 03:01:54 -5114.159869c -4.29  -3.30
iter:   7 03:02:29 -5114.159642c -4.41  -3.51
iter:   8 03:03:05 -5114.157385c -4.35  -3.38
iter:   9 03:03:41 -5114.157380c -4.86  -3.82
iter:  10 03:04:16 -5114.157265c -5.18  -3.89
iter:  11 03:04:52 -5114.157276c -5.44  -3.89
iter:  12 03:05:27 -5114.157217c -6.17  -4.29c
iter:  13 03:06:03 -5114.157387c -6.58  -4.32c
iter:  14 03:06:38 -5114.157198c -6.47  -4.29c
iter:  15 03:07:14 -5114.157272c -6.71  -4.42c
iter:  16 03:07:49 -5114.157262c -7.04  -4.71c
iter:  17 03:08:25 -5114.157285c -7.22  -4.44c
iter:  18 03:09:00 -5114.157270c -7.50c -4.56c

Converged after 18 iterations.

Dipole moment: (-3.428139, -10.624627, -0.116276) |e|*Ang

Energy contributions relative to reference atoms: (reference = -4442973.950380)

Kinetic:       +655.717760
Potential:     -742.170588
External:        +0.000000
XC:            -5020.517748
Entropy (-ST):   -1.945416
Local:           -6.213986
--------------------------
Free energy:   -5115.129978
Extrapolated:  -5114.157270

Showing only first 2 kpts
 Kpt  Band  Eigenvalues  Occupancy
  0   296     -5.39208    1.43108
  0   297     -5.35921    1.28846
  0   298     -5.30321    1.01688
  0   299     -5.26418    0.82360

  1   296     -5.27862    0.89429
  1   297     -5.27246    0.86397
  1   298     -5.22765    0.65394
  1   299     -5.21607    0.60406


Fermi level: -5.29984

No gap

Forces in eV/Ang:
  0 Ru   -0.00322   -0.01391    0.59861
  1 Ru    0.08863    0.05810   -0.78058
  2 Ru   -0.01218   -0.02726    0.04868
  3 Ru    0.00120    0.13591    0.29165
  4 Ru    0.01537    0.01944    0.70150
  5 Ru    0.00856    0.00131   -0.69442
  6 Ru   -0.01842    0.06645    0.00808
  7 Ru   -0.10827    0.02139   -0.06966
  8 Ru   -0.01115   -0.01278    0.61681
  9 Ru    0.08353    0.00263   -0.71531
 10 Ru   -0.14427   -0.09909   -0.28117
 11 Ru    0.00237   -0.14230   -0.04675
 12 Ru   -0.05482   -0.03473    0.69477
 13 Ru    0.01643   -0.00617   -0.67055
 14 Ru    0.00749   -0.05980   -0.06517
 15 Ru    0.03259    0.15488    0.24620
 16 Ru   -0.02529    0.01720    0.70048
 17 Ru   -0.00151   -0.07921   -0.83069
 18 Ru   -0.00911    0.06223    0.00349
 19 Ru   -0.00724    0.27560    0.12966
 20 Ru   -0.00208   -0.01782    0.71757
 21 Ru   -0.06432    0.01330   -0.70171
 22 Ru   -0.01609    0.02787   -0.04235
 23 Ru   -0.05981    0.07044   -0.11650
 24 Ru    0.04989   -0.03644    0.68437
 25 Ru   -0.05782    0.05628   -0.77606
 26 Ru   -0.03009   -0.05865   -0.06966
 27 Ru    0.00689    0.02589   -0.08012
 28 Ru   -0.00464    0.08328    0.75348
 29 Ru    0.04446   -0.06710   -0.84013
 30 Ru   -0.01200    0.17672   -0.32361
 31 Ru    0.11667    0.02842   -0.07354
 32 Ru    0.00951   -0.00989    0.60420
 33 Ru    0.02966   -0.02397   -0.50079
 34 Ru    0.14203   -0.09966   -0.31660
 35 Ru    0.05580    0.07872   -0.10519
 36 H    -0.01648    0.11644    0.56731
 37 O     0.01951    0.08335    0.00006
 38 C    -0.16165   -0.35731    0.51217
 39 C     0.18151   -0.02217    0.35630
 40 O    -0.06484   -0.34369   -0.13872

BFGS:    4 03:09:18    -5114.157270        0.6451
System changes: positions 

Initializing position-dependent things.

Density initialized from wave functions
                                                
                                                
                                                
                                                
                                                
                                                
                                                
                          O                     
                         HC                     
                 Ru     Ou     Ru               
                  RRu    CRu     Ru             
            Ru           Ru                     
              Ru    RRu    RRu     Ru           
               Ru     Ru     Ru                 
               Ru    Ru     Ru                  
                Ru     Ru     Ru                
                                                
           Ru    RRu    RRu     Ru              
             Ru    Ru     Ru                    
                                                
              Ru     Ru     Ru                  
                                                
                                                
                                                
                                                

Positions:
   0 Ru     0.000000    0.000000    9.999999    ( 0.0000,  0.0000,  0.0000)
   1 Ru     1.355017    0.782320   12.212733    ( 0.0000,  0.0000,  0.0000)
   2 Ru    -0.001581    1.563135   14.465058    ( 0.0000,  0.0000,  0.0000)
   3 Ru     2.705433    0.016794   16.614179    ( 0.0000,  0.0000,  0.0000)
   4 Ru    -1.355017    2.346959    9.999999    ( 0.0000,  0.0000,  0.0000)
   5 Ru    -0.000000    3.129279   12.212733    ( 0.0000,  0.0000,  0.0000)
   6 Ru    -1.359627    3.918907   14.457415    ( 0.0000,  0.0000,  0.0000)
   7 Ru     1.339619    2.349093   16.569915    ( 0.0000,  0.0000,  0.0000)
   8 Ru    -2.710035    4.693918    9.999999    ( 0.0000,  0.0000,  0.0000)
   9 Ru    -1.355017    5.476238   12.212733    ( 0.0000,  0.0000,  0.0000)
  10 Ru    -2.731399    6.239617   14.418097    ( 0.0000,  0.0000,  0.0000)
  11 Ru     0.000092    4.669819   16.568073    ( 0.0000,  0.0000,  0.0000)
  12 Ru     2.710035    0.000000    9.999999    ( 0.0000,  0.0000,  0.0000)
  13 Ru     4.065052    0.782320   12.212733    ( 0.0000,  0.0000,  0.0000)
  14 Ru     2.704595    1.557807   14.442008    ( 0.0000,  0.0000,  0.0000)
  15 Ru     5.432857    0.017631   16.602363    ( 0.0000,  0.0000,  0.0000)
  16 Ru     1.355017    2.346959    9.999999    ( 0.0000,  0.0000,  0.0000)
  17 Ru     2.710035    3.129279   12.212733    ( 0.0000,  0.0000,  0.0000)
  18 Ru     1.356755    3.919099   14.456318    ( 0.0000,  0.0000,  0.0000)
  19 Ru     4.062387    2.401719   16.553960    ( 0.0000,  0.0000,  0.0000)
  20 Ru     0.000000    4.693918    9.999999    ( 0.0000,  0.0000,  0.0000)
  21 Ru     1.355017    5.476238   12.212733    ( 0.0000,  0.0000,  0.0000)
  22 Ru    -0.001653    6.259287   14.442941    ( 0.0000,  0.0000,  0.0000)
  23 Ru     2.704028    4.699308   16.566874    ( 0.0000,  0.0000,  0.0000)
  24 Ru     5.420070    0.000000    9.999999    ( 0.0000,  0.0000,  0.0000)
  25 Ru     6.775087    0.782320   12.212733    ( 0.0000,  0.0000,  0.0000)
  26 Ru     5.423041    1.556667   14.441061    ( 0.0000,  0.0000,  0.0000)
  27 Ru     8.130548    0.003415   16.565143    ( 0.0000,  0.0000,  0.0000)
  28 Ru     4.065052    2.346959    9.999999    ( 0.0000,  0.0000,  0.0000)
  29 Ru     5.420070    3.129279   12.212733    ( 0.0000,  0.0000,  0.0000)
  30 Ru     4.063778    3.936693   14.423839    ( 0.0000,  0.0000,  0.0000)
  31 Ru     6.791955    2.350756   16.569338    ( 0.0000,  0.0000,  0.0000)
  32 Ru     2.710035    4.693918    9.999999    ( 0.0000,  0.0000,  0.0000)
  33 Ru     4.065052    5.476238   12.212733    ( 0.0000,  0.0000,  0.0000)
  34 Ru     2.733157    6.238425   14.411638    ( 0.0000,  0.0000,  0.0000)
  35 Ru     5.425608    4.699468   16.567398    ( 0.0000,  0.0000,  0.0000)
  36 H      4.128350   -0.187730   19.997571    ( 0.0000,  0.0000,  0.0000)
  37 O      4.108712   -0.631940   19.133794    ( 0.0000,  0.0000,  0.0000)
  38 C      4.085923    0.335236   18.154889    ( 0.0000,  0.0000,  0.0000)
  39 C      4.066445    1.762752   18.496535    ( 0.0000,  0.0000,  0.0000)
  40 O      4.078774    2.338548   19.559916    ( 0.0000,  0.0000,  0.0000)

Unit cell:
           periodic     x           y           z      points  spacing
  1. axis:    yes    8.130105    0.000000    0.000000    40     0.1760
  2. axis:    yes   -4.065052    7.040877    0.000000    40     0.1760
  3. axis:    no     0.000000    0.000000   26.638201   148     0.1800

  Lengths:   8.130105   8.130105  26.638201
  Angles:   90.000000  90.000000 120.000000

Effective grid spacing dv^(1/3) = 0.1860

     iter     time        total  log10-change:
                         energy  eigst   dens
iter:   1 03:11:04 -5114.527307  -2.09
iter:   2 03:11:40 -5119.820816  -2.18  -2.34
iter:   3 03:12:15 -5114.226040  -2.66  -1.70
iter:   4 03:12:51 -5114.216495  -3.33  -2.99
iter:   5 03:13:26 -5114.212392c -3.91  -2.94
iter:   6 03:14:02 -5114.209987c -4.28  -3.14
iter:   7 03:14:38 -5114.210169c -4.64  -3.19
iter:   8 03:15:13 -5114.208633c -4.20  -3.18
iter:   9 03:15:49 -5114.207088c -4.80  -3.28
iter:  10 03:16:24 -5114.205589c -5.10  -3.45
iter:  11 03:17:00 -5114.205718c -5.84  -3.80
iter:  12 03:17:35 -5114.205332c -5.77  -3.89
iter:  13 03:18:11 -5114.205563c -5.54  -3.90
iter:  14 03:18:47 -5114.205522c -6.31  -4.17c
iter:  15 03:19:22 -5114.205496c -6.62  -4.26c
iter:  16 03:19:58 -5114.205540c -7.10  -4.20c
iter:  17 03:20:33 -5114.205493c -6.80  -4.30c
iter:  18 03:21:09 -5114.205526c -6.96  -4.43c
iter:  19 03:21:44 -5114.205504c -7.43c -4.62c

Converged after 19 iterations.

Dipole moment: (-3.535621, -11.331761, -0.087874) |e|*Ang

Energy contributions relative to reference atoms: (reference = -4442973.950380)

Kinetic:       +656.024049
Potential:     -742.430726
External:        +0.000000
XC:            -5020.625912
Entropy (-ST):   -1.939505
Local:           -6.203163
--------------------------
Free energy:   -5115.175257
Extrapolated:  -5114.205504

Showing only first 2 kpts
 Kpt  Band  Eigenvalues  Occupancy
  0   296     -5.36709    1.43139
  0   297     -5.34033    1.31654
  0   298     -5.27931    1.02268
  0   299     -5.23517    0.80452

  1   296     -5.25254    0.88929
  1   297     -5.24322    0.84355
  1   298     -5.19987    0.64205
  1   299     -5.19214    0.60884


Fermi level: -5.27477

No gap

Forces in eV/Ang:
  0 Ru   -0.00316   -0.01182    0.57515
  1 Ru    0.09547    0.07629   -0.79150
  2 Ru   -0.00822   -0.00800    0.00999
  3 Ru    0.00373    0.09226    0.19441
  4 Ru    0.02090    0.02356    0.69226
  5 Ru    0.00671   -0.00174   -0.71182
  6 Ru   -0.01059    0.04534   -0.00430
  7 Ru   -0.05526    0.01543   -0.05818
  8 Ru   -0.00378   -0.01627    0.59231
  9 Ru    0.09802    0.00128   -0.71991
 10 Ru   -0.04530   -0.02491   -0.16343
 11 Ru    0.00290   -0.06841   -0.04157
 12 Ru   -0.06106   -0.03719    0.68780
 13 Ru    0.01583   -0.00063   -0.65151
 14 Ru    0.04394   -0.04472    0.00748
 15 Ru   -0.01224    0.11734    0.20148
 16 Ru   -0.03281    0.02023    0.69111
 17 Ru   -0.01129   -0.09724   -0.83469
 18 Ru   -0.01389    0.03846   -0.00402
 19 Ru    0.00977    0.15518    0.18271
 20 Ru   -0.00282   -0.02818    0.70753
 21 Ru   -0.08061    0.01306   -0.70659
 22 Ru   -0.01435    0.05929    0.02504
 23 Ru   -0.04786    0.07232   -0.11522
 24 Ru    0.05621   -0.03814    0.67798
 25 Ru   -0.06455    0.07524   -0.78720
 26 Ru   -0.06246   -0.03632    0.00636
 27 Ru    0.00700    0.01224   -0.06484
 28 Ru   -0.00458    0.08851    0.74768
 29 Ru    0.05642   -0.08275   -0.84901
 30 Ru   -0.00984    0.08802   -0.25989
 31 Ru    0.05755    0.01556   -0.05817
 32 Ru    0.00441   -0.01223    0.58112
 33 Ru    0.03029   -0.02485   -0.54062
 34 Ru    0.02364   -0.01761   -0.17570
 35 Ru    0.04358    0.08393   -0.10098
 36 H    -0.01963   -0.06829    0.23187
 37 O     0.01886    0.01303    0.64104
 38 C    -0.08834   -0.18109    0.01351
 39 C     0.08450   -0.27975   -0.32097
 40 O    -0.03685    0.00785    0.54287

BFGS:    5 03:22:02    -5114.205504        0.6415
System changes: positions 

Initializing position-dependent things.

Density initialized from wave functions
                                                
                                                
                                                
                                                
                                                
                                                
                                                
                          O                     
                         HC                     
                 Ru     Ou     Ru               
                   Ru    CRu     Ru             
            Ru           Ru                     
              Ru    RRu    RRu     Ru           
               Ru                               
               Ru    RRu    RRu                 
                Ru     Ru     Ru                
                                                
           Ru     Ru    RRu     Ru              
             Ru    Ru     Ru                    
                                                
              Ru     Ru     Ru                  
                                                
                                                
                                                
                                                

Positions:
   0 Ru     0.000000    0.000000    9.999999    ( 0.0000,  0.0000,  0.0000)
   1 Ru     1.355017    0.782320   12.212733    ( 0.0000,  0.0000,  0.0000)
   2 Ru    -0.002329    1.561499   14.467871    ( 0.0000,  0.0000,  0.0000)
   3 Ru     2.705074    0.025284   16.631946    ( 0.0000,  0.0000,  0.0000)
   4 Ru    -1.355017    2.346959    9.999999    ( 0.0000,  0.0000,  0.0000)
   5 Ru    -0.000000    3.129279   12.212733    ( 0.0000,  0.0000,  0.0000)
   6 Ru    -1.360797    3.922937   14.457874    ( 0.0000,  0.0000,  0.0000)
   7 Ru     1.333337    2.350310   16.565789    ( 0.0000,  0.0000,  0.0000)
   8 Ru    -2.710035    4.693918    9.999999    ( 0.0000,  0.0000,  0.0000)
   9 Ru    -1.355017    5.476238   12.212733    ( 0.0000,  0.0000,  0.0000)
  10 Ru    -2.739768    6.233814   14.401134    ( 0.0000,  0.0000,  0.0000)
  11 Ru     0.000234    4.660868   16.564872    ( 0.0000,  0.0000,  0.0000)
  12 Ru     2.710035    0.000000    9.999999    ( 0.0000,  0.0000,  0.0000)
  13 Ru     4.065052    0.782320   12.212733    ( 0.0000,  0.0000,  0.0000)
  14 Ru     2.705209    1.554204   14.438202    ( 0.0000,  0.0000,  0.0000)
  15 Ru     5.435227    0.027335   16.617247    ( 0.0000,  0.0000,  0.0000)
  16 Ru     1.355017    2.346959    9.999999    ( 0.0000,  0.0000,  0.0000)
  17 Ru     2.710035    3.129279   12.212733    ( 0.0000,  0.0000,  0.0000)
  18 Ru     1.356204    3.922891   14.456481    ( 0.0000,  0.0000,  0.0000)
  19 Ru     4.061963    2.419143   16.561286    ( 0.0000,  0.0000,  0.0000)
  20 Ru     0.000000    4.693918    9.999999    ( 0.0000,  0.0000,  0.0000)
  21 Ru     1.355017    5.476238   12.212733    ( 0.0000,  0.0000,  0.0000)
  22 Ru    -0.002657    6.261245   14.440608    ( 0.0000,  0.0000,  0.0000)
  23 Ru     2.700433    4.703682   16.559716    ( 0.0000,  0.0000,  0.0000)
  24 Ru     5.420070    0.000000    9.999999    ( 0.0000,  0.0000,  0.0000)
  25 Ru     6.775087    0.782320   12.212733    ( 0.0000,  0.0000,  0.0000)
  26 Ru     5.421030    1.553121   14.436972    ( 0.0000,  0.0000,  0.0000)
  27 Ru     8.130966    0.004871   16.560351    ( 0.0000,  0.0000,  0.0000)
  28 Ru     4.065052    2.346959    9.999999    ( 0.0000,  0.0000,  0.0000)
  29 Ru     5.420070    3.129279   12.212733    ( 0.0000,  0.0000,  0.0000)
  30 Ru     4.063049    3.946704   14.404671    ( 0.0000,  0.0000,  0.0000)
  31 Ru     6.798750    2.352434   16.565014    ( 0.0000,  0.0000,  0.0000)
  32 Ru     2.710035    4.693918    9.999999    ( 0.0000,  0.0000,  0.0000)
  33 Ru     4.065052    5.476238   12.212733    ( 0.0000,  0.0000,  0.0000)
  34 Ru     2.741237    6.232594   14.392482    ( 0.0000,  0.0000,  0.0000)
  35 Ru     5.428935    4.704350   16.560919    ( 0.0000,  0.0000,  0.0000)
  36 H      4.127099   -0.185264   20.023780    ( 0.0000,  0.0000,  0.0000)
  37 O      4.110099   -0.631727   19.154289    ( 0.0000,  0.0000,  0.0000)
  38 C      4.075711    0.325877   18.176015    ( 0.0000,  0.0000,  0.0000)
  39 C      4.077140    1.749783   18.503023    ( 0.0000,  0.0000,  0.0000)
  40 O      4.075120    2.324633   19.568041    ( 0.0000,  0.0000,  0.0000)

Unit cell:
           periodic     x           y           z      points  spacing
  1. axis:    yes    8.130105    0.000000    0.000000    40     0.1760
  2. axis:    yes   -4.065052    7.040877    0.000000    40     0.1760
  3. axis:    no     0.000000    0.000000   26.638201   148     0.1800

  Lengths:   8.130105   8.130105  26.638201
  Angles:   90.000000  90.000000 120.000000

Effective grid spacing dv^(1/3) = 0.1860

     iter     time        total  log10-change:
                         energy  eigst   dens
iter:   1 03:23:47 -5115.583779  -1.75
iter:   2 03:24:23 -5143.377008  -1.47  -2.03
iter:   3 03:24:59 -5114.269621  -1.94  -1.35
iter:   4 03:25:35 -5114.273887  -2.68  -2.84
iter:   5 03:26:10 -5114.258935c -3.49  -2.84
iter:   6 03:26:46 -5114.260489c -3.98  -3.09
iter:   7 03:27:22 -5114.254099c -4.02  -3.08
iter:   8 03:27:57 -5114.253307c -4.20  -3.34
iter:   9 03:28:33 -5114.253000c -4.82  -3.56
iter:  10 03:29:09 -5114.253578c -5.24  -3.62
iter:  11 03:29:44 -5114.253090c -5.59  -3.47
iter:  12 03:30:20 -5114.252610c -5.54  -3.66
iter:  13 03:30:55 -5114.252984c -5.60  -3.74
iter:  14 03:31:31 -5114.252909c -6.11  -3.88
iter:  15 03:32:07 -5114.253002c -5.93  -3.90
iter:  16 03:32:42 -5114.253011c -6.04  -4.04c
iter:  17 03:33:18 -5114.252943c -6.13  -4.15c
iter:  18 03:33:53 -5114.252946c -6.85  -3.99
iter:  19 03:34:29 -5114.252908c -7.54c -4.56c

Converged after 19 iterations.

Dipole moment: (-3.694272, -12.442899, -0.088438) |e|*Ang

Energy contributions relative to reference atoms: (reference = -4442973.950380)

Kinetic:       +655.375249
Potential:     -741.905932
External:        +0.000000
XC:            -5020.545999
Entropy (-ST):   -1.928792
Local:           -6.211830
--------------------------
Free energy:   -5115.217304
Extrapolated:  -5114.252908

Showing only first 2 kpts
 Kpt  Band  Eigenvalues  Occupancy
  0   296     -5.36861    1.42684
  0   297     -5.35290    1.36053
  0   298     -5.28381    1.03201
  0   299     -5.23262    0.77975

  1   296     -5.25645    0.89560
  1   297     -5.23749    0.80302
  1   298     -5.20218    0.64065
  1   299     -5.19150    0.59508


Fermi level: -5.27740

No gap

Forces in eV/Ang:
  0 Ru   -0.00340   -0.00661    0.54591
  1 Ru    0.10491    0.10035   -0.80556
  2 Ru   -0.00323    0.01945   -0.04655
  3 Ru   -0.02716    0.00473    0.05164
  4 Ru    0.03094    0.02978    0.68123
  5 Ru    0.00427   -0.00496   -0.74192
  6 Ru    0.00086    0.01167   -0.02726
  7 Ru    0.01065    0.01046   -0.04162
  8 Ru    0.00808   -0.02181    0.56255
  9 Ru    0.11770   -0.00038   -0.72310
 10 Ru    0.09013    0.07461   -0.01044
 11 Ru    0.00276    0.03851   -0.01545
 12 Ru   -0.07025   -0.04029    0.68338
 13 Ru    0.01533    0.00548   -0.62387
 14 Ru    0.07815   -0.00442    0.09384
 15 Ru   -0.03545    0.02996    0.12159
 16 Ru   -0.04610    0.02531    0.68014
 17 Ru   -0.02382   -0.12052   -0.83779
 18 Ru   -0.01870    0.00287   -0.02040
 19 Ru    0.03202    0.02465    0.23550
 20 Ru   -0.00401   -0.04571    0.69621
 21 Ru   -0.10314    0.01341   -0.71074
 22 Ru   -0.01006    0.08290    0.09509
 23 Ru   -0.02296    0.07050   -0.10859
 24 Ru    0.06572   -0.04027    0.67453
 25 Ru   -0.07378    0.10050   -0.80233
 26 Ru   -0.08922    0.01010    0.09736
 27 Ru    0.00572   -0.00548   -0.04335
 28 Ru   -0.00464    0.09619    0.74456
 29 Ru    0.07187   -0.10221   -0.85930
 30 Ru   -0.00899   -0.03004   -0.15599
 31 Ru   -0.01589    0.00174   -0.03681
 32 Ru   -0.00466   -0.01624    0.55344
 33 Ru    0.03081   -0.02393   -0.60566
 34 Ru   -0.13160    0.09212    0.00857
 35 Ru    0.01859    0.08616   -0.09044
 36 H    -0.01576   -0.16283   -0.02090
 37 O     0.00886   -0.00442    0.93820
 38 C     0.05128   -0.21109   -0.24788
 39 C    -0.05057   -0.11722   -0.31254
 40 O     0.04528    0.03047    0.48681

BFGS:    6 03:34:48    -5114.252908        0.9382
System changes: positions 

Initializing position-dependent things.

Density initialized from wave functions
                                                
                                                
                                                
                                                
                                                
                                                
                                                
                          O                     
                         HC                     
                 Ru     Ou     Ru               
                   Ru    CRu     Ru             
            Ru           Ru                     
              Ru    RRu    RRu     Ru           
               Ru                               
               Ru    RRu    RRu                 
                 Ru    Ru     Ru                
                                                
           Ru     Ru    RRu     Ru              
             Ru    Ru     Ru                    
                                                
              Ru     Ru     Ru                  
                                                
                                                
                                                
                                                

Positions:
   0 Ru     0.000000    0.000000    9.999999    ( 0.0000,  0.0000,  0.0000)
   1 Ru     1.355017    0.782320   12.212733    ( 0.0000,  0.0000,  0.0000)
   2 Ru    -0.002974    1.560590   14.469194    ( 0.0000,  0.0000,  0.0000)
   3 Ru     2.704076    0.031848   16.646672    ( 0.0000,  0.0000,  0.0000)
   4 Ru    -1.355017    2.346959    9.999999    ( 0.0000,  0.0000,  0.0000)
   5 Ru    -0.000000    3.129279   12.212733    ( 0.0000,  0.0000,  0.0000)
   6 Ru    -1.361694    3.926267   14.457715    ( 0.0000,  0.0000,  0.0000)
   7 Ru     1.328634    2.351457   16.561820    ( 0.0000,  0.0000,  0.0000)
   8 Ru    -2.710035    4.693918    9.999999    ( 0.0000,  0.0000,  0.0000)
   9 Ru    -1.355017    5.476238   12.212733    ( 0.0000,  0.0000,  0.0000)
  10 Ru    -2.744608    6.230656   14.387707    ( 0.0000,  0.0000,  0.0000)
  11 Ru     0.000391    4.654620   16.562171    ( 0.0000,  0.0000,  0.0000)
  12 Ru     2.710035    0.000000    9.999999    ( 0.0000,  0.0000,  0.0000)
  13 Ru     4.065052    0.782320   12.212733    ( 0.0000,  0.0000,  0.0000)
  14 Ru     2.707045    1.551418   14.436907    ( 0.0000,  0.0000,  0.0000)
  15 Ru     5.436679    0.035256   16.630935    ( 0.0000,  0.0000,  0.0000)
  16 Ru     1.355017    2.346959    9.999999    ( 0.0000,  0.0000,  0.0000)
  17 Ru     2.710035    3.129279   12.212733    ( 0.0000,  0.0000,  0.0000)
  18 Ru     1.355443    3.925885   14.456216    ( 0.0000,  0.0000,  0.0000)
  19 Ru     4.062219    2.433443   16.571029    ( 0.0000,  0.0000,  0.0000)
  20 Ru     0.000000    4.693918    9.999999    ( 0.0000,  0.0000,  0.0000)
  21 Ru     1.355017    5.476238   12.212733    ( 0.0000,  0.0000,  0.0000)
  22 Ru    -0.003615    6.264201   14.440450    ( 0.0000,  0.0000,  0.0000)
  23 Ru     2.697257    4.708364   16.552172    ( 0.0000,  0.0000,  0.0000)
  24 Ru     5.420070    0.000000    9.999999    ( 0.0000,  0.0000,  0.0000)
  25 Ru     6.775087    0.782320   12.212733    ( 0.0000,  0.0000,  0.0000)
  26 Ru     5.417911    1.550624   14.435519    ( 0.0000,  0.0000,  0.0000)
  27 Ru     8.131390    0.005894   16.555824    ( 0.0000,  0.0000,  0.0000)
  28 Ru     4.065052    2.346959    9.999999    ( 0.0000,  0.0000,  0.0000)
  29 Ru     5.420070    3.129279   12.212733    ( 0.0000,  0.0000,  0.0000)
  30 Ru     4.062305    3.953941   14.386991    ( 0.0000,  0.0000,  0.0000)
  31 Ru     6.803761    2.353788   16.560978    ( 0.0000,  0.0000,  0.0000)
  32 Ru     2.710035    4.693918    9.999999    ( 0.0000,  0.0000,  0.0000)
  33 Ru     4.065052    5.476238   12.212733    ( 0.0000,  0.0000,  0.0000)
  34 Ru     2.745119    6.229731   14.377687    ( 0.0000,  0.0000,  0.0000)
  35 Ru     5.431820    4.709712   16.554231    ( 0.0000,  0.0000,  0.0000)
  36 H      4.125947   -0.184009   20.047590    ( 0.0000,  0.0000,  0.0000)
  37 O      4.111212   -0.632966   19.181709    ( 0.0000,  0.0000,  0.0000)
  38 C      4.068850    0.313517   18.190206    ( 0.0000,  0.0000,  0.0000)
  39 C      4.084531    1.740339   18.507825    ( 0.0000,  0.0000,  0.0000)
  40 O      4.073320    2.311688   19.577761    ( 0.0000,  0.0000,  0.0000)

Unit cell:
           periodic     x           y           z      points  spacing
  1. axis:    yes    8.130105    0.000000    0.000000    40     0.1760
  2. axis:    yes   -4.065052    7.040877    0.000000    40     0.1760
  3. axis:    no     0.000000    0.000000   26.638201   148     0.1800

  Lengths:   8.130105   8.130105  26.638201
  Angles:   90.000000  90.000000 120.000000

Effective grid spacing dv^(1/3) = 0.1860

     iter     time        total  log10-change:
                         energy  eigst   dens
iter:   1 03:36:34 -5115.470124  -1.88
iter:   2 03:37:10 -5141.945969  -1.50  -2.04
iter:   3 03:37:46 -5114.290237  -1.96  -1.36
iter:   4 03:38:21 -5114.301838  -2.72  -2.94
iter:   5 03:38:57 -5114.287334c -3.54  -2.87
iter:   6 03:39:32 -5114.286804c -4.14  -3.16
iter:   7 03:40:08 -5114.282899c -4.18  -3.20
iter:   8 03:40:43 -5114.283045c -4.50  -3.51
iter:   9 03:41:19 -5114.283469c -4.98  -3.63
iter:  10 03:41:54 -5114.283113c -5.58  -3.54
iter:  11 03:42:30 -5114.283383c -5.66  -3.79
iter:  12 03:43:06 -5114.282890c -5.78  -3.90
iter:  13 03:43:41 -5114.283069c -5.98  -3.88
iter:  14 03:44:17 -5114.283029c -6.20  -4.21c
iter:  15 03:44:52 -5114.283038c -6.44  -4.22c
iter:  16 03:45:28 -5114.283035c -6.89  -4.40c
iter:  17 03:46:03 -5114.283044c -6.99  -4.35c
iter:  18 03:46:39 -5114.283124c -7.20  -4.52c
iter:  19 03:47:15 -5114.283058c -7.17  -4.54c
iter:  20 03:47:50 -5114.283082c -7.22  -4.64c
iter:  21 03:48:26 -5114.283072c -7.47c -4.77c

Converged after 21 iterations.

Dipole moment: (-3.804872, -13.340498, -0.100526) |e|*Ang

Energy contributions relative to reference atoms: (reference = -4442973.950380)

Kinetic:       +655.221927
Potential:     -741.856456
External:        +0.000000
XC:            -5020.471977
Entropy (-ST):   -1.919111
Local:           -6.217011
--------------------------
Free energy:   -5115.242628
Extrapolated:  -5114.283072

Showing only first 2 kpts
 Kpt  Band  Eigenvalues  Occupancy
  0   296     -5.38101    1.41901
  0   297     -5.37435    1.39117
  0   298     -5.29986    1.04072
  0   299     -5.24383    0.76505

  1   296     -5.27201    0.90184
  1   297     -5.24632    0.77684
  1   298     -5.21743    0.64476
  1   299     -5.20023    0.57202


Fermi level: -5.29171

No gap

Forces in eV/Ang:
  0 Ru   -0.00392   -0.00104    0.52156
  1 Ru    0.11416    0.12609   -0.82264
  2 Ru    0.00014    0.03616   -0.09148
  3 Ru   -0.05616   -0.06324   -0.05665
  4 Ru    0.03870    0.03336    0.66898
  5 Ru    0.00261   -0.00994   -0.77450
  6 Ru    0.00661   -0.01510   -0.04305
  7 Ru    0.07525    0.00655   -0.02747
  8 Ru    0.01622   -0.02416    0.53846
  9 Ru    0.13916   -0.00188   -0.73573
 10 Ru    0.17250    0.14504    0.10892
 11 Ru    0.00257    0.12841    0.00787
 12 Ru   -0.07504   -0.04149    0.67631
 13 Ru    0.01531    0.01055   -0.60698
 14 Ru    0.09556    0.03332    0.14679
 15 Ru   -0.02381   -0.04766    0.03568
 16 Ru   -0.05641    0.02813    0.66763
 17 Ru   -0.03738   -0.14364   -0.84741
 18 Ru   -0.01798   -0.02236   -0.03393
 19 Ru    0.03784   -0.05393    0.21793
 20 Ru   -0.00520   -0.05759    0.68429
 21 Ru   -0.12712    0.01369   -0.72497
 22 Ru   -0.00563    0.09212    0.13733
 23 Ru   -0.00177    0.05484   -0.08820
 24 Ru    0.07058   -0.04093    0.66857
 25 Ru   -0.08319    0.12709   -0.82191
 26 Ru   -0.10072    0.04880    0.15272
 27 Ru    0.00207   -0.01829   -0.03012
 28 Ru   -0.00467    0.09874    0.73715
 29 Ru    0.08718   -0.12251   -0.87311
 30 Ru   -0.00538   -0.12314   -0.04223
 31 Ru   -0.08449   -0.00585   -0.02131
 32 Ru   -0.01141   -0.01787    0.53053
 33 Ru    0.03025   -0.01772   -0.67801
 34 Ru   -0.22513    0.16979    0.16071
 35 Ru   -0.00457    0.06797   -0.07252
 36 H    -0.01202   -0.07326    0.01434
 37 O    -0.01928   -0.05623    0.68012
 38 C     0.12261   -0.20987   -0.13965
 39 C    -0.13151   -0.07107   -0.16749
 40 O     0.06014    0.00916    0.29960

BFGS:    7 03:48:43    -5114.283072        0.6827
System changes: positions 

Initializing position-dependent things.

Density initialized from wave functions
                                                
                                                
                                                
                                                
                                                
                                                
                                                
                          O                     
                         HC                     
                 Ru     Ou     Ru               
                   Ru    CRu     Ru             
            Ru           Ru                     
              Ru    RRu    RRu     Ru           
               Ru                               
               Ru    RRu    RRu                 
                 Ru    Ru     Ru                
                                                
           Ru     Ru    RRu     Ru              
             Ru    Ru     Ru                    
                                                
              Ru     Ru     Ru                  
                                                
                                                
                                                
                                                

Positions:
   0 Ru     0.000000    0.000000    9.999999    ( 0.0000,  0.0000,  0.0000)
   1 Ru     1.355017    0.782320   12.212733    ( 0.0000,  0.0000,  0.0000)
   2 Ru    -0.003424    1.560643   14.468341    ( 0.0000,  0.0000,  0.0000)
   3 Ru     2.702257    0.035176   16.655851    ( 0.0000,  0.0000,  0.0000)
   4 Ru    -1.355017    2.346959    9.999999    ( 0.0000,  0.0000,  0.0000)
   5 Ru    -0.000000    3.129279   12.212733    ( 0.0000,  0.0000,  0.0000)
   6 Ru    -1.362201    3.928299   14.456779    ( 0.0000,  0.0000,  0.0000)
   7 Ru     1.326856    2.352391   16.558504    ( 0.0000,  0.0000,  0.0000)
   8 Ru    -2.710035    4.693918    9.999999    ( 0.0000,  0.0000,  0.0000)
   9 Ru    -1.355017    5.476238   12.212733    ( 0.0000,  0.0000,  0.0000)
  10 Ru    -2.744726    6.231239   14.380445    ( 0.0000,  0.0000,  0.0000)
  11 Ru     0.000551    4.652811   16.560474    ( 0.0000,  0.0000,  0.0000)
  12 Ru     2.710035    0.000000    9.999999    ( 0.0000,  0.0000,  0.0000)
  13 Ru     4.065052    0.782320   12.212733    ( 0.0000,  0.0000,  0.0000)
  14 Ru     2.710144    1.550152   14.438810    ( 0.0000,  0.0000,  0.0000)
  15 Ru     5.437359    0.039785   16.641083    ( 0.0000,  0.0000,  0.0000)
  16 Ru     1.355017    2.346959    9.999999    ( 0.0000,  0.0000,  0.0000)
[...]
  31 Ru     6.797587    2.367361   16.566821    ( 0.0000,  0.0000,  0.0000)
  32 Ru     2.710035    4.693918    9.999999    ( 0.0000,  0.0000,  0.0000)
  33 Ru     4.065052    5.476238   12.212733    ( 0.0000,  0.0000,  0.0000)
  34 Ru     2.720848    6.268651   14.406155    ( 0.0000,  0.0000,  0.0000)
  35 Ru     5.427858    4.715735   16.556752    ( 0.0000,  0.0000,  0.0000)
  36 H      4.107994   -0.139426   20.188781    ( 0.0000,  0.0000,  0.0000)
  37 O      4.096830   -0.670863   19.371796    ( 0.0000,  0.0000,  0.0000)
  38 C      4.077293    0.187427   18.297146    ( 0.0000,  0.0000,  0.0000)
  39 C      4.073697    1.628588   18.560286    ( 0.0000,  0.0000,  0.0000)
  40 O      4.077687    2.211253   19.632142    ( 0.0000,  0.0000,  0.0000)

Unit cell:
           periodic     x           y           z      points  spacing
  1. axis:    yes    8.130105    0.000000    0.000000    40     0.1760
  2. axis:    yes   -4.065052    7.040877    0.000000    40     0.1760
  3. axis:    no     0.000000    0.000000   26.638201   148     0.1800

  Lengths:   8.130105   8.130105  26.638201
  Angles:   90.000000  90.000000 120.000000

Effective grid spacing dv^(1/3) = 0.1860

     iter     time        total  log10-change:
                         energy  eigst   dens
iter:   1 06:28:03 -5114.411063  -2.68
iter:   2 06:28:39 -5114.468649  -3.48  -3.05
iter:   3 06:29:15 -5114.428557c -3.91  -2.69
iter:   4 06:29:50 -5114.404120c -4.58  -2.87
iter:   5 06:30:26 -5114.404179c -5.19  -3.59
iter:   6 06:31:01 -5114.403821c -4.76  -3.70
iter:   7 06:31:37 -5114.403845c -5.33  -3.95
iter:   8 06:32:12 -5114.403867c -5.90  -4.02c
iter:   9 06:32:48 -5114.404053c -5.79  -4.08c
iter:  10 06:33:23 -5114.403946c -5.96  -3.69
iter:  11 06:33:59 -5114.403948c -6.34  -3.94
iter:  12 06:34:34 -5114.403835c -6.80  -4.27c
iter:  13 06:35:10 -5114.403866c -7.12  -4.47c
iter:  14 06:35:45 -5114.403851c -6.80  -4.53c
iter:  15 06:36:21 -5114.403841c -6.69  -4.66c
iter:  16 06:36:57 -5114.403865c -7.42c -4.91c

Converged after 16 iterations.

Dipole moment: (-3.776301, -13.023447, -0.163030) |e|*Ang

Energy contributions relative to reference atoms: (reference = -4442973.950380)

Kinetic:       +642.182421
Potential:     -731.328613
External:        +0.000000
XC:            -5018.114091
Entropy (-ST):   -1.921404
Local:           -6.182879
--------------------------
Free energy:   -5115.364567
Extrapolated:  -5114.403865

Showing only first 2 kpts
 Kpt  Band  Eigenvalues  Occupancy
  0   296     -5.44364    1.44600
  0   297     -5.42089    1.35045
  0   298     -5.36260    1.07437
  0   299     -5.31779    0.85153

  1   296     -5.31799    0.85252
  1   297     -5.29600    0.74712
  1   298     -5.26807    0.62161
  1   299     -5.24223    0.51664


Fermi level: -5.34770

No gap

Forces in eV/Ang:
  0 Ru   -0.01273    0.04154    0.58865
  1 Ru    0.13665    0.13662   -0.72603
  2 Ru    0.00036    0.00809    0.01718
  3 Ru   -0.01543    0.00056   -0.00630
  4 Ru    0.02662    0.03572    0.68308
  5 Ru    0.00475   -0.01739   -0.76374
  6 Ru    0.00368    0.00257    0.01914
  7 Ru    0.00852   -0.00903   -0.00081
  8 Ru    0.01487   -0.00229    0.61097
  9 Ru    0.16134    0.03827   -0.67325
 10 Ru    0.01160    0.00274   -0.00370
 11 Ru   -0.00021    0.00605    0.01696
 12 Ru   -0.04456   -0.00311    0.71115
 13 Ru    0.01969   -0.01336   -0.54613
 14 Ru    0.00029   -0.01690   -0.00595
 15 Ru   -0.00053   -0.00086    0.00182
 16 Ru   -0.04685    0.03491    0.67727
 17 Ru   -0.02861   -0.14907   -0.72058
 18 Ru   -0.00054    0.00421    0.02110
 19 Ru   -0.00065   -0.00831   -0.02112
 20 Ru   -0.01082   -0.02843    0.71180
 21 Ru   -0.14740    0.06138   -0.66981
 22 Ru    0.00304   -0.00273    0.00339
 23 Ru    0.00728    0.00599   -0.01619
 24 Ru    0.03647   -0.00653    0.70779
 25 Ru   -0.11349    0.13504   -0.73229
 26 Ru   -0.00253   -0.01692   -0.00635
 27 Ru   -0.00269   -0.01698   -0.00306
 28 Ru   -0.00934    0.06656    0.74257
 29 Ru    0.06941   -0.13489   -0.73572
 30 Ru    0.00201   -0.02914   -0.00618
 31 Ru   -0.02101   -0.01589   -0.00078
 32 Ru   -0.02038    0.00415    0.59657
 33 Ru    0.01836    0.04616   -0.47117
 34 Ru   -0.01305    0.00791   -0.00099
 35 Ru   -0.01133    0.00585   -0.01179
 36 H    -0.01735   -0.02493    0.00298
 37 O    -0.03298   -0.05673   -0.03099
 38 C    -0.00741   -0.02620    0.00173
 39 C     0.00472   -0.04174   -0.00517
 40 O     0.02589   -0.04836    0.01731

BFGS:   21 06:37:14    -5114.403865        0.0726
System changes: positions 

Initializing position-dependent things.

Density initialized from wave functions
                                                
                                                
                                                
                                                
                                                
                                                
                                                
                          O                     
                         H                      
                 Ru     OuC    Ru               
                         CRu                    
            Ru    RRu    Ru      Ru             
              Ru    RRu    RRu     Ru           
                                                
               Ru    RRu    RRu                 
                Ru     Ru     Ru                
                                                
           Ru    RRu    RRu     Ru              
             Ru    Ru     Ru                    
                                                
              Ru     Ru     Ru                  
                                                
                                                
                                                
                                                

Positions:
   0 Ru     0.000000    0.000000    9.999999    ( 0.0000,  0.0000,  0.0000)
   1 Ru     1.355017    0.782320   12.212733    ( 0.0000,  0.0000,  0.0000)
   2 Ru    -0.007462    1.579929   14.459406    ( 0.0000,  0.0000,  0.0000)
   3 Ru     2.705778    0.014404   16.695624    ( 0.0000,  0.0000,  0.0000)
   4 Ru    -1.355017    2.346959    9.999999    ( 0.0000,  0.0000,  0.0000)
   5 Ru    -0.000000    3.129279   12.212733    ( 0.0000,  0.0000,  0.0000)
   6 Ru    -1.371376    3.941155   14.455143    ( 0.0000,  0.0000,  0.0000)
   7 Ru     1.331274    2.364007   16.566681    ( 0.0000,  0.0000,  0.0000)
   8 Ru    -2.710035    4.693918    9.999999    ( 0.0000,  0.0000,  0.0000)
   9 Ru    -1.355017    5.476238   12.212733    ( 0.0000,  0.0000,  0.0000)
  10 Ru    -2.733122    6.268932   14.411560    ( 0.0000,  0.0000,  0.0000)
  11 Ru    -0.001912    4.670888   16.564802    ( 0.0000,  0.0000,  0.0000)
  12 Ru     2.710035    0.000000    9.999999    ( 0.0000,  0.0000,  0.0000)
  13 Ru     4.065052    0.782320   12.212733    ( 0.0000,  0.0000,  0.0000)
  14 Ru     2.720850    1.583591   14.478605    ( 0.0000,  0.0000,  0.0000)
  15 Ru     5.425742    0.016038   16.685767    ( 0.0000,  0.0000,  0.0000)
  16 Ru     1.355017    2.346959    9.999999    ( 0.0000,  0.0000,  0.0000)
  17 Ru     2.710035    3.129279   12.212733    ( 0.0000,  0.0000,  0.0000)
  18 Ru     1.356120    3.940352   14.453768    ( 0.0000,  0.0000,  0.0000)
  19 Ru     4.061757    2.435665   16.667238    ( 0.0000,  0.0000,  0.0000)
  20 Ru     0.000000    4.693918    9.999999    ( 0.0000,  0.0000,  0.0000)
  21 Ru     1.355017    5.476238   12.212733    ( 0.0000,  0.0000,  0.0000)
  22 Ru    -0.009937    6.292348   14.477160    ( 0.0000,  0.0000,  0.0000)
  23 Ru     2.694853    4.713692   16.554467    ( 0.0000,  0.0000,  0.0000)
  24 Ru     5.420070    0.000000    9.999999    ( 0.0000,  0.0000,  0.0000)
  25 Ru     6.775087    0.782320   12.212733    ( 0.0000,  0.0000,  0.0000)
  26 Ru     5.394055    1.584581   14.480227    ( 0.0000,  0.0000,  0.0000)
  27 Ru     8.127527    0.023449   16.557446    ( 0.0000,  0.0000,  0.0000)
  28 Ru     4.065052    2.346959    9.999999    ( 0.0000,  0.0000,  0.0000)
  29 Ru     5.420070    3.129279   12.212733    ( 0.0000,  0.0000,  0.0000)
  30 Ru     4.058355    3.972354   14.385996    ( 0.0000,  0.0000,  0.0000)
  31 Ru     6.796802    2.366785   16.567287    ( 0.0000,  0.0000,  0.0000)
  32 Ru     2.710035    4.693918    9.999999    ( 0.0000,  0.0000,  0.0000)
  33 Ru     4.065052    5.476238   12.212733    ( 0.0000,  0.0000,  0.0000)
  34 Ru     2.720475    6.269161   14.406214    ( 0.0000,  0.0000,  0.0000)
  35 Ru     5.427484    4.716075   16.557341    ( 0.0000,  0.0000,  0.0000)
  36 H      4.107183   -0.140065   20.189399    ( 0.0000,  0.0000,  0.0000)
  37 O      4.095983   -0.672324   19.372266    ( 0.0000,  0.0000,  0.0000)
  38 C      4.077150    0.185875   18.297539    ( 0.0000,  0.0000,  0.0000)
  39 C      4.074012    1.626730   18.560465    ( 0.0000,  0.0000,  0.0000)
  40 O      4.078701    2.208413   19.632879    ( 0.0000,  0.0000,  0.0000)

Unit cell:
           periodic     x           y           z      points  spacing
  1. axis:    yes    8.130105    0.000000    0.000000    40     0.1760
  2. axis:    yes   -4.065052    7.040877    0.000000    40     0.1760
  3. axis:    no     0.000000    0.000000   26.638201   148     0.1800

  Lengths:   8.130105   8.130105  26.638201
  Angles:   90.000000  90.000000 120.000000

Effective grid spacing dv^(1/3) = 0.1860

     iter     time        total  log10-change:
                         energy  eigst   dens
iter:   1 06:38:59 -5114.426689  -3.92
iter:   2 06:39:34 -5115.037202  -3.22  -2.89
iter:   3 06:40:10 -5114.404022  -3.62  -2.17
iter:   4 06:40:45 -5114.404601  -4.51  -3.82
iter:   5 06:41:20 -5114.404358c -5.27  -4.00c
iter:   6 06:41:56 -5114.404388c -5.90  -4.12c
iter:   7 06:42:31 -5114.404349c -6.06  -4.33c
iter:   8 06:43:06 -5114.404352c -6.47  -4.60c
iter:   9 06:43:42 -5114.404343c -7.14  -4.68c
iter:  10 06:44:17 -5114.404316c -7.27  -4.79c
iter:  11 06:44:52 -5114.404361c -7.59c -4.91c

Converged after 11 iterations.

Dipole moment: (-3.735825, -12.954464, -0.164165) |e|*Ang

Energy contributions relative to reference atoms: (reference = -4442973.950380)

Kinetic:       +641.874260
Potential:     -731.066690
External:        +0.000000
XC:            -5018.066755
Entropy (-ST):   -1.921481
Local:           -6.184435
--------------------------
Free energy:   -5115.365102
Extrapolated:  -5114.404361

Showing only first 2 kpts
 Kpt  Band  Eigenvalues  Occupancy
  0   296     -5.44442    1.44608
  0   297     -5.42168    1.35057
  0   298     -5.36336    1.07435
  0   299     -5.31875    0.85251

  1   296     -5.31882    0.85283
  1   297     -5.29706    0.74848
  1   298     -5.26878    0.62140
  1   299     -5.24293    0.51639


Fermi level: -5.34847

No gap

Forces in eV/Ang:
  0 Ru   -0.01268    0.04164    0.59032
  1 Ru    0.13302    0.13738   -0.72418
  2 Ru    0.00005    0.00641    0.00616
  3 Ru    0.00101    0.00721    0.00608
  4 Ru    0.02763    0.03625    0.68513
  5 Ru    0.00492   -0.01778   -0.75671
  6 Ru    0.00616   -0.00523    0.00787
  7 Ru    0.00402   -0.00342    0.00469
  8 Ru    0.01473   -0.00203    0.61319
  9 Ru    0.16043    0.03456   -0.66965
 10 Ru    0.00033   -0.00310   -0.00389
 11 Ru   -0.00052   -0.00030    0.02353
 12 Ru   -0.04565   -0.00349    0.71265
 13 Ru    0.01941   -0.01290   -0.54738
 14 Ru   -0.00653   -0.00370   -0.00165
 15 Ru   -0.00661    0.00107    0.00680
 16 Ru   -0.04774    0.03527    0.67942
 17 Ru   -0.03104   -0.14740   -0.71705
 18 Ru   -0.00301   -0.00285    0.00714
 19 Ru   -0.00313   -0.00461   -0.00072
 20 Ru   -0.01071   -0.02883    0.71384
 21 Ru   -0.14626    0.05736   -0.66588
 22 Ru    0.00348   -0.01832    0.00462
 23 Ru    0.00911   -0.00076   -0.01152
 24 Ru    0.03736   -0.00695    0.70916
 25 Ru   -0.10984    0.13557   -0.73052
 26 Ru    0.00453   -0.00416   -0.00148
 27 Ru   -0.00554   -0.01015   -0.00759
 28 Ru   -0.00940    0.06766    0.74504
 29 Ru    0.07164   -0.13363   -0.73227
 30 Ru    0.00029   -0.02056   -0.00188
 31 Ru   -0.01172   -0.00891    0.00266
 32 Ru   -0.02028    0.00438    0.59906
 33 Ru    0.01806    0.04597   -0.46595
 34 Ru   -0.00396    0.00075   -0.00014
 35 Ru   -0.01238   -0.00436   -0.01129
 36 H    -0.01934   -0.04041   -0.01421
 37 O    -0.02989   -0.03624    0.01019
 38 C    -0.00909   -0.03832   -0.00858
 39 C     0.00799   -0.02921   -0.01054
 40 O     0.02124   -0.03598    0.01250

BFGS:   22 06:45:10    -5114.404361        0.0481
Timing:                                      incl.     excl.
-------------------------------------------------------------------
Density initialized from wave functions:     3.375     3.375   0.0% |
 Symmetrize density:                         0.001     0.001   0.0% |
Forces:                                    402.806   402.806   2.2% ||
Hamiltonian:                                64.339     0.003   0.0% |
 Atomic:                                     2.579     0.015   0.0% |
  XC Correction:                             2.564     2.564   0.0% |
 Calculate atomic Hamiltonians:              1.247     1.247   0.0% |
 Communicate:                                0.142     0.142   0.0% |
 Hartree integrate/restrict:                 0.205     0.205   0.0% |
 Initialize Hamiltonian:                     0.001     0.001   0.0% |
 Poisson:                                    3.533     0.155   0.0% |
  Communicate from 1D:                       0.290     0.290   0.0% |
  Communicate from 2D:                       0.576     0.576   0.0% |
  Communicate to 1D:                         0.154     0.154   0.0% |
  Communicate to 2D:                         0.638     0.638   0.0% |
  FFT 1D:                                    0.889     0.889   0.0% |
  FFT 2D:                                    0.833     0.833   0.0% |
 XC 3D grid:                                56.406    14.723   0.1% |
  VdW-DF integral:                          41.683     2.772   0.0% |
   Convolution:                              4.591     4.591   0.0% |
   FFT:                                      2.990     2.990   0.0% |
   gather:                                   9.562     9.562   0.1% |
   hmm1:                                     0.772     0.772   0.0% |
   hmm2:                                     1.809     1.809   0.0% |
   iFFT:                                     2.922     2.922   0.0% |
   potential:                               12.728     0.341   0.0% |
    collect:                                 1.009     1.009   0.0% |
    p1:                                      7.729     7.729   0.0% |
    p2:                                      2.749     2.749   0.0% |
    sum:                                     0.900     0.900   0.0% |
   splines:                                  3.538     3.538   0.0% |
 vbar:                                       0.223     0.223   0.0% |
LCAO initialization:                        62.231     2.005   0.0% |
 LCAO eigensolver:                          47.903     0.005   0.0% |
  Calculate projections:                     0.000     0.000   0.0% |
  DenseAtomicCorrection:                     0.000     0.000   0.0% |
  Distribute overlap matrix:                46.664    46.664   0.3% |
  Orbital Layouts:                           1.027     1.027   0.0% |
  Potential matrix:                          0.057     0.057   0.0% |
  Sum over cells:                            0.150     0.150   0.0% |
 LCAO to grid:                              10.307    10.307   0.1% |
 Set positions (LCAO WFS):                   2.015     1.305   0.0% |
  Basic WFS set positions:                   0.001     0.001   0.0% |
  Basis functions set positions:             0.000     0.000   0.0% |
  P tci:                                     0.000     0.000   0.0% |
  ST tci:                                    0.605     0.605   0.0% |
  mktci:                                     0.104     0.104   0.0% |
Redistribute:                                0.014     0.014   0.0% |
SCF-cycle:                               16173.163   114.403   0.6% |
 Davidson:                               14787.091  4730.528  26.1% |---------|
  Apply hamiltonian:                       294.371   294.371   1.6% ||
  Subspace diag:                          1426.035     0.049   0.0% |
   calc_h_matrix:                          686.578   390.212   2.2% ||
    Apply hamiltonian:                     296.365   296.365   1.6% ||
   diagonalize:                             26.063    26.063   0.1% |
   rotate_psi:                             713.345   713.345   3.9% |-|
  calc. matrices:                         6765.629  2579.886  14.2% |-----|
   Apply hamiltonian:                     4185.743  4185.743  23.1% |--------|
  diagonalize:                             240.414   240.414   1.3% ||
  rotate_psi:                             1330.113  1330.113   7.3% |--|
 Density:                                   27.452     0.009   0.0% |
  Atomic density matrices:                   2.067     2.067   0.0% |
  Mix:                                       5.962     5.962   0.0% |
  Multipole moments:                         0.154     0.154   0.0% |
  Pseudo density:                           19.260    19.248   0.1% |
   Symmetrize density:                       0.012     0.012   0.0% |
 Hamiltonian:                             1129.077     0.048   0.0% |
  Atomic:                                   48.250     0.270   0.0% |
   XC Correction:                           47.980    47.980   0.3% |
  Calculate atomic Hamiltonians:            22.846    22.846   0.1% |
  Communicate:                               2.179     2.179   0.0% |
  Hartree integrate/restrict:                3.729     3.729   0.0% |
  Poisson:                                  65.682     2.783   0.0% |
   Communicate from 1D:                      5.302     5.302   0.0% |
   Communicate from 2D:                     10.798    10.798   0.1% |
   Communicate to 1D:                        2.913     2.913   0.0% |
   Communicate to 2D:                       11.793    11.793   0.1% |
   FFT 1D:                                  16.543    16.543   0.1% |
   FFT 2D:                                  15.551    15.551   0.1% |
  XC 3D grid:                              985.542   272.351   1.5% ||
   VdW-DF integral:                        713.191    51.843   0.3% |
    Convolution:                            85.727    85.727   0.5% |
    FFT:                                    56.021    56.021   0.3% |
    gather:                                178.490   178.490   1.0% |
    hmm1:                                   14.493    14.493   0.1% |
    hmm2:                                   33.452    33.452   0.2% |
    iFFT:                                   54.982    54.982   0.3% |
    potential:                             238.181     6.281   0.0% |
     collect:                               18.925    18.925   0.1% |
     p1:                                   145.033   145.033   0.8% |
     p2:                                    51.485    51.485   0.3% |
     sum:                                   16.458    16.458   0.1% |
    splines:                                 0.002     0.002   0.0% |
  vbar:                                      0.800     0.800   0.0% |
 Orthonormalize:                           115.140     0.005   0.0% |
  calc_s_matrix:                             8.329     8.329   0.0% |
  inverse-cholesky:                         89.631    89.631   0.5% |
  projections:                               0.001     0.001   0.0% |
  rotate_psi_s:                             17.175    17.175   0.1% |
Set symmetry:                                0.001     0.001   0.0% |
Other:                                    1428.537  1428.537   7.9% |--|
-------------------------------------------------------------------
Total:                                             18134.466 100.0%

Memory usage: 1.56 GiB
Date: Fri Sep 29 06:45:10 2023
