
  ___ ___ ___ _ _ _  
 |   |   |_  | | | | 
 | | | | | . | | | | 
 |__ |  _|___|_____|  22.8.0
 |___|_|             

User:   s204775@c196.nifl.fysik.dtu.dk
Date:   Fri Sep 29 04:06:01 2023
Arch:   x86_64
Pid:    17458
CWD:    /home/cat/s204775/projects/Bachelor_project/OCCOH_missing_features
Python: 3.10.4
gpaw:   /home/modules/software/GPAW/22.8.0-intel-2022a/lib/python3.10/site-packages/gpaw
_gpaw:  /home/modules/software/GPAW/22.8.0-intel-2022a/lib/python3.10/site-packages/
        _gpaw.cpython-310-x86_64-linux-gnu.so
ase:    /home/modules/software/ASE/3.22.1-intel-2022a/lib/python3.10/site-packages/ase (version 3.22.1)
numpy:  /home/modules/software/SciPy-bundle/2022.05-intel-2022a/lib/python3.10/site-packages/numpy (version 1.22.3)
scipy:  /home/modules/software/SciPy-bundle/2022.05-intel-2022a/lib/python3.10/site-packages/scipy (version 1.8.1)
libxc:  5.2.3
units:  Angstrom and eV
cores: 40
OpenMP: False
OMP_NUM_THREADS: 1

Input parameters:
  basis: dzp
  h: 0.18
  kpts: {size: (4, 4, 1)}
  xc: BEEF-vdW

System changes: positions, numbers, cell, pbc, initial_charges, initial_magmoms 

Initialize ...

species:
  Sn:
    name: Tin
    id: d1329c6b410f1e0bd923643368775dcd
    Z: 50.0
    valence: 14
    core: 36
    charge: 0.0
    file: /home/modules/software/GPAW-setups/0.9.20000/Sn.PBE.gz
    compensation charges: {type: gauss,
                           rc: 0.38,
                           lmax: 2}
    cutoffs: {filter: 2.23,
              core: 2.35}
    valence states:
      #              energy  rcut
      - 5s(2.00)   -10.538   1.201
      - 5p(2.00)    -3.696   1.270
      - 4d(10.00)   -25.845   1.185
      -  s          16.674   1.201
      -  p          23.515   1.270
      -  d           1.367   1.185
  
    # LCAO basis set for Sn:
    #   Name: dzp
    #   File: /home/modules/software/GPAW-setups/0.9.20000/Sn.dzp.basis.gz
    #   Number of radial functions: 7
    #   Number of spherical harmonics: 23
    #     l=0, rc=7.1250 Bohr: 5s-sz confined orbital
    #     l=1, rc=9.5469 Bohr: 5p-sz confined orbital
    #     l=2, rc=4.0625 Bohr: 4d-sz confined orbital
    #     l=0, rc=4.1250 Bohr: 5s-dz split-valence wave
    #     l=1, rc=5.6719 Bohr: 5p-dz split-valence wave
    #     l=2, rc=2.5938 Bohr: 4d-dz split-valence wave
    #     l=2, rc=9.5469 Bohr: d-type Gaussian polarization
    #   Number of RI-basis functions 0

  H:
    name: Hydrogen
    id: d65de229564ff8ea4db303e23b6d1ecf
    Z: 1.0
    valence: 1
    core: 0
    charge: 0.0
    file: /home/modules/software/GPAW-setups/0.9.20000/H.PBE.gz
    compensation charges: {type: gauss,
                           rc: 0.15,
                           lmax: 2}
    cutoffs: {filter: 0.85,
              core: 0.53}
    valence states:
      #              energy  rcut
      - 1s(1.00)    -6.494   0.476
      -  s          20.717   0.476
      -  p           0.000   0.476
  
    # LCAO basis set for H:
    #   Name: dzp
    #   File: /home/modules/software/GPAW-setups/0.9.20000/H.dzp.basis.gz
    #   Number of radial functions: 3
    #   Number of spherical harmonics: 5
    #     l=0, rc=6.4219 Bohr: 1s-sz confined orbital
    #     l=0, rc=3.6094 Bohr: 1s-dz split-valence wave
    #     l=1, rc=6.4219 Bohr: p-type Gaussian polarization
    #   Number of RI-basis functions 0

  O:
    name: Oxygen
    id: 32ecd46bf208036f09c70b0ec9a88b78
    Z: 8.0
    valence: 6
    core: 2
    charge: 0.0
    file: /home/modules/software/GPAW-setups/0.9.20000/O.PBE.gz
    compensation charges: {type: gauss,
                           rc: 0.21,
                           lmax: 2}
    cutoffs: {filter: 1.17,
              core: 0.83}
    valence states:
      #              energy  rcut
      - 2s(2.00)   -23.961   0.688
      - 2p(4.00)    -9.029   0.598
      -  s           3.251   0.688
      -  p          18.182   0.598
      -  d           0.000   0.619
  
    # LCAO basis set for O:
    #   Name: dzp
    #   File: /home/modules/software/GPAW-setups/0.9.20000/O.dzp.basis.gz
    #   Number of radial functions: 5
    #   Number of spherical harmonics: 13
    #     l=0, rc=4.3438 Bohr: 2s-sz confined orbital
    #     l=1, rc=5.3906 Bohr: 2p-sz confined orbital
    #     l=0, rc=2.2969 Bohr: 2s-dz split-valence wave
    #     l=1, rc=2.8906 Bohr: 2p-dz split-valence wave
    #     l=2, rc=5.3906 Bohr: d-type Gaussian polarization
    #   Number of RI-basis functions 0

  C:
    name: Carbon
    id: 4aa54d4b901d75f77cc0ea3eec22967b
    Z: 6.0
    valence: 4
    core: 2
    charge: 0.0
    file: /home/modules/software/GPAW-setups/0.9.20000/C.PBE.gz
    compensation charges: {type: gauss,
                           rc: 0.20,
                           lmax: 2}
    cutoffs: {filter: 1.14,
              core: 1.14}
    valence states:
      #              energy  rcut
      - 2s(2.00)   -13.751   0.635
      - 2p(2.00)    -5.284   0.635
      -  s          13.461   0.635
      -  p          21.927   0.635
      -  d           0.000   0.635
  
    # LCAO basis set for C:
    #   Name: dzp
    #   File: /home/modules/software/GPAW-setups/0.9.20000/C.dzp.basis.gz
    #   Number of radial functions: 5
    #   Number of spherical harmonics: 13
    #     l=0, rc=5.5469 Bohr: 2s-sz confined orbital
    #     l=1, rc=6.6719 Bohr: 2p-sz confined orbital
    #     l=0, rc=3.0312 Bohr: 2s-dz split-valence wave
    #     l=1, rc=3.7500 Bohr: 2p-dz split-valence wave
    #     l=2, rc=6.6719 Bohr: d-type Gaussian polarization
    #   Number of RI-basis functions 0

Reference energy: -6054534.410051  # eV

Spin-paired calculation

Convergence criteria:
 Maximum [total energy] change in last 3 cyles: 0.0005 eV / electron
 Maximum integral of absolute [dens]ity change: 0.0001 electrons / valence electron
 Maximum integral of absolute [eigenst]ate change: 4e-08 eV^2 / valence electron
 Maximum number of scf [iter]ations: 333
 (Square brackets indicate name in SCF output, whereas a 'c' in
 the SCF output indicates the quantity has converged.)

Symmetries present (total): 1

  ( 1  0  0)
  ( 0  1  0)
  ( 0  0  1)

16 k-points: 4 x 4 x 1 Monkhorst-Pack grid
8 k-points in the irreducible part of the Brillouin zone
       k-points in crystal coordinates                weights
   0:     0.12500000   -0.37500000    0.00000000          2/16
   1:     0.12500000   -0.12500000    0.00000000          2/16
   2:     0.12500000    0.12500000    0.00000000          2/16
   3:     0.12500000    0.37500000    0.00000000          2/16
   4:     0.37500000   -0.37500000    0.00000000          2/16
   5:     0.37500000   -0.12500000    0.00000000          2/16
   6:     0.37500000    0.12500000    0.00000000          2/16
   7:     0.37500000    0.37500000    0.00000000          2/16

Wave functions: Uniform real-space grid
  Kinetic energy operator: 8*3+1=25 point O(h^6) finite-difference Laplacian
  ScaLapack parameters: grid=1x1, blocksize=None
  Wavefunction extrapolation:
    Improved wavefunction reuse through dual PAW basis 

Occupation numbers: Fermi-Dirac:
  width: 0.1000  # eV
 

Eigensolver
   Davidson(niter=2) 

Densities:
  Coarse grid: 48*48*156 grid
  Fine grid: 96*96*312 grid
  Total Charge: 0.000000 

Density mixing:
  Method: separate
  Backend: pulay
  Linear mixing parameter: 0.05
  old densities: 5
  Damping of long wavelength oscillations: 50 

Hamiltonian:
  XC and Coulomb potentials evaluated on a 96*96*312 grid
  Using the BEEF-vdW Exchange-Correlation functional
  Interpolation: tri-quintic (5. degree polynomial)
  Poisson solver: FastPoissonSolver using
    Stencil: 8*3+1=25 point O(h^6) finite-difference Laplacian
    FFT axes: [0, 1]
    FST axes: [2]
 

XC parameters: BEEF-vdW with 2 nearest neighbor stencil

Memory estimate:
  Process memory now: 235.34 MiB
  Calculator: 793.97 MiB
    Density: 58.37 MiB
      Arrays: 14.17 MiB
      Localized functions: 38.76 MiB
      Mixer: 5.45 MiB
    Hamiltonian: 12.15 MiB
      Arrays: 9.26 MiB
      XC: 0.00 MiB
      Poisson: 0.00 MiB
      vbar: 2.88 MiB
    Wavefunctions: 723.45 MiB
      Arrays psit_nG: 347.66 MiB
      Eigensolver: 368.65 MiB
      Projections: 0.69 MiB
      Projectors: 6.46 MiB

Total number of cores used: 40
Parallelization over k-points: 8
Domain decomposition: 1 x 1 x 5

Number of atoms: 41
Number of atomic orbitals: 885
Number of bands in calculation: 319
Number of valence electrons: 525
Bands to converge: occupied

... initialized

Initializing position-dependent things.

Density initialized from atomic densities
Creating initial wave functions:
  319 bands from LCAO basis set

                                                  
                                                  
                                                  
                                                  
                                                  
                                                  
                                                  
                     O                            
                    H                             
           Sn      SOC     Sn                     
                    C                             
            SSn     SSn     SnSn                  
               Sn       Sn      Sn                
              Sn      Sn       Sn                 
                 Sn      Sn      Sn               
               Sn       Sn      Sn                
                                                  
                  Sn      Sn      Sn              
                    Sn       Sn      Sn           
           Sn      Sn      Sn                     
                                                  
             Sn      Sn       Sn                  
               Sn       Sn      Sn                
                                                  
                                                  
                                                  
                                                  

Positions:
   0 Sn    -0.000000    0.000000   10.000000    ( 0.0000,  0.0000,  0.0000)
   1 Sn     1.710646    0.987642   12.793473    ( 0.0000,  0.0000,  0.0000)
   2 Sn     0.000000    1.975283   15.709250    ( 0.0000,  0.0000,  0.0000)
   3 Sn     0.000000    0.000000   18.391826    ( 0.0000,  0.0000,  0.0000)
   4 Sn    -1.710646    2.962925   10.000000    ( 0.0000,  0.0000,  0.0000)
   5 Sn    -0.000000    3.950567   12.793473    ( 0.0000,  0.0000,  0.0000)
   6 Sn    -1.710645    4.938209   15.709250    ( 0.0000,  0.0000,  0.0000)
   7 Sn    -1.710646    2.962925   18.391826    ( 0.0000,  0.0000,  0.0000)
   8 Sn    -3.421291    5.925850   10.000000    ( 0.0000,  0.0000,  0.0000)
   9 Sn    -1.710646    6.913492   12.793473    ( 0.0000,  0.0000,  0.0000)
  10 Sn    -3.421292    7.901134   15.709250    ( 0.0000,  0.0000,  0.0000)
  11 Sn    -3.421291    5.925850   18.391826    ( 0.0000,  0.0000,  0.0000)
  12 Sn     3.421291    0.000000   10.000000    ( 0.0000,  0.0000,  0.0000)
  13 Sn     5.131937    0.987642   12.793473    ( 0.0000,  0.0000,  0.0000)
  14 Sn     3.421292    1.975284   15.709250    ( 0.0000,  0.0000,  0.0000)
  15 Sn     3.421291    0.000000   18.391826    ( 0.0000,  0.0000,  0.0000)
  16 Sn     1.710646    2.962925   10.000000    ( 0.0000,  0.0000,  0.0000)
  17 Sn     3.421291    3.950567   12.793473    ( 0.0000,  0.0000,  0.0000)
  18 Sn     1.710645    4.938209   15.709250    ( 0.0000,  0.0000,  0.0000)
  19 Sn     1.710646    2.962925   18.391826    ( 0.0000,  0.0000,  0.0000)
  20 Sn    -0.000000    5.925850   10.000000    ( 0.0000,  0.0000,  0.0000)
  21 Sn     1.710646    6.913492   12.793473    ( 0.0000,  0.0000,  0.0000)
  22 Sn    -0.000000    7.901133   15.709250    ( 0.0000,  0.0000,  0.0000)
  23 Sn     0.000000    5.925850   18.391826    ( 0.0000,  0.0000,  0.0000)
  24 Sn     6.842582    0.000000   10.000000    ( 0.0000,  0.0000,  0.0000)
  25 Sn     8.553228    0.987642   12.793473    ( 0.0000,  0.0000,  0.0000)
  26 Sn     6.842582    1.975284   15.709250    ( 0.0000,  0.0000,  0.0000)
  27 Sn     6.842582    0.000000   18.391826    ( 0.0000,  0.0000,  0.0000)
  28 Sn     5.131937    2.962925   10.000000    ( 0.0000,  0.0000,  0.0000)
  29 Sn     6.842582    3.950567   12.793473    ( 0.0000,  0.0000,  0.0000)
  30 Sn     5.131937    4.938208   15.709250    ( 0.0000,  0.0000,  0.0000)
  31 Sn     5.131937    2.962925   18.391826    ( 0.0000,  0.0000,  0.0000)
  32 Sn     3.421291    5.925850   10.000000    ( 0.0000,  0.0000,  0.0000)
  33 Sn     5.131937    6.913492   12.793473    ( 0.0000,  0.0000,  0.0000)
  34 Sn     3.421292    7.901134   15.709250    ( 0.0000,  0.0000,  0.0000)
  35 Sn     3.421291    5.925850   18.391826    ( 0.0000,  0.0000,  0.0000)
  36 H      1.775313    0.400345   21.729071    ( 0.0000,  0.0000,  0.0000)
  37 O      1.752796    0.034709   20.936998    ( 0.0000,  0.0000,  0.0000)
  38 C      1.756549    0.901164   19.937905    ( 0.0000,  0.0000,  0.0000)
  39 C      1.683235    2.397132   20.180012    ( 0.0000,  0.0000,  0.0000)
  40 O      1.735788    3.025680   21.463392    ( 0.0000,  0.0000,  0.0000)

Unit cell:
           periodic     x           y           z      points  spacing
  1. axis:    yes   10.263874    0.000000    0.000000    48     0.1852
  2. axis:    yes   -5.131937    8.888775    0.000000    48     0.1852
  3. axis:    no     0.000000    0.000000   28.380418   156     0.1819

  Lengths:  10.263874  10.263874  28.380418
  Angles:   90.000000  90.000000 120.000000

Effective grid spacing dv^(1/3) = 0.1931

     iter     time        total  log10-change:
                         energy  eigst   dens
iter:   1 04:07:15 -5958.705995
iter:   2 04:07:56 -5958.108733  -0.90  -1.53
iter:   3 04:08:36 -5957.696594  -1.34  -1.56
iter:   4 04:09:16 -5956.756106  -1.43  -1.58
iter:   5 04:09:56 -5956.951612  -1.92  -1.70
iter:   6 04:10:36 -5956.946040c -1.71  -1.69
iter:   7 04:11:16 -5956.857718c -1.94  -1.97
iter:   8 04:11:56 -5956.746910c -2.22  -2.18
iter:   9 04:12:36 -5956.785918c -2.37  -2.35
iter:  10 04:13:16 -5956.759231c -2.98  -2.48
iter:  11 04:13:56 -5956.748256c -3.29  -2.65
iter:  12 04:14:36 -5956.741510c -3.25  -2.74
iter:  13 04:15:17 -5956.739720c -3.64  -2.91
iter:  14 04:15:57 -5956.738175c -3.91  -2.98
iter:  15 04:16:37 -5956.736565c -3.90  -3.06
iter:  16 04:17:17 -5956.736172c -4.19  -3.32
iter:  17 04:17:57 -5956.736132c -4.54  -3.51
iter:  18 04:18:37 -5956.736000c -5.04  -3.61
iter:  19 04:19:17 -5956.735988c -5.44  -3.68
iter:  20 04:19:57 -5956.736028c -5.28  -3.76
iter:  21 04:20:38 -5956.736000c -5.68  -3.99
iter:  22 04:21:18 -5956.735930c -5.79  -4.10c
iter:  23 04:21:58 -5956.735964c -6.11  -4.18c
iter:  24 04:22:38 -5956.735948c -6.38  -4.30c
iter:  25 04:23:18 -5956.735963c -6.73  -4.39c
iter:  26 04:23:58 -5956.735939c -6.77  -4.45c
iter:  27 04:24:38 -5956.735932c -7.14  -4.73c
iter:  28 04:25:18 -5956.735934c -7.52c -4.85c

Converged after 28 iterations.

Dipole moment: (-1.766270, -21.816246, -0.703872) |e|*Ang

Energy contributions relative to reference atoms: (reference = -6054534.410051)

Kinetic:       +978.639694
Potential:     -934.992052
External:        +0.000000
XC:            -5999.350276
Entropy (-ST):   -0.661288
Local:           -0.702656
--------------------------
Free energy:   -5957.066578
Extrapolated:  -5956.735934

Showing only first 2 kpts
 Kpt  Band  Eigenvalues  Occupancy
  0   260     -4.78871    1.58911
  0   261     -4.73205    1.37398
  0   262     -4.63092    0.88785
  0   263     -4.56538    0.58608

  1   260     -5.19380    1.99104
  1   261     -5.16176    1.98768
  1   262     -5.11388    1.98018
  1   263     -4.99361    1.93551


Fermi level: -4.65344

No gap

Forces in eV/Ang:
  0 Sn   -0.01796   -0.03179    0.15563
  1 Sn   -0.00843    0.00234   -0.23732
  2 Sn   -0.00562   -0.06097   -0.00878
  3 Sn   -0.02710    0.14909    0.10216
  4 Sn   -0.03532    0.02973    0.14840
  5 Sn   -0.00487    0.01982   -0.25129
  6 Sn    0.03339    0.01380    0.04996
  7 Sn   -0.11877    0.06000   -0.02863
  8 Sn   -0.02598   -0.02200    0.11068
  9 Sn    0.01273    0.00667   -0.21462
 10 Sn    0.00616    0.03244    0.02369
 11 Sn   -0.00632   -0.01613   -0.00120
 12 Sn    0.03653   -0.01122    0.15227
 13 Sn    0.00683   -0.03004   -0.19846
 14 Sn    0.02635   -0.06333   -0.00985
 15 Sn    0.05785    0.16265    0.04877
 16 Sn    0.01341    0.00773    0.17388
 17 Sn    0.00919    0.02629   -0.24409
 18 Sn    0.01162    0.07211   -0.15064
 19 Sn    0.03138    3.14979   -6.38729
 20 Sn   -0.02145    0.01177    0.15076
 21 Sn   -0.01131    0.02202   -0.05443
 22 Sn    0.18564   -0.09195   -0.25279
 23 Sn    0.02988   -0.09216    0.03763
 24 Sn   -0.00062    0.00795    0.17148
 25 Sn   -0.02307   -0.02977   -0.19500
 26 Sn    0.01089    0.00156    0.07120
 27 Sn   -0.00194   -0.05327    0.00371
 28 Sn    0.02648    0.04956    0.14643
 29 Sn   -0.02183   -0.01143   -0.25261
 30 Sn   -0.00566    0.01576    0.04621
 31 Sn    0.10253    0.05392   -0.04805
 32 Sn    0.04221    0.00525    0.14508
 33 Sn   -0.01035   -0.01851   -0.22576
 34 Sn   -0.16625   -0.08770   -0.22980
 35 Sn   -0.04548   -0.07948    0.03187
 36 H     0.12703    3.10328    6.10865
 37 O    -0.04521   -4.07092   -4.26424
 38 C    -0.32772    2.40804   -0.49454
 39 C     0.52074   -1.76460   10.69519
 40 O    -0.31607   -2.92799   -5.43520

      Step     Time          Energy         fmax
BFGS:    0 04:25:33    -5956.735934       10.8523
System changes: positions 

Initializing position-dependent things.

Density initialized from wave functions
                                                  
                                                  
                                                  
                                                  
                                                  
                                                  
                                                  
                     O                            
                    H                             
           Sn      SOC     Sn                     
                    C                             
            SSn     SSn     SnSn                  
               Sn       Sn      Sn                
              Sn      Sn       Sn                 
                 Sn      Sn      Sn               
               Sn       Sn      Sn                
                                                  
                  Sn      Sn      Sn              
                    Sn       Sn      Sn           
           Sn      Sn      Sn                     
                                                  
             Sn      Sn       Sn                  
               Sn       Sn      Sn                
                                                  
                                                  
                                                  
                                                  

Positions:
   0 Sn    -0.000000    0.000000   10.000000    ( 0.0000,  0.0000,  0.0000)
   1 Sn     1.710646    0.987642   12.793473    ( 0.0000,  0.0000,  0.0000)
   2 Sn    -0.000080    1.974412   15.709124    ( 0.0000,  0.0000,  0.0000)
   3 Sn    -0.000387    0.002130   18.393285    ( 0.0000,  0.0000,  0.0000)
   4 Sn    -1.710646    2.962925   10.000000    ( 0.0000,  0.0000,  0.0000)
   5 Sn    -0.000000    3.950567   12.793473    ( 0.0000,  0.0000,  0.0000)
   6 Sn    -1.710168    4.938406   15.709964    ( 0.0000,  0.0000,  0.0000)
   7 Sn    -1.712342    2.963782   18.391417    ( 0.0000,  0.0000,  0.0000)
   8 Sn    -3.421291    5.925850   10.000000    ( 0.0000,  0.0000,  0.0000)
   9 Sn    -1.710646    6.913492   12.793473    ( 0.0000,  0.0000,  0.0000)
  10 Sn    -3.421204    7.901597   15.709588    ( 0.0000,  0.0000,  0.0000)
  11 Sn    -3.421382    5.925620   18.391809    ( 0.0000,  0.0000,  0.0000)
  12 Sn     3.421291    0.000000   10.000000    ( 0.0000,  0.0000,  0.0000)
  13 Sn     5.131937    0.987642   12.793473    ( 0.0000,  0.0000,  0.0000)
  14 Sn     3.421668    1.974379   15.709109    ( 0.0000,  0.0000,  0.0000)
  15 Sn     3.422118    0.002324   18.392523    ( 0.0000,  0.0000,  0.0000)
  16 Sn     1.710646    2.962925   10.000000    ( 0.0000,  0.0000,  0.0000)
  17 Sn     3.421291    3.950567   12.793473    ( 0.0000,  0.0000,  0.0000)
  18 Sn     1.710811    4.939239   15.707098    ( 0.0000,  0.0000,  0.0000)
  19 Sn     1.711094    3.007922   18.300579    ( 0.0000,  0.0000,  0.0000)
  20 Sn    -0.000000    5.925850   10.000000    ( 0.0000,  0.0000,  0.0000)
  21 Sn     1.710646    6.913492   12.793473    ( 0.0000,  0.0000,  0.0000)
  22 Sn     0.002652    7.899820   15.705639    ( 0.0000,  0.0000,  0.0000)
  23 Sn     0.000427    5.924534   18.392363    ( 0.0000,  0.0000,  0.0000)
  24 Sn     6.842582    0.000000   10.000000    ( 0.0000,  0.0000,  0.0000)
  25 Sn     8.553228    0.987642   12.793473    ( 0.0000,  0.0000,  0.0000)
  26 Sn     6.842738    1.975306   15.710267    ( 0.0000,  0.0000,  0.0000)
  27 Sn     6.842555   -0.000761   18.391879    ( 0.0000,  0.0000,  0.0000)
  28 Sn     5.131937    2.962925   10.000000    ( 0.0000,  0.0000,  0.0000)
  29 Sn     6.842582    3.950567   12.793473    ( 0.0000,  0.0000,  0.0000)
  30 Sn     5.131856    4.938433   15.709910    ( 0.0000,  0.0000,  0.0000)
  31 Sn     5.133402    2.963695   18.391139    ( 0.0000,  0.0000,  0.0000)
  32 Sn     3.421291    5.925850   10.000000    ( 0.0000,  0.0000,  0.0000)
  33 Sn     5.131937    6.913492   12.793473    ( 0.0000,  0.0000,  0.0000)
  34 Sn     3.418917    7.899881   15.705967    ( 0.0000,  0.0000,  0.0000)
  35 Sn     3.420642    5.924715   18.392281    ( 0.0000,  0.0000,  0.0000)
  36 H      1.777128    0.444677   21.816338    ( 0.0000,  0.0000,  0.0000)
  37 O      1.752150   -0.023447   20.876080    ( 0.0000,  0.0000,  0.0000)
  38 C      1.751867    0.935564   19.930840    ( 0.0000,  0.0000,  0.0000)
  39 C      1.690674    2.371923   20.332801    ( 0.0000,  0.0000,  0.0000)
  40 O      1.731273    2.983851   21.385747    ( 0.0000,  0.0000,  0.0000)

Unit cell:
           periodic     x           y           z      points  spacing
  1. axis:    yes   10.263874    0.000000    0.000000    48     0.1852
  2. axis:    yes   -5.131937    8.888775    0.000000    48     0.1852
  3. axis:    no     0.000000    0.000000   28.380418   156     0.1819

  Lengths:  10.263874  10.263874  28.380418
  Angles:   90.000000  90.000000 120.000000

Effective grid spacing dv^(1/3) = 0.1931

     iter     time        total  log10-change:
                         energy  eigst   dens
iter:   1 04:26:44 -5961.694676  -0.67
iter:   2 04:27:24 -5960.428095  -1.54  -1.90
iter:   3 04:28:05 -5960.132596  -1.82  -2.03
iter:   4 04:28:45 -5958.950413  -1.78  -1.92
iter:   5 04:29:25 -5958.732038  -1.91  -2.41
iter:   6 04:30:05 -5958.606209  -2.09  -2.62
iter:   7 04:30:45 -5958.575310c -2.38  -2.60
iter:   8 04:31:25 -5958.562368c -3.00  -2.85
iter:   9 04:32:05 -5958.558174c -3.48  -2.94
iter:  10 04:32:45 -5958.556085c -3.71  -3.10
iter:  11 04:33:25 -5958.556120c -4.01  -3.27
iter:  12 04:34:05 -5958.555583c -4.34  -3.21
iter:  13 04:34:45 -5958.555451c -5.01  -3.43
iter:  14 04:35:25 -5958.555774c -4.57  -3.49
iter:  15 04:36:05 -5958.555821c -5.16  -3.57
iter:  16 04:36:45 -5958.555828c -5.45  -3.65
iter:  17 04:37:26 -5958.555849c -5.58  -3.79
iter:  18 04:38:06 -5958.555891c -5.61  -3.87
iter:  19 04:38:46 -5958.555836c -6.05  -4.13c
iter:  20 04:39:26 -5958.555833c -6.28  -4.19c
iter:  21 04:40:06 -5958.555863c -6.18  -4.33c
iter:  22 04:40:46 -5958.555867c -6.57  -4.52c
iter:  23 04:41:26 -5958.555850c -7.06  -4.60c
iter:  24 04:42:06 -5958.555854c -7.29  -4.77c
iter:  25 04:42:46 -5958.555847c -7.76c -4.83c

Converged after 25 iterations.

Dipole moment: (-4.244364, -17.600019, -0.341020) |e|*Ang

Energy contributions relative to reference atoms: (reference = -6054534.410051)

Kinetic:       +972.640498
Potential:     -931.470171
External:        +0.000000
XC:            -5998.716724
Entropy (-ST):   -0.663382
Local:           -0.677759
--------------------------
Free energy:   -5958.887538
Extrapolated:  -5958.555847

Showing only first 2 kpts
 Kpt  Band  Eigenvalues  Occupancy
  0   260     -4.57824    1.58917
  0   261     -4.51785    1.35788
  0   262     -4.42566    0.91371
  0   263     -4.35806    0.59931

  1   260     -4.98981    1.99160
  1   261     -4.95642    1.98829
  1   262     -4.88889    1.97712
  1   263     -4.77094    1.92746


Fermi level: -4.44296

No gap

Forces in eV/Ang:
  0 Sn   -0.01579   -0.02611    0.15148
  1 Sn   -0.00854    0.00579   -0.23565
  2 Sn   -0.03808   -0.06648   -0.02589
  3 Sn    0.00436    0.28069    0.15779
  4 Sn   -0.02655    0.02939    0.14997
  5 Sn   -0.00763    0.01897   -0.25217
  6 Sn    0.02712    0.02324    0.04161
  7 Sn   -0.08871    0.04286   -0.02891
  8 Sn   -0.02325   -0.02016    0.11230
  9 Sn    0.01719    0.00156   -0.21284
 10 Sn    0.00447    0.03088    0.01121
 11 Sn   -0.00744   -0.01241    0.00512
 12 Sn    0.03667   -0.01001    0.15112
 13 Sn    0.00406   -0.02557   -0.21569
 14 Sn    0.06338   -0.06607   -0.03043
 15 Sn    0.04352    0.29738    0.10176
 16 Sn    0.01275    0.01416    0.16496
 17 Sn    0.01063    0.02264   -0.25014
 18 Sn    0.01103    0.10477   -0.17600
 19 Sn   -0.04357    1.38957   -1.57201
 20 Sn   -0.02276    0.00982    0.15177
 21 Sn   -0.01180    0.02782   -0.07849
 22 Sn    0.19153   -0.10316   -0.23870
 23 Sn    0.01210   -0.05270    0.01312
 24 Sn   -0.00139    0.00665    0.17969
 25 Sn   -0.02200   -0.02750   -0.21132
 26 Sn    0.01183    0.00117    0.07241
 27 Sn   -0.00403   -0.04850    0.00239
 28 Sn    0.01621    0.04814    0.14947
 29 Sn   -0.02135   -0.01409   -0.24806
 30 Sn    0.00147    0.02408    0.03973
 31 Sn    0.07373    0.04011   -0.04417
 32 Sn    0.03954   -0.00039    0.14497
 33 Sn   -0.01215   -0.02271   -0.22130
 34 Sn   -0.17444   -0.10367   -0.21750
 35 Sn   -0.02945   -0.03907    0.00910
 36 H    -0.07177   -1.34236   -2.26010
 37 O     0.16456    0.28080    4.19099
 38 C    -0.25972    1.20666   -0.20630
 39 C     0.28304   -1.56351   -0.43664
 40 O    -0.09304   -0.41000    0.54243

BFGS:    1 04:43:01    -5958.555847        4.2036
System changes: positions 

Initializing position-dependent things.

Density initialized from wave functions
                                                  
                                                  
                                                  
                                                  
                                                  
                                                  
                                                  
                     O                            
                    H                             
           Sn      SOC     Sn                     
                    C                             
            SSn     SSn     SnSn                  
               Sn       Sn      Sn                
              Sn       Sn      Sn                 
                 Sn      Sn      Sn               
               Sn       Sn      Sn                
                                                  
                  Sn      Sn      Sn              
                    Sn       Sn      Sn           
           Sn      Sn      Sn                     
                                                  
             Sn      Sn       Sn                  
               Sn       Sn      Sn                
                                                  
                                                  
                                                  
                                                  

Positions:
   0 Sn    -0.000000    0.000000   10.000000    ( 0.0000,  0.0000,  0.0000)
   1 Sn     1.710646    0.987642   12.793473    ( 0.0000,  0.0000,  0.0000)
   2 Sn    -0.000593    1.973447   15.708769    ( 0.0000,  0.0000,  0.0000)
   3 Sn    -0.000366    0.006057   18.395518    ( 0.0000,  0.0000,  0.0000)
   4 Sn    -1.710646    2.962925   10.000000    ( 0.0000,  0.0000,  0.0000)
   5 Sn    -0.000000    3.950567   12.793473    ( 0.0000,  0.0000,  0.0000)
   6 Sn    -1.709763    4.938733   15.710584    ( 0.0000,  0.0000,  0.0000)
   7 Sn    -1.713681    2.964433   18.390994    ( 0.0000,  0.0000,  0.0000)
   8 Sn    -3.421291    5.925850   10.000000    ( 0.0000,  0.0000,  0.0000)
   9 Sn    -1.710646    6.913492   12.793473    ( 0.0000,  0.0000,  0.0000)
  10 Sn    -3.421136    7.902051   15.709769    ( 0.0000,  0.0000,  0.0000)
  11 Sn    -3.421489    5.925433   18.391875    ( 0.0000,  0.0000,  0.0000)
  12 Sn     3.421291    0.000000   10.000000    ( 0.0000,  0.0000,  0.0000)
  13 Sn     5.131937    0.987642   12.793473    ( 0.0000,  0.0000,  0.0000)
  14 Sn     3.422545    1.973416   15.708692    ( 0.0000,  0.0000,  0.0000)
  15 Sn     3.422774    0.006491   18.393939    ( 0.0000,  0.0000,  0.0000)
  16 Sn     1.710646    2.962925   10.000000    ( 0.0000,  0.0000,  0.0000)
  17 Sn     3.421291    3.950567   12.793473    ( 0.0000,  0.0000,  0.0000)
  18 Sn     1.710973    4.940727   15.704558    ( 0.0000,  0.0000,  0.0000)
  19 Sn     1.710558    3.030641   18.271040    ( 0.0000,  0.0000,  0.0000)
  20 Sn    -0.000000    5.925850   10.000000    ( 0.0000,  0.0000,  0.0000)
  21 Sn     1.710646    6.913492   12.793473    ( 0.0000,  0.0000,  0.0000)
  22 Sn     0.005446    7.898326   15.702127    ( 0.0000,  0.0000,  0.0000)
  23 Sn     0.000628    5.923709   18.392589    ( 0.0000,  0.0000,  0.0000)
  24 Sn     6.842582    0.000000   10.000000    ( 0.0000,  0.0000,  0.0000)
  25 Sn     8.553228    0.987642   12.793473    ( 0.0000,  0.0000,  0.0000)
  26 Sn     6.842909    1.975324   15.711325    ( 0.0000,  0.0000,  0.0000)
  27 Sn     6.842499   -0.001477   18.391916    ( 0.0000,  0.0000,  0.0000)
  28 Sn     5.131937    2.962925   10.000000    ( 0.0000,  0.0000,  0.0000)
  29 Sn     6.842582    3.950567   12.793473    ( 0.0000,  0.0000,  0.0000)
  30 Sn     5.131868    4.938774   15.710500    ( 0.0000,  0.0000,  0.0000)
  31 Sn     5.134519    2.964301   18.390488    ( 0.0000,  0.0000,  0.0000)
  32 Sn     3.421291    5.925850   10.000000    ( 0.0000,  0.0000,  0.0000)
  33 Sn     5.131937    6.913492   12.793473    ( 0.0000,  0.0000,  0.0000)
  34 Sn     3.416376    7.898386   15.702769    ( 0.0000,  0.0000,  0.0000)
  35 Sn     3.420189    5.924088   18.392445    ( 0.0000,  0.0000,  0.0000)
  36 H      1.776348    0.431080   21.794645    ( 0.0000,  0.0000,  0.0000)
  37 O      1.754272   -0.025252   20.925902    ( 0.0000,  0.0000,  0.0000)
  38 C      1.747975    0.954848   19.927431    ( 0.0000,  0.0000,  0.0000)
  39 C      1.695138    2.348778   20.341537    ( 0.0000,  0.0000,  0.0000)
  40 O      1.729609    2.974432   21.385560    ( 0.0000,  0.0000,  0.0000)

Unit cell:
           periodic     x           y           z      points  spacing
  1. axis:    yes   10.263874    0.000000    0.000000    48     0.1852
  2. axis:    yes   -5.131937    8.888775    0.000000    48     0.1852
  3. axis:    no     0.000000    0.000000   28.380418   156     0.1819

  Lengths:  10.263874  10.263874  28.380418
  Angles:   90.000000  90.000000 120.000000

Effective grid spacing dv^(1/3) = 0.1931

     iter     time        total  log10-change:
                         energy  eigst   dens
iter:   1 04:44:14 -5958.991199  -1.77
iter:   2 04:44:54 -5958.941842  -2.57  -2.43
iter:   3 04:45:34 -5958.896448c -3.13  -2.52
iter:   4 04:46:14 -5958.877758c -3.43  -2.86
iter:   5 04:46:54 -5958.854017c -3.05  -3.05
iter:   6 04:47:34 -5958.851304c -3.12  -3.18
iter:   7 04:48:14 -5958.849880c -4.12  -3.42
iter:   8 04:48:55 -5958.849308c -4.24  -3.49
iter:   9 04:49:35 -5958.849340c -4.64  -3.72
iter:  10 04:50:15 -5958.849332c -5.07  -3.80
iter:  11 04:50:55 -5958.849456c -5.43  -3.84
iter:  12 04:51:35 -5958.849326c -5.81  -3.90
iter:  13 04:52:16 -5958.849315c -6.13  -4.12c
iter:  14 04:52:56 -5958.849311c -6.42  -4.22c
iter:  15 04:53:36 -5958.849336c -6.17  -4.32c
iter:  16 04:54:16 -5958.849325c -6.46  -4.53c
iter:  17 04:54:57 -5958.849334c -6.77  -4.62c
iter:  18 04:55:37 -5958.849323c -7.65c -4.71c

Converged after 18 iterations.

Dipole moment: (-4.090370, -17.828609, -0.411134) |e|*Ang

Energy contributions relative to reference atoms: (reference = -6054534.410051)

Kinetic:       +972.695312
Potential:     -931.474830
External:        +0.000000
XC:            -5999.066914
Entropy (-ST):   -0.662135
Local:           -0.671822
--------------------------
Free energy:   -5959.180390
Extrapolated:  -5958.849323

Showing only first 2 kpts
 Kpt  Band  Eigenvalues  Occupancy
  0   260     -4.62184    1.59173
  0   261     -4.56517    1.37736
  0   262     -4.46730    0.90789
  0   263     -4.40239    0.60567

  1   260     -5.03198    1.99155
  1   261     -4.99735    1.98807
  1   262     -4.93053    1.97686
  1   263     -4.81399    1.92762


Fermi level: -4.48577

No gap

Forces in eV/Ang:
  0 Sn   -0.01464   -0.02333    0.14947
  1 Sn   -0.00855    0.00789   -0.23323
  2 Sn   -0.03624   -0.06478   -0.02364
  3 Sn    0.06483    0.28383    0.23586
  4 Sn   -0.02307    0.02864    0.14772
  5 Sn   -0.00985    0.01658   -0.25417
  6 Sn    0.02440    0.02163    0.03883
  7 Sn   -0.08205    0.03611   -0.03039
  8 Sn   -0.02182   -0.02138    0.11112
  9 Sn    0.01795    0.00071   -0.20910
 10 Sn    0.00491    0.03136    0.01327
 11 Sn   -0.00656    0.00118    0.01367
 12 Sn    0.03654   -0.00900    0.15088
 13 Sn    0.00117   -0.02470   -0.22111
 14 Sn    0.06102   -0.06161   -0.02802
 15 Sn   -0.02612    0.30056    0.19006
 16 Sn    0.01340    0.01725    0.16260
 17 Sn    0.01184    0.01900   -0.25418
 18 Sn    0.01082    0.10959   -0.17988
 19 Sn   -0.04044    1.14773   -1.06396
 20 Sn   -0.02212    0.00858    0.15117
 21 Sn   -0.01273    0.03010   -0.08805
 22 Sn    0.18652   -0.10033   -0.23370
 23 Sn    0.00509   -0.03422    0.00867
 24 Sn   -0.00076    0.00830    0.17916
 25 Sn   -0.02081   -0.02729   -0.21778
 26 Sn    0.01174   -0.00043    0.07619
 27 Sn   -0.00443   -0.04818    0.00124
 28 Sn    0.01242    0.04717    0.14641
 29 Sn   -0.02068   -0.01408   -0.24285
 30 Sn    0.00503    0.02241    0.03550
 31 Sn    0.06714    0.03296   -0.04384
 32 Sn    0.03762   -0.00363    0.14363
 33 Sn   -0.01249   -0.02195   -0.21587
 34 Sn   -0.16995   -0.10105   -0.21492
 35 Sn   -0.02269   -0.02328    0.00483
 36 H    -0.03164   -0.34587   -0.31442
 37 O     0.06876    0.10869    1.14594
 38 C    -0.21362   -0.13036    0.59300
 39 C     0.25537   -0.97048   -0.65011
 40 O    -0.07462   -0.31096    0.45172

BFGS:    2 04:55:52    -5958.849323        1.5655
System changes: positions 

Initializing position-dependent things.

Density initialized from wave functions
                                                  
                                                  
                                                  
                                                  
                                                  
                                                  
                                                  
                     O                            
                    H                             
           Sn      SOC     Sn                     
                    C                             
            SSn     SSn     SnSn                  
               Sn       Sn      Sn                
              Sn       Sn      Sn                 
                 Sn      Sn      Sn               
               Sn       Sn      Sn                
                                                  
                  Sn      Sn      Sn              
                    Sn       Sn      Sn           
           Sn      Sn      Sn                     
                                                  
             Sn      Sn       Sn                  
               Sn       Sn      Sn                
                                                  
                                                  
                                                  
                                                  

Positions:
   0 Sn    -0.000000    0.000000   10.000000    ( 0.0000,  0.0000,  0.0000)
   1 Sn     1.710646    0.987642   12.793473    ( 0.0000,  0.0000,  0.0000)
   2 Sn    -0.001497    1.971782   15.708171    ( 0.0000,  0.0000,  0.0000)
   3 Sn     0.001053    0.013203   18.401245    ( 0.0000,  0.0000,  0.0000)
   4 Sn    -1.710646    2.962925   10.000000    ( 0.0000,  0.0000,  0.0000)
   5 Sn    -0.000000    3.950567   12.793473    ( 0.0000,  0.0000,  0.0000)
   6 Sn    -1.709120    4.939285   15.711600    ( 0.0000,  0.0000,  0.0000)
   7 Sn    -1.715845    2.965403   18.390219    ( 0.0000,  0.0000,  0.0000)
   8 Sn    -3.421291    5.925850   10.000000    ( 0.0000,  0.0000,  0.0000)
   9 Sn    -1.710646    6.913492   12.793473    ( 0.0000,  0.0000,  0.0000)
  10 Sn    -3.421010    7.902857   15.710116    ( 0.0000,  0.0000,  0.0000)
  11 Sn    -3.421659    5.925411   18.392189    ( 0.0000,  0.0000,  0.0000)
  12 Sn     3.421291    0.000000   10.000000    ( 0.0000,  0.0000,  0.0000)
  13 Sn     5.131937    0.987642   12.793473    ( 0.0000,  0.0000,  0.0000)
  14 Sn     3.424082    1.971820   15.707985    ( 0.0000,  0.0000,  0.0000)
  15 Sn     3.422364    0.014063   18.398456    ( 0.0000,  0.0000,  0.0000)
  16 Sn     1.710646    2.962925   10.000000    ( 0.0000,  0.0000,  0.0000)
  17 Sn     3.421291    3.950567   12.793473    ( 0.0000,  0.0000,  0.0000)
  18 Sn     1.711253    4.943493   15.699974    ( 0.0000,  0.0000,  0.0000)
  19 Sn     1.709587    3.062855   18.236813    ( 0.0000,  0.0000,  0.0000)
  20 Sn    -0.000000    5.925850   10.000000    ( 0.0000,  0.0000,  0.0000)
  21 Sn     1.710646    6.913492   12.793473    ( 0.0000,  0.0000,  0.0000)
  22 Sn     0.010252    7.895749   15.696088    ( 0.0000,  0.0000,  0.0000)
  23 Sn     0.000802    5.922722   18.392853    ( 0.0000,  0.0000,  0.0000)
  24 Sn     6.842582    0.000000   10.000000    ( 0.0000,  0.0000,  0.0000)
  25 Sn     8.553228    0.987642   12.793473    ( 0.0000,  0.0000,  0.0000)
  26 Sn     6.843211    1.975319   15.713268    ( 0.0000,  0.0000,  0.0000)
  27 Sn     6.842388   -0.002721   18.391953    ( 0.0000,  0.0000,  0.0000)
  28 Sn     5.131937    2.962925   10.000000    ( 0.0000,  0.0000,  0.0000)
  29 Sn     6.842582    3.950567   12.793473    ( 0.0000,  0.0000,  0.0000)
  30 Sn     5.131977    4.939347   15.711434    ( 0.0000,  0.0000,  0.0000)
  31 Sn     5.136299    2.965188   18.389356    ( 0.0000,  0.0000,  0.0000)
  32 Sn     3.421291    5.925850   10.000000    ( 0.0000,  0.0000,  0.0000)
  33 Sn     5.131937    6.913492   12.793473    ( 0.0000,  0.0000,  0.0000)
  34 Sn     3.412000    7.895796   15.697222    ( 0.0000,  0.0000,  0.0000)
  35 Sn     3.419565    5.923391   18.392609    ( 0.0000,  0.0000,  0.0000)
  36 H      1.775602    0.423352   21.788504    ( 0.0000,  0.0000,  0.0000)
  37 O      1.756158   -0.026440   20.957217    ( 0.0000,  0.0000,  0.0000)
  38 C      1.742250    0.957499   19.939539    ( 0.0000,  0.0000,  0.0000)
  39 C      1.702050    2.321521   20.337327    ( 0.0000,  0.0000,  0.0000)
  40 O      1.727390    2.963432   21.391186    ( 0.0000,  0.0000,  0.0000)

Unit cell:
           periodic     x           y           z      points  spacing
  1. axis:    yes   10.263874    0.000000    0.000000    48     0.1852
  2. axis:    yes   -5.131937    8.888775    0.000000    48     0.1852
  3. axis:    no     0.000000    0.000000   28.380418   156     0.1819

  Lengths:  10.263874  10.263874  28.380418
  Angles:   90.000000  90.000000 120.000000

Effective grid spacing dv^(1/3) = 0.1931

     iter     time        total  log10-change:
                         energy  eigst   dens
iter:   1 04:57:05 -5958.994939  -1.95
iter:   2 04:57:45 -5958.986160  -2.81  -2.69
iter:   3 04:58:25 -5958.972209c -3.44  -2.76
iter:   4 04:59:05 -5958.960181c -3.48  -3.06
iter:   5 04:59:45 -5958.955525c -3.58  -3.21
iter:   6 05:00:25 -5958.953619c -3.79  -3.42
iter:   7 05:01:05 -5958.953425c -3.99  -3.52
iter:   8 05:01:45 -5958.953246c -4.71  -3.72
iter:   9 05:02:25 -5958.953143c -5.10  -3.88
iter:  10 05:03:06 -5958.953210c -5.76  -3.95
iter:  11 05:03:46 -5958.953219c -5.74  -4.00c
iter:  12 05:04:27 -5958.953260c -5.84  -4.13c
iter:  13 05:05:07 -5958.953261c -6.37  -4.31c
iter:  14 05:05:47 -5958.953263c -6.52  -4.42c
iter:  15 05:06:27 -5958.953241c -6.83  -4.48c
iter:  16 05:07:07 -5958.953252c -7.05  -4.66c
iter:  17 05:07:47 -5958.953250c -7.01  -4.75c
iter:  18 05:08:27 -5958.953251c -7.63c -4.91c

Converged after 18 iterations.

Dipole moment: (-3.862787, -18.520480, -0.475762) |e|*Ang

Energy contributions relative to reference atoms: (reference = -6054534.410051)

Kinetic:       +972.393589
Potential:     -931.140661
External:        +0.000000
XC:            -5999.208182
Entropy (-ST):   -0.661761
Local:           -0.667117
--------------------------
Free energy:   -5959.284131
Extrapolated:  -5958.953251

Showing only first 2 kpts
 Kpt  Band  Eigenvalues  Occupancy
  0   260     -4.66138    1.59381
  0   261     -4.60593    1.38528
  0   262     -4.50570    0.90541
  0   263     -4.44368    0.61578

  1   260     -5.07123    1.99158
  1   261     -5.03417    1.98782
  1   262     -4.97029    1.97705
  1   263     -4.85069    1.92607


Fermi level: -4.52468

No gap

Forces in eV/Ang:
  0 Sn   -0.01310   -0.02174    0.14783
  1 Sn   -0.00940    0.01028   -0.22935
  2 Sn   -0.04414   -0.07317   -0.03718
  3 Sn    0.10397    0.26584    0.26287
  4 Sn   -0.02294    0.02795    0.14410
  5 Sn   -0.01056    0.01501   -0.24922
  6 Sn    0.02063    0.02374    0.03134
  7 Sn   -0.06727    0.02870   -0.02268
  8 Sn   -0.02067   -0.02233    0.11034
  9 Sn    0.01851   -0.00123   -0.20838
 10 Sn    0.00583    0.03219    0.02115
 11 Sn   -0.00605    0.01921    0.01478
 12 Sn    0.03604   -0.00964    0.15033
 13 Sn   -0.00001   -0.02383   -0.22309
 14 Sn    0.06802   -0.06666   -0.04164
 15 Sn   -0.08125    0.28017    0.22675
 16 Sn    0.01409    0.01975    0.15976
 17 Sn    0.01156    0.01693   -0.25083
 18 Sn    0.01069    0.13215   -0.22799
 19 Sn   -0.03541    0.93518   -0.54250
 20 Sn   -0.02271    0.00852    0.14931
 21 Sn   -0.01397    0.02998   -0.09774
 22 Sn    0.16565   -0.09129   -0.21235
 23 Sn   -0.00902   -0.01112    0.01299
 24 Sn   -0.00093    0.00961    0.17833
 25 Sn   -0.01969   -0.02589   -0.22081
 26 Sn    0.01117   -0.00203    0.07203
 27 Sn   -0.00338   -0.04741   -0.00575
 28 Sn    0.01244    0.04652    0.14144
 29 Sn   -0.01980   -0.01492   -0.23865
 30 Sn    0.00911    0.02391    0.02702
 31 Sn    0.05582    0.02619   -0.03547
 32 Sn    0.03661   -0.00568    0.14103
 33 Sn   -0.01298   -0.02211   -0.21394
 34 Sn   -0.14941   -0.09115   -0.19506
 35 Sn   -0.00757   -0.00288    0.00890
 36 H     0.00224    0.48189    1.24957
 37 O     0.00196   -0.50441   -0.68425
 38 C    -0.15303   -0.90457    0.44383
 39 C     0.20886    0.22799    0.16904
 40 O    -0.08840   -0.76753   -0.51210

BFGS:    3 05:08:42    -5958.953251        1.3393
System changes: positions 

Initializing position-dependent things.

Density initialized from wave functions
                                                  
                                                  
                                                  
                                                  
                                                  
                                                  
                                                  
                     O                            
                    H                             
           Sn      SOC     Sn                     
                    C                             
            SSn     SSn     SnSn                  
               Sn       Sn      Sn                
              Sn       Sn      Sn                 
                 Sn      Sn      Sn               
               Sn       Sn      Sn                
                                                  
                  Sn      Sn      Sn              
                    Sn       Sn      Sn           
           Sn      Sn      Sn                     
                                                  
             Sn      Sn       Sn                  
               Sn       Sn      Sn                
                                                  
                                                  
                                                  
                                                  

Positions:
   0 Sn    -0.000000    0.000000   10.000000    ( 0.0000,  0.0000,  0.0000)
   1 Sn     1.710646    0.987642   12.793473    ( 0.0000,  0.0000,  0.0000)
   2 Sn    -0.002882    1.969379   15.707109    ( 0.0000,  0.0000,  0.0000)
   3 Sn     0.003626    0.022616   18.409416    ( 0.0000,  0.0000,  0.0000)
   4 Sn    -1.710646    2.962925   10.000000    ( 0.0000,  0.0000,  0.0000)
   5 Sn    -0.000000    3.950567   12.793473    ( 0.0000,  0.0000,  0.0000)
   6 Sn    -1.708320    4.940075   15.712836    ( 0.0000,  0.0000,  0.0000)
   7 Sn    -1.718489    2.966575   18.389311    ( 0.0000,  0.0000,  0.0000)
   8 Sn    -3.421291    5.925850   10.000000    ( 0.0000,  0.0000,  0.0000)
   9 Sn    -1.710646    6.913492   12.793473    ( 0.0000,  0.0000,  0.0000)
  10 Sn    -3.420824    7.903958   15.710714    ( 0.0000,  0.0000,  0.0000)
  11 Sn    -3.421882    5.925692   18.392629    ( 0.0000,  0.0000,  0.0000)
  12 Sn     3.421291    0.000000   10.000000    ( 0.0000,  0.0000,  0.0000)
  13 Sn     5.131937    0.987642   12.793473    ( 0.0000,  0.0000,  0.0000)
  14 Sn     3.426311    1.969568   15.706771    ( 0.0000,  0.0000,  0.0000)
  15 Sn     3.420890    0.024011   18.405153    ( 0.0000,  0.0000,  0.0000)
  16 Sn     1.710646    2.962925   10.000000    ( 0.0000,  0.0000,  0.0000)
  17 Sn     3.421291    3.950567   12.793473    ( 0.0000,  0.0000,  0.0000)
  18 Sn     1.711627    4.947645   15.692918    ( 0.0000,  0.0000,  0.0000)
  19 Sn     1.708310    3.101577   18.202728    ( 0.0000,  0.0000,  0.0000)
  20 Sn    -0.000000    5.925850   10.000000    ( 0.0000,  0.0000,  0.0000)
  21 Sn     1.710646    6.913492   12.793473    ( 0.0000,  0.0000,  0.0000)
  22 Sn     0.016376    7.892421   15.688321    ( 0.0000,  0.0000,  0.0000)
  23 Sn     0.000781    5.921811   18.393275    ( 0.0000,  0.0000,  0.0000)
  24 Sn     6.842582    0.000000   10.000000    ( 0.0000,  0.0000,  0.0000)
  25 Sn     8.553228    0.987642   12.793473    ( 0.0000,  0.0000,  0.0000)
  26 Sn     6.843608    1.975285   15.715815    ( 0.0000,  0.0000,  0.0000)
  27 Sn     6.842257   -0.004385   18.391879    ( 0.0000,  0.0000,  0.0000)
  28 Sn     5.131937    2.962925   10.000000    ( 0.0000,  0.0000,  0.0000)
  29 Sn     6.842582    3.950567   12.793473    ( 0.0000,  0.0000,  0.0000)
  30 Sn     5.132198    4.940155   15.712544    ( 0.0000,  0.0000,  0.0000)
  31 Sn     5.138486    2.966263   18.387979    ( 0.0000,  0.0000,  0.0000)
  32 Sn     3.421291    5.925850   10.000000    ( 0.0000,  0.0000,  0.0000)
  33 Sn     5.131937    6.913492   12.793473    ( 0.0000,  0.0000,  0.0000)
  34 Sn     3.406450    7.892463   15.690095    ( 0.0000,  0.0000,  0.0000)
  35 Sn     3.418996    5.922826   18.392890    ( 0.0000,  0.0000,  0.0000)
  36 H      1.775020    0.423559   21.800273    ( 0.0000,  0.0000,  0.0000)
  37 O      1.757756   -0.035765   20.975869    ( 0.0000,  0.0000,  0.0000)
  38 C      1.735600    0.947817   19.952611    ( 0.0000,  0.0000,  0.0000)
  39 C      1.710416    2.305610   20.338720    ( 0.0000,  0.0000,  0.0000)
  40 O      1.724286    2.942101   21.385857    ( 0.0000,  0.0000,  0.0000)

Unit cell:
           periodic     x           y           z      points  spacing
  1. axis:    yes   10.263874    0.000000    0.000000    48     0.1852
  2. axis:    yes   -5.131937    8.888775    0.000000    48     0.1852
  3. axis:    no     0.000000    0.000000   28.380418   156     0.1819

  Lengths:  10.263874  10.263874  28.380418
  Angles:   90.000000  90.000000 120.000000

Effective grid spacing dv^(1/3) = 0.1931

     iter     time        total  log10-change:
                         energy  eigst   dens
iter:   1 05:09:55 -5959.106978  -2.05
iter:   2 05:10:35 -5959.079126  -2.89  -2.64
iter:   3 05:11:16 -5959.062520c -3.45  -2.69
iter:   4 05:11:56 -5959.050067c -3.70  -2.87
iter:   5 05:12:36 -5959.047930c -3.91  -3.31
iter:   6 05:13:17 -5959.046711c -4.04  -3.40
iter:   7 05:13:57 -5959.046657c -4.68  -3.63
iter:   8 05:14:38 -5959.046503c -4.85  -3.66
iter:   9 05:15:18 -5959.046515c -5.39  -3.94
iter:  10 05:15:58 -5959.046516c -5.69  -3.98
iter:  11 05:16:39 -5959.046623c -5.93  -4.06c
iter:  12 05:17:19 -5959.046562c -6.02  -4.11c
iter:  13 05:18:00 -5959.046565c -6.60  -4.32c
iter:  14 05:18:40 -5959.046548c -6.85  -4.42c
iter:  15 05:19:20 -5959.046561c -7.09  -4.61c
iter:  16 05:20:01 -5959.046559c -7.22  -4.74c
iter:  17 05:20:41 -5959.046555c -7.17  -4.81c
iter:  18 05:21:22 -5959.046545c -7.36  -4.90c
iter:  19 05:22:02 -5959.046550c -7.62c -5.02c

Converged after 19 iterations.

Dipole moment: (-4.031906, -18.828286, -0.462264) |e|*Ang

Energy contributions relative to reference atoms: (reference = -6054534.410051)

Kinetic:       +972.570542
Potential:     -931.347379
External:        +0.000000
XC:            -5999.280527
Entropy (-ST):   -0.660583
Local:           -0.658894
--------------------------
Free energy:   -5959.376842
Extrapolated:  -5959.046550

Showing only first 2 kpts
 Kpt  Band  Eigenvalues  Occupancy
  0   260     -4.65700    1.60399
  0   261     -4.59697    1.37932
  0   262     -4.49853    0.90735
  0   263     -4.43770    0.62256

  1   260     -5.06532    1.99171
  1   261     -5.02542    1.98767
  1   262     -4.96237    1.97697
  1   263     -4.84253    1.92565


Fermi level: -4.51712

No gap

Forces in eV/Ang:
  0 Sn   -0.01308   -0.02018    0.14638
  1 Sn   -0.01017    0.01166   -0.22712
  2 Sn   -0.04768   -0.07854   -0.04066
  3 Sn    0.12661    0.27036    0.28055
  4 Sn   -0.02281    0.02841    0.14281
  5 Sn   -0.01148    0.01444   -0.24914
  6 Sn    0.01685    0.02522    0.02695
  7 Sn   -0.05199    0.02068   -0.01251
  8 Sn   -0.01881   -0.02442    0.10985
  9 Sn    0.01914   -0.00490   -0.20908
 10 Sn    0.00654    0.03664    0.03185
 11 Sn   -0.00507    0.02965    0.01490
 12 Sn    0.03692   -0.01030    0.14986
 13 Sn    0.00041   -0.02274   -0.22622
 14 Sn    0.06998   -0.06955   -0.04452
 15 Sn   -0.11299    0.27769    0.24318
 16 Sn    0.01465    0.02462    0.16020
 17 Sn    0.01101    0.01620   -0.25286
 18 Sn    0.00973    0.14674   -0.26912
 19 Sn   -0.02401    0.67177   -0.09923
 20 Sn   -0.02238    0.00747    0.14959
 21 Sn   -0.01479    0.03180   -0.11289
 22 Sn    0.14537   -0.08005   -0.18721
 23 Sn   -0.02665    0.01813    0.01499
 24 Sn   -0.00131    0.00828    0.17907
 25 Sn   -0.01969   -0.02393   -0.22432
 26 Sn    0.01152   -0.00555    0.06483
 27 Sn   -0.00284   -0.04606   -0.00652
 28 Sn    0.01289    0.04693    0.13941
 29 Sn   -0.01880   -0.01552   -0.23728
 30 Sn    0.01356    0.02524    0.02121
 31 Sn    0.04317    0.01881   -0.02314
 32 Sn    0.03430   -0.00824    0.14113
 33 Sn   -0.01376   -0.02388   -0.21338
 34 Sn   -0.12918   -0.07886   -0.17236
 35 Sn    0.01024    0.02289    0.01129
 36 H     0.00332    0.49841    1.34200
 37 O    -0.06654   -0.41924   -0.82080
 38 C    -0.06424   -1.18846    0.14911
 39 C     0.09850    0.29729   -0.29144
 40 O    -0.03604   -0.46726   -0.18178

BFGS:    4 05:22:17    -5959.046550        1.4316
System changes: positions 

Initializing position-dependent things.

Density initialized from wave functions
                                                  
                                                  
                                                  
                                                  
                                                  
                                                  
                                                  
                     O                            
                    H                             
           Sn      SOC     Sn                     
                    C                             
            SSn     SSn     SnSn                  
                Sn      Sn      Sn                
              Sn       Sn      Sn                 
                 Sn      Sn      Sn               
               Sn       Sn      Sn                
                                                  
                  Sn      Sn      Sn              
                    Sn       Sn      Sn           
           Sn      Sn      Sn                     
                                                  
             Sn      Sn       Sn                  
               Sn       Sn      Sn                
                                                  
                                                  
                                                  
                                                  

Positions:
   0 Sn    -0.000000    0.000000   10.000000    ( 0.0000,  0.0000,  0.0000)
   1 Sn     1.710646    0.987642   12.793473    ( 0.0000,  0.0000,  0.0000)
   2 Sn    -0.007189    1.962009   15.703731    ( 0.0000,  0.0000,  0.0000)
   3 Sn     0.012519    0.050570   18.434604    ( 0.0000,  0.0000,  0.0000)
   4 Sn    -1.710646    2.962925   10.000000    ( 0.0000,  0.0000,  0.0000)
   5 Sn    -0.000000    3.950567   12.793473    ( 0.0000,  0.0000,  0.0000)
   6 Sn    -1.706144    4.942488   15.716249    ( 0.0000,  0.0000,  0.0000)
   7 Sn    -1.725552    2.969643   18.387086    ( 0.0000,  0.0000,  0.0000)
   8 Sn    -3.421291    5.925850   10.000000    ( 0.0000,  0.0000,  0.0000)
   9 Sn    -1.710646    6.913492   12.793473    ( 0.0000,  0.0000,  0.0000)
  10 Sn    -3.420242    7.907393   15.712957    ( 0.0000,  0.0000,  0.0000)
  11 Sn    -3.422497    5.927087   18.393959    ( 0.0000,  0.0000,  0.0000)
  12 Sn     3.421291    0.000000   10.000000    ( 0.0000,  0.0000,  0.0000)
  13 Sn     5.131937    0.987642   12.793473    ( 0.0000,  0.0000,  0.0000)
  14 Sn     3.433042    1.962774   15.702966    ( 0.0000,  0.0000,  0.0000)
  15 Sn     3.414766    0.053251   18.426019    ( 0.0000,  0.0000,  0.0000)
  16 Sn     1.710646    2.962925   10.000000    ( 0.0000,  0.0000,  0.0000)
  17 Sn     3.421291    3.950567   12.793473    ( 0.0000,  0.0000,  0.0000)
  18 Sn     1.712694    4.960679   15.670074    ( 0.0000,  0.0000,  0.0000)
  19 Sn     1.704980    3.202265   18.127692    ( 0.0000,  0.0000,  0.0000)
  20 Sn    -0.000000    5.925850   10.000000    ( 0.0000,  0.0000,  0.0000)
  21 Sn     1.710646    6.913492   12.793473    ( 0.0000,  0.0000,  0.0000)
  22 Sn     0.033503    7.883100   15.666554    ( 0.0000,  0.0000,  0.0000)
  23 Sn    -0.000109    5.920506   18.394605    ( 0.0000,  0.0000,  0.0000)
  24 Sn     6.842582    0.000000   10.000000    ( 0.0000,  0.0000,  0.0000)
  25 Sn     8.553228    0.987642   12.793473    ( 0.0000,  0.0000,  0.0000)
  26 Sn     6.844791    1.975030   15.723025    ( 0.0000,  0.0000,  0.0000)
  27 Sn     6.841897   -0.009233   18.391579    ( 0.0000,  0.0000,  0.0000)
  28 Sn     5.131937    2.962925   10.000000    ( 0.0000,  0.0000,  0.0000)
  29 Sn     6.842582    3.950567   12.793473    ( 0.0000,  0.0000,  0.0000)
  30 Sn     5.133069    4.942608   15.715519    ( 0.0000,  0.0000,  0.0000)
  31 Sn     5.144329    2.969072   18.384469    ( 0.0000,  0.0000,  0.0000)
  32 Sn     3.421291    5.925850   10.000000    ( 0.0000,  0.0000,  0.0000)
  33 Sn     5.131937    6.913492   12.793473    ( 0.0000,  0.0000,  0.0000)
  34 Sn     3.391011    7.883173   15.670107    ( 0.0000,  0.0000,  0.0000)
  35 Sn     3.418156    5.922383   18.393822    ( 0.0000,  0.0000,  0.0000)
  36 H      1.773499    0.428924   21.846579    ( 0.0000,  0.0000,  0.0000)
  37 O      1.759273   -0.061275   21.014129    ( 0.0000,  0.0000,  0.0000)
  38 C      1.720058    0.899532   19.979849    ( 0.0000,  0.0000,  0.0000)
  39 C      1.730168    2.270776   20.321712    ( 0.0000,  0.0000,  0.0000)
  40 O      1.717309    2.889928   21.380833    ( 0.0000,  0.0000,  0.0000)

Unit cell:
           periodic     x           y           z      points  spacing
  1. axis:    yes   10.263874    0.000000    0.000000    48     0.1852
  2. axis:    yes   -5.131937    8.888775    0.000000    48     0.1852
  3. axis:    no     0.000000    0.000000   28.380418   156     0.1819

  Lengths:  10.263874  10.263874  28.380418
  Angles:   90.000000  90.000000 120.000000

Effective grid spacing dv^(1/3) = 0.1931

     iter     time        total  log10-change:
                         energy  eigst   dens
iter:   1 05:23:29 -5959.238677  -1.31
iter:   2 05:24:09 -5959.244622  -2.21  -2.69
iter:   3 05:24:49 -5959.234583c -2.74  -2.75
iter:   4 05:25:29 -5959.216213c -2.82  -2.72
iter:   5 05:26:10 -5959.210953c -3.59  -2.97
iter:   6 05:26:50 -5959.209529c -3.52  -3.16
iter:   7 05:27:30 -5959.210144c -3.91  -3.34
iter:   8 05:28:11 -5959.210167c -3.98  -3.46
iter:   9 05:28:51 -5959.209458c -4.83  -3.50
iter:  10 05:29:31 -5959.209556c -5.09  -3.62
iter:  11 05:30:11 -5959.209413c -5.18  -3.71
iter:  12 05:30:51 -5959.209433c -5.38  -3.90
iter:  13 05:31:31 -5959.209488c -6.13  -4.03c
iter:  14 05:32:12 -5959.209539c -6.02  -4.11c
iter:  15 05:32:52 -5959.209530c -6.05  -4.29c
iter:  16 05:33:32 -5959.209532c -6.64  -4.39c
iter:  17 05:34:12 -5959.209518c -6.84  -4.51c
iter:  18 05:34:53 -5959.209531c -6.94  -4.66c
iter:  19 05:35:33 -5959.209520c -7.37  -4.73c
iter:  20 05:36:13 -5959.209528c -7.74c -4.84c

Converged after 20 iterations.

Dipole moment: (-4.581284, -19.874950, -0.443504) |e|*Ang

Energy contributions relative to reference atoms: (reference = -6054534.410051)

Kinetic:       +970.577363
Potential:     -929.998602
External:        +0.000000
XC:            -5998.821452
Entropy (-ST):   -0.656998
Local:           -0.638338
--------------------------
Free energy:   -5959.538027
Extrapolated:  -5959.209528

Showing only first 2 kpts
 Kpt  Band  Eigenvalues  Occupancy
  0   260     -4.65290    1.62583
  0   261     -4.58102    1.35848
  0   262     -4.48766    0.90860
  0   263     -4.42827    0.62981

  1   260     -5.05797    1.99202
  1   261     -5.01006    1.98714
  1   262     -4.95099    1.97691
  1   263     -4.83466    1.92794


Fermi level: -4.50599

No gap

Forces in eV/Ang:
  0 Sn   -0.01284   -0.01802    0.14564
  1 Sn   -0.01165    0.01166   -0.22532
  2 Sn   -0.05850   -0.09129   -0.04454
  3 Sn    0.12423    0.26721    0.29189
  4 Sn   -0.02584    0.02855    0.13904
  5 Sn   -0.01490    0.01190   -0.24491
  6 Sn    0.01046    0.02734    0.01623
  7 Sn   -0.01692    0.00561    0.00922
  8 Sn   -0.01444   -0.02779    0.10967
  9 Sn    0.01783   -0.01269   -0.21418
 10 Sn    0.00807    0.05115    0.07076
 11 Sn   -0.00244    0.05427    0.00855
 12 Sn    0.03854   -0.01248    0.15054
 13 Sn    0.00144   -0.01991   -0.23376
 14 Sn    0.07714   -0.07808   -0.04580
 15 Sn   -0.12046    0.26093    0.25238
 16 Sn    0.01627    0.03281    0.16255
 17 Sn    0.01068    0.01386   -0.25344
 18 Sn    0.00834    0.21579   -0.41438
 19 Sn   -0.00139    0.04420    0.74550
 20 Sn   -0.02343    0.00654    0.15009
 21 Sn   -0.01649    0.03770   -0.15095
 22 Sn    0.08857   -0.05115   -0.11598
 23 Sn   -0.08602    0.10624    0.01926
 24 Sn   -0.00263    0.00503    0.18100
 25 Sn   -0.01907   -0.01792   -0.23111
 26 Sn    0.01482   -0.01224    0.04787
 27 Sn   -0.00220   -0.04596   -0.01254
 28 Sn    0.01721    0.04665    0.13473
 29 Sn   -0.01595   -0.01694   -0.23376
 30 Sn    0.02324    0.02823    0.00707
 31 Sn    0.01428    0.00503    0.00355
 32 Sn    0.03063   -0.01181    0.14198
 33 Sn   -0.01289   -0.02755   -0.21676
 34 Sn   -0.07565   -0.04838   -0.10938
 35 Sn    0.06886    0.10068    0.01578
 36 H    -0.01239   -0.06679    0.34680
 37 O    -0.04424    0.18441    0.26121
 38 C     0.08421   -1.03517   -0.38316
 39 C    -0.09721    0.46333   -0.19529
 40 O     0.00752   -0.43366   -0.43127

BFGS:    5 05:36:28    -5959.209528        1.1070
System changes: positions 

Initializing position-dependent things.

Density initialized from wave functions
                                                  
                                                  
                                                  
                                                  
                                                  
                                                  
                                                  
                     O                            
                    H                             
           Sn      SOC     Sn                     
                    C                             
            SSn     SnSn    SnSn                  
                Sn      Sn      Sn                
              Sn       Sn      Sn                 
                 Sn      Sn      Sn               
               Sn       Sn      Sn                
                                                  
                  Sn      Sn      Sn              
                    Sn       Sn      Sn           
           Sn      Sn      Sn                     
                                                  
             Sn      Sn       Sn                  
               Sn       Sn      Sn                
                                                  
                                                  
                                                  
                                                  

Positions:
   0 Sn    -0.000000    0.000000   10.000000    ( 0.0000,  0.0000,  0.0000)
   1 Sn     1.710646    0.987642   12.793473    ( 0.0000,  0.0000,  0.0000)
   2 Sn    -0.010500    1.956500   15.701182    ( 0.0000,  0.0000,  0.0000)
   3 Sn     0.019287    0.070119   18.453053    ( 0.0000,  0.0000,  0.0000)
   4 Sn    -1.710646    2.962925   10.000000    ( 0.0000,  0.0000,  0.0000)
   5 Sn    -0.000000    3.950567   12.793473    ( 0.0000,  0.0000,  0.0000)
   6 Sn    -1.704797    4.944244   15.718353    ( 0.0000,  0.0000,  0.0000)
   7 Sn    -1.729615    2.971383   18.386054    ( 0.0000,  0.0000,  0.0000)
   8 Sn    -3.421291    5.925850   10.000000    ( 0.0000,  0.0000,  0.0000)
   9 Sn    -1.710646    6.913492   12.793473    ( 0.0000,  0.0000,  0.0000)
  10 Sn    -3.419793    7.910126   15.715414    ( 0.0000,  0.0000,  0.0000)
  11 Sn    -3.422865    5.928766   18.394804    ( 0.0000,  0.0000,  0.0000)
  12 Sn     3.421291    0.000000   10.000000    ( 0.0000,  0.0000,  0.0000)
  13 Sn     5.131937    0.987642   12.793473    ( 0.0000,  0.0000,  0.0000)
  14 Sn     3.437969    1.957797   15.700171    ( 0.0000,  0.0000,  0.0000)
  15 Sn     3.409576    0.073380   18.441471    ( 0.0000,  0.0000,  0.0000)
  16 Sn     1.710646    2.962925   10.000000    ( 0.0000,  0.0000,  0.0000)
  17 Sn     3.421291    3.950567   12.793473    ( 0.0000,  0.0000,  0.0000)
  18 Sn     1.713409    4.971446   15.650605    ( 0.0000,  0.0000,  0.0000)
  19 Sn     1.703173    3.256554   18.100317    ( 0.0000,  0.0000,  0.0000)
  20 Sn    -0.000000    5.925850   10.000000    ( 0.0000,  0.0000,  0.0000)
  21 Sn     1.710646    6.913492   12.793473    ( 0.0000,  0.0000,  0.0000)
  22 Sn     0.044159    7.877247   15.652960    ( 0.0000,  0.0000,  0.0000)
  23 Sn    -0.002121    5.921708   18.395640    ( 0.0000,  0.0000,  0.0000)
  24 Sn     6.842582    0.000000   10.000000    ( 0.0000,  0.0000,  0.0000)
  25 Sn     8.553228    0.987642   12.793473    ( 0.0000,  0.0000,  0.0000)
  26 Sn     6.845686    1.974683   15.727702    ( 0.0000,  0.0000,  0.0000)
  27 Sn     6.841663   -0.012623   18.391200    ( 0.0000,  0.0000,  0.0000)
  28 Sn     5.131937    2.962925   10.000000    ( 0.0000,  0.0000,  0.0000)
  29 Sn     6.842582    3.950567   12.793473    ( 0.0000,  0.0000,  0.0000)
  30 Sn     5.133936    4.944404   15.717231    ( 0.0000,  0.0000,  0.0000)
  31 Sn     5.147694    2.970665   18.382654    ( 0.0000,  0.0000,  0.0000)
  32 Sn     3.421291    5.925850   10.000000    ( 0.0000,  0.0000,  0.0000)
  33 Sn     5.131937    6.913492   12.793473    ( 0.0000,  0.0000,  0.0000)
  34 Sn     3.381471    7.877381   15.657568    ( 0.0000,  0.0000,  0.0000)
  35 Sn     3.418943    5.923941   18.394584    ( 0.0000,  0.0000,  0.0000)
  36 H      1.772398    0.428440   21.873085    ( 0.0000,  0.0000,  0.0000)
  37 O      1.759735   -0.069749   21.043492    ( 0.0000,  0.0000,  0.0000)
  38 C      1.713116    0.857800   19.988439    ( 0.0000,  0.0000,  0.0000)
  39 C      1.739101    2.259043   20.309999    ( 0.0000,  0.0000,  0.0000)
  40 O      1.713615    2.854008   21.369995    ( 0.0000,  0.0000,  0.0000)

Unit cell:
           periodic     x           y           z      points  spacing
  1. axis:    yes   10.263874    0.000000    0.000000    48     0.1852
  2. axis:    yes   -5.131937    8.888775    0.000000    48     0.1852
  3. axis:    no     0.000000    0.000000   28.380418   156     0.1819

  Lengths:  10.263874  10.263874  28.380418
  Angles:   90.000000  90.000000 120.000000

Effective grid spacing dv^(1/3) = 0.1931

     iter     time        total  log10-change:
                         energy  eigst   dens
iter:   1 05:37:40 -5959.322224  -1.71
iter:   2 05:38:21 -5959.303381  -2.55  -2.68
iter:   3 05:39:01 -5959.292000c -3.11  -2.72
iter:   4 05:39:41 -5959.276668c -3.34  -2.82
iter:   5 05:40:21 -5959.273468c -3.60  -3.15
iter:   6 05:41:02 -5959.272538c -3.85  -3.26
iter:   7 05:41:42 -5959.272392c -4.60  -3.52
iter:   8 05:42:22 -5959.272284c -4.41  -3.52
iter:   9 05:43:03 -5959.272172c -5.16  -3.76
iter:  10 05:43:43 -5959.272178c -5.31  -3.84
iter:  11 05:44:23 -5959.272195c -5.60  -3.99
iter:  12 05:45:03 -5959.272164c -5.78  -4.13c
iter:  13 05:45:44 -5959.272186c -6.36  -4.23c
iter:  14 05:46:24 -5959.272159c -6.71  -4.30c
iter:  15 05:47:04 -5959.272179c -6.42  -4.33c
iter:  16 05:47:44 -5959.272177c -6.91  -4.56c
iter:  17 05:48:25 -5959.272180c -7.27  -4.68c
iter:  18 05:49:05 -5959.272186c -7.24  -4.78c
iter:  19 05:49:45 -5959.272180c -7.73c -4.93c

Converged after 19 iterations.

Dipole moment: (-4.627858, -21.335643, -0.402651) |e|*Ang

Energy contributions relative to reference atoms: (reference = -6054534.410051)

Kinetic:       +970.804743
Potential:     -930.291309
External:        +0.000000
XC:            -5998.825653
Entropy (-ST):   -0.653722
Local:           -0.633100
--------------------------
Free energy:   -5959.599041
Extrapolated:  -5959.272180

Showing only first 2 kpts
 Kpt  Band  Eigenvalues  Occupancy
  0   260     -4.63269    1.64069
  0   261     -4.55297    1.34586
  0   262     -4.46116    0.90198
  0   263     -4.40159    0.62333

  1   260     -5.03535    1.99222
  1   261     -4.98319    1.98693
  1   262     -4.92615    1.97699
  1   263     -4.81622    1.93247


Fermi level: -4.48082

No gap

Forces in eV/Ang:
  0 Sn   -0.01394   -0.01717    0.14716
  1 Sn   -0.01205    0.00981   -0.22272
  2 Sn   -0.05090   -0.08953   -0.03015
  3 Sn    0.08098    0.18307    0.20958
  4 Sn   -0.02874    0.02931    0.13851
  5 Sn   -0.01909    0.00877   -0.24355
  6 Sn    0.01124    0.02701    0.01448
  7 Sn    0.00148   -0.00018    0.01984
  8 Sn   -0.01127   -0.03063    0.11078
  9 Sn    0.01436   -0.01690   -0.21732
 10 Sn    0.00901    0.06501    0.09816
 11 Sn   -0.00092    0.06610    0.00471
 12 Sn    0.04050   -0.01338    0.15252
 13 Sn    0.00263   -0.01751   -0.23840
 14 Sn    0.06875   -0.07464   -0.03067
 15 Sn   -0.09193    0.16880    0.18522
 16 Sn    0.01702    0.03745    0.16670
 17 Sn    0.01247    0.01124   -0.25479
 18 Sn    0.00691    0.22773   -0.47009
 19 Sn    0.00481   -0.23477    0.98079
 20 Sn   -0.02450    0.00503    0.15270
 21 Sn   -0.01713    0.04383   -0.17860
 22 Sn    0.03690   -0.02369   -0.07002
 23 Sn   -0.12173    0.15937    0.01543
 24 Sn   -0.00340    0.00298    0.18237
 25 Sn   -0.01915   -0.01338   -0.23417
 26 Sn    0.01731   -0.01701    0.04404
 27 Sn   -0.00201   -0.04604   -0.01333
 28 Sn    0.02098    0.04649    0.13471
 29 Sn   -0.01397   -0.01701   -0.23353
 30 Sn    0.02517    0.02832    0.00335
 31 Sn   -0.00288    0.00032    0.01691
 32 Sn    0.02864   -0.01383    0.14547
 33 Sn   -0.00987   -0.02958   -0.21973
 34 Sn   -0.02682   -0.02059   -0.06688
 35 Sn    0.10409    0.14692    0.01301
 36 H    -0.01991   -0.03676    0.22513
 37 O    -0.11351    0.14553    0.32940
 38 C     0.17257   -0.35033   -0.35435
 39 C    -0.22655   -0.21832   -0.79044
 40 O     0.06261   -0.11452    0.02707

BFGS:    6 05:50:00    -5959.272180        1.0085
System changes: positions 

Initializing position-dependent things.

Density initialized from wave functions
                                                  
                                                  
                                                  
                                                  
                                                  
                                                  
                                                  
                     O                            
                    H                             
           Sn      SOC     Sn                     
                    C                             
            SSn       Sn      Sn                  
                    Sn      Sn                    
              SnSn     SSn     SSn                
                                                  
                 Sn      Sn      Sn               
               Sn       Sn      Sn                
                  Sn      Sn      Sn              
                                                  
                    Sn       Sn      Sn           
           Sn      Sn      Sn                     
                                                  
             Sn      Sn       Sn                  
               Sn       Sn      Sn                
                                                  
                                                  
                                                  
                                                  

Positions:
   0 Sn    -0.000000    0.000000   10.000000    ( 0.0000,  0.0000,  0.0000)
   1 Sn     1.710646    0.987642   12.793473    ( 0.0000,  0.0000,  0.0000)
   2 Sn    -0.013705    1.951063   15.698899    ( 0.0000,  0.0000,  0.0000)
   3 Sn     0.025345    0.086675   18.469433    ( 0.0000,  0.0000,  0.0000)
   4 Sn    -1.710646    2.962925   10.000000    ( 0.0000,  0.0000,  0.0000)
   5 Sn    -0.000000    3.950567   12.793473    ( 0.0000,  0.0000,  0.0000)
   6 Sn    -1.703656    4.945949   15.720061    ( 0.0000,  0.0000,  0.0000)
   7 Sn    -1.732344    2.972567   18.385718    ( 0.0000,  0.0000,  0.0000)
   8 Sn    -3.421291    5.925850   10.000000    ( 0.0000,  0.0000,  0.0000)
   9 Sn    -1.710646    6.913492   12.793473    ( 0.0000,  0.0000,  0.0000)
  10 Sn    -3.419315    7.913236   15.718981    ( 0.0000,  0.0000,  0.0000)
  11 Sn    -3.423133    5.931188   18.395468    ( 0.0000,  0.0000,  0.0000)
  12 Sn     3.421291    0.000000   10.000000    ( 0.0000,  0.0000,  0.0000)
  13 Sn     5.131937    0.987642   12.793473    ( 0.0000,  0.0000,  0.0000)
  14 Sn     3.442618    1.953006   15.697709    ( 0.0000,  0.0000,  0.0000)
  15 Sn     3.404358    0.090070   18.455414    ( 0.0000,  0.0000,  0.0000)
  16 Sn     1.710646    2.962925   10.000000    ( 0.0000,  0.0000,  0.0000)
  17 Sn     3.421291    3.950567   12.793473    ( 0.0000,  0.0000,  0.0000)
  18 Sn     1.714027    4.983112   15.628386    ( 0.0000,  0.0000,  0.0000)
  19 Sn     1.701995    3.288773   18.100895    ( 0.0000,  0.0000,  0.0000)
  20 Sn    -0.000000    5.925850   10.000000    ( 0.0000,  0.0000,  0.0000)
  21 Sn     1.710646    6.913492   12.793473    ( 0.0000,  0.0000,  0.0000)
  22 Sn     0.052046    7.872842   15.642410    ( 0.0000,  0.0000,  0.0000)
  23 Sn    -0.005840    5.925606   18.396620    ( 0.0000,  0.0000,  0.0000)
  24 Sn     6.842582    0.000000   10.000000    ( 0.0000,  0.0000,  0.0000)
  25 Sn     8.553228    0.987642   12.793473    ( 0.0000,  0.0000,  0.0000)
  26 Sn     6.846628    1.974125   15.731743    ( 0.0000,  0.0000,  0.0000)
  27 Sn     6.841466   -0.015810   18.390676    ( 0.0000,  0.0000,  0.0000)
  28 Sn     5.131937    2.962925   10.000000    ( 0.0000,  0.0000,  0.0000)
  29 Sn     6.842582    3.950567   12.793473    ( 0.0000,  0.0000,  0.0000)
  30 Sn     5.134999    4.946162   15.718459    ( 0.0000,  0.0000,  0.0000)
  31 Sn     5.149918    2.971758   18.381729    ( 0.0000,  0.0000,  0.0000)
  32 Sn     3.421291    5.925850   10.000000    ( 0.0000,  0.0000,  0.0000)
  33 Sn     5.131937    6.913492   12.793473    ( 0.0000,  0.0000,  0.0000)
  34 Sn     3.374528    7.873073   15.647795    ( 0.0000,  0.0000,  0.0000)
  35 Sn     3.421493    5.927839   18.395332    ( 0.0000,  0.0000,  0.0000)
  36 H      1.771306    0.428930   21.897615    ( 0.0000,  0.0000,  0.0000)
  37 O      1.757886   -0.073763   21.066305    ( 0.0000,  0.0000,  0.0000)
  38 C      1.711620    0.823101   19.989403    ( 0.0000,  0.0000,  0.0000)
  39 C      1.740941    2.247547   20.287200    ( 0.0000,  0.0000,  0.0000)
  40 O      1.712204    2.826426   21.361896    ( 0.0000,  0.0000,  0.0000)

Unit cell:
           periodic     x           y           z      points  spacing
  1. axis:    yes   10.263874    0.000000    0.000000    48     0.1852
  2. axis:    yes   -5.131937    8.888775    0.000000    48     0.1852
  3. axis:    no     0.000000    0.000000   28.380418   156     0.1819

  Lengths:  10.263874  10.263874  28.380418
  Angles:   90.000000  90.000000 120.000000

Effective grid spacing dv^(1/3) = 0.1931

     iter     time        total  log10-change:
                         energy  eigst   dens
iter:   1 05:51:12 -5959.333191  -1.93
iter:   2 05:51:52 -5959.334807  -2.79  -2.97
iter:   3 05:52:33 -5959.333986c -3.37  -3.00
iter:   4 05:53:13 -5959.329528c -3.31  -3.07
iter:   5 05:53:53 -5959.328943c -4.13  -3.30
iter:   6 05:54:33 -5959.328753c -4.22  -3.43
iter:   7 05:55:13 -5959.329034c -4.44  -3.65
iter:   8 05:55:54 -5959.328721c -4.87  -3.75
iter:   9 05:56:34 -5959.328754c -5.09  -3.91
iter:  10 05:57:14 -5959.328738c -5.77  -3.97
iter:  11 05:57:54 -5959.328768c -5.96  -4.09c
iter:  12 05:58:35 -5959.328739c -5.98  -4.27c
iter:  13 05:59:15 -5959.328741c -6.68  -4.37c
iter:  14 05:59:55 -5959.328749c -6.68  -4.48c
iter:  15 06:00:35 -5959.328760c -7.19  -4.57c
iter:  16 06:01:15 -5959.328753c -7.31  -4.66c
iter:  17 06:01:56 -5959.328753c -7.33  -4.87c
iter:  18 06:02:36 -5959.328748c -7.69c -4.96c

Converged after 18 iterations.

Dipole moment: (-4.631677, -22.715971, -0.405469) |e|*Ang

Energy contributions relative to reference atoms: (reference = -6054534.410051)

Kinetic:       +969.832253
Potential:     -929.563898
External:        +0.000000
XC:            -5998.640385
Entropy (-ST):   -0.650876
Local:           -0.631281
--------------------------
Free energy:   -5959.654186
Extrapolated:  -5959.328748

Showing only first 2 kpts
 Kpt  Band  Eigenvalues  Occupancy
  0   260     -4.63546    1.64747
  0   261     -4.55297    1.34390
  0   262     -4.46005    0.89430
  0   263     -4.39976    0.61360

  1   260     -5.03767    1.99236
  1   261     -4.98332    1.98688
  1   262     -4.93003    1.97776
  1   263     -4.82291    1.93642


Fermi level: -4.48127

No gap

Forces in eV/Ang:
  0 Sn   -0.01486   -0.01726    0.14912
  1 Sn   -0.01244    0.00823   -0.22322
  2 Sn   -0.03271   -0.07521   -0.00937
  3 Sn    0.00624    0.10361    0.11902
  4 Sn   -0.03212    0.02995    0.13763
  5 Sn   -0.02379    0.00624   -0.24489
  6 Sn    0.01515    0.02657    0.01499
  7 Sn    0.01351    0.00091    0.02600
  8 Sn   -0.00896   -0.03272    0.11204
  9 Sn    0.01133   -0.01950   -0.22090
 10 Sn    0.00962    0.07302    0.11750
 11 Sn   -0.00061    0.06902    0.00324
 12 Sn    0.04219   -0.01390    0.15406
 13 Sn    0.00508   -0.01651   -0.24220
 14 Sn    0.05010   -0.05973   -0.01121
 15 Sn   -0.03228    0.09024    0.09959
 16 Sn    0.01753    0.03972    0.17023
 17 Sn    0.01553    0.00959   -0.25787
 18 Sn    0.00546    0.18440   -0.44728
 19 Sn    0.00930   -0.40070    0.99001
 20 Sn   -0.02558    0.00407    0.15545
 21 Sn   -0.01715    0.04938   -0.19926
 22 Sn    0.00272   -0.00443   -0.04635
 23 Sn   -0.13130    0.17620    0.00838
 24 Sn   -0.00389    0.00267    0.18184
 25 Sn   -0.02104   -0.01079   -0.23642
 26 Sn    0.01944   -0.02133    0.04416
 27 Sn   -0.00176   -0.04503   -0.01236
 28 Sn    0.02462    0.04566    0.13478
 29 Sn   -0.01238   -0.01730   -0.23555
 30 Sn    0.02316    0.02869    0.00392
 31 Sn   -0.01449    0.00165    0.02430
 32 Sn    0.02727   -0.01459    0.14894
 33 Sn   -0.00708   -0.03076   -0.22406
 34 Sn    0.01162    0.00201   -0.04139
 35 Sn    0.11422    0.15997    0.00591
 36 H    -0.03328   -0.00620   -0.00755
 37 O    -0.08955    0.10711    0.39205
 38 C     0.21216    0.08866   -0.14055
 39 C    -0.24681   -0.30878   -0.44174
 40 O     0.10798   -0.16073   -0.29607

BFGS:    7 06:02:51    -5959.328748        1.0681
System changes: positions 

Initializing position-dependent things.

Density initialized from wave functions
                                                  
                                                  
                                                  
                                                  
                                                  
                                                  
                                                  
                     O                            
                    H                             
           Sn      SOC     Sn                     
                    C                             
            SSn       Sn      Sn                  
                    Sn      Sn                    
              SnSn     SSn     SSn                
                                                  
                 Sn      Sn      Sn               
               Sn       Sn      Sn                
                  Sn      Sn      Sn              
                                                  
                    Sn       Sn      Sn           
           Sn      Sn      Sn                     
                                                  
             Sn      Sn       Sn                  
               Sn       Sn      Sn                
                                                  
                                                  
                                                  
                                                  

Positions:
   0 Sn    -0.000000    0.000000   10.000000    ( 0.0000,  0.0000,  0.0000)
   1 Sn     1.710646    0.987642   12.793473    ( 0.0000,  0.0000,  0.0000)
   2 Sn    -0.017832    1.943595   15.696337    ( 0.0000,  0.0000,  0.0000)
   3 Sn     0.031746    0.105400   18.488997    ( 0.0000,  0.0000,  0.0000)
   4 Sn    -1.710646    2.962925   10.000000    ( 0.0000,  0.0000,  0.0000)
   5 Sn    -0.000000    3.950567   12.793473    ( 0.0000,  0.0000,  0.0000)
   6 Sn    -1.702224    4.948360   15.721974    ( 0.0000,  0.0000,  0.0000)
   7 Sn    -1.734167    2.973531   18.386351    ( 0.0000,  0.0000,  0.0000)
   8 Sn    -3.421291    5.925850   10.000000    ( 0.0000,  0.0000,  0.0000)
   9 Sn    -1.710646    6.913492   12.793473    ( 0.0000,  0.0000,  0.0000)
  10 Sn    -3.418568    7.918388   15.726060    ( 0.0000,  0.0000,  0.0000)
  11 Sn    -3.423381    5.935796   18.396182    ( 0.0000,  0.0000,  0.0000)
  12 Sn     3.421291    0.000000   10.000000    ( 0.0000,  0.0000,  0.0000)
  13 Sn     5.131937    0.987642   12.793473    ( 0.0000,  0.0000,  0.0000)
  14 Sn     3.448580    1.946657   15.694942    ( 0.0000,  0.0000,  0.0000)
  15 Sn     3.397827    0.108423   18.472154    ( 0.0000,  0.0000,  0.0000)
[...]
  35 Sn     3.478089    6.020205   18.423024    ( 0.0000,  0.0000,  0.0000)
  36 H      1.685905    0.443845   22.019393    ( 0.0000,  0.0000,  0.0000)
  37 O      1.721819   -0.161489   21.257226    ( 0.0000,  0.0000,  0.0000)
  38 C      1.716966    0.640873   20.108436    ( 0.0000,  0.0000,  0.0000)
  39 C      1.725045    2.078103   20.347894    ( 0.0000,  0.0000,  0.0000)
  40 O      1.714961    2.603179   21.456621    ( 0.0000,  0.0000,  0.0000)

Unit cell:
           periodic     x           y           z      points  spacing
  1. axis:    yes   10.263874    0.000000    0.000000    48     0.1852
  2. axis:    yes   -5.131937    8.888775    0.000000    48     0.1852
  3. axis:    no     0.000000    0.000000   28.380418   156     0.1819

  Lengths:  10.263874  10.263874  28.380418
  Angles:   90.000000  90.000000 120.000000

Effective grid spacing dv^(1/3) = 0.1931

     iter     time        total  log10-change:
                         energy  eigst   dens
iter:   1 11:38:30 -5959.649613  -2.26
iter:   2 11:39:09 -5959.633315  -3.09  -2.67
iter:   3 11:39:49 -5959.617463c -3.73  -2.77
iter:   4 11:40:29 -5959.615567c -3.96  -3.29
iter:   5 11:41:09 -5959.615295c -4.25  -3.47
iter:   6 11:41:49 -5959.615287c -4.54  -3.62
iter:   7 11:42:29 -5959.615177c -5.06  -3.73
iter:   8 11:43:09 -5959.615288c -5.38  -3.89
iter:   9 11:43:49 -5959.615223c -5.89  -3.94
iter:  10 11:44:29 -5959.615244c -6.07  -3.98
iter:  11 11:45:09 -5959.615226c -6.45  -4.24c
iter:  12 11:45:49 -5959.615230c -6.58  -4.40c
iter:  13 11:46:29 -5959.615238c -6.89  -4.56c
iter:  14 11:47:09 -5959.615240c -7.13  -4.66c
iter:  15 11:47:49 -5959.615231c -7.27  -4.86c
iter:  16 11:48:29 -5959.615237c -7.91c -4.95c

Converged after 16 iterations.

Dipole moment: (-8.419497, -15.840327, -0.517743) |e|*Ang

Energy contributions relative to reference atoms: (reference = -6054534.410051)

Kinetic:       +962.116849
Potential:     -923.568552
External:        +0.000000
XC:            -5997.182385
Entropy (-ST):   -0.630846
Local:           -0.665726
--------------------------
Free energy:   -5959.930660
Extrapolated:  -5959.615237

Showing only first 2 kpts
 Kpt  Band  Eigenvalues  Occupancy
  0   260     -4.70398    1.70062
  0   261     -4.60758    1.36835
  0   262     -4.49556    0.82815
  0   263     -4.38631    0.38321

  1   260     -5.06997    1.99098
  1   261     -5.03120    1.98674
  1   262     -5.01092    1.98378
  1   263     -4.91068    1.95641


Fermi level: -4.53027

No gap

Forces in eV/Ang:
  0 Sn   -0.02101   -0.01141    0.19220
  1 Sn   -0.01777   -0.00507   -0.15221
  2 Sn    0.01671    0.01889   -0.00959
  3 Sn    0.00476   -0.01801   -0.01645
  4 Sn   -0.05491    0.03671    0.14686
  5 Sn   -0.05009   -0.03633   -0.21671
  6 Sn   -0.00909   -0.00338    0.00374
  7 Sn    0.00994   -0.02579   -0.01335
  8 Sn   -0.00066   -0.05070    0.13319
  9 Sn   -0.03899   -0.00930   -0.19644
 10 Sn   -0.02377   -0.00141   -0.01478
 11 Sn   -0.00062   -0.00354    0.01355
 12 Sn    0.04993   -0.00809    0.19163
 13 Sn   -0.01379    0.02148   -0.20251
 14 Sn   -0.00024    0.00850   -0.00467
 15 Sn    0.00867   -0.01118   -0.01244
 16 Sn    0.01202    0.03608    0.22101
 17 Sn    0.04628   -0.03252   -0.25086
 18 Sn   -0.02327   -0.01235    0.01016
 19 Sn   -0.00784   -0.00438   -0.03418
 20 Sn   -0.02910    0.00543    0.20319
 21 Sn   -0.00915    0.04737   -0.23278
 22 Sn    0.00326   -0.00368    0.01089
 23 Sn   -0.00238   -0.00314    0.00845
 24 Sn   -0.00440    0.02093    0.18703
 25 Sn    0.00490    0.02536   -0.20140
 26 Sn   -0.01423   -0.00175    0.02658
 27 Sn    0.00138    0.00562    0.01132
 28 Sn    0.05255    0.03353    0.14550
 29 Sn   -0.00120   -0.01666   -0.21415
 30 Sn    0.01038   -0.00413    0.01940
 31 Sn   -0.00312   -0.00874   -0.01280
 32 Sn    0.02188   -0.00627    0.19832
 33 Sn    0.04833   -0.01848   -0.20598
 34 Sn    0.01389    0.00501    0.00549
 35 Sn   -0.00258   -0.00786    0.00174
 36 H     0.00592   -0.05339    0.04912
 37 O    -0.01422    0.18066   -0.08229
 38 C     0.06501   -0.02672   -0.00206
 39 C    -0.04084   -0.08665    0.12634
 40 O     0.02324    0.01854   -0.05505

BFGS:   40 11:48:44    -5959.615237        0.1990
System changes: positions 

Initializing position-dependent things.

Density initialized from wave functions
                                                  
                                                  
                                                  
                                                  
                                                  
                                                  
                                                  
                     O                            
                    H                             
           Sn      SOC     Sn                     
                    C                             
            SSn       Sn      Sn                  
                Sn  Sn  Sn  Sn                    
              Sn       Sn      SSn                
                                                  
                 Sn      Sn      Sn               
               Sn       Sn      Sn                
                  Sn      Sn      Sn              
                                                  
                    Sn       Sn      Sn           
           Sn      Sn      Sn                     
                                                  
             Sn      Sn       Sn                  
               Sn       Sn      Sn                
                                                  
                                                  
                                                  
                                                  

Positions:
   0 Sn    -0.000000    0.000000   10.000000    ( 0.0000,  0.0000,  0.0000)
   1 Sn     1.710646    0.987642   12.793473    ( 0.0000,  0.0000,  0.0000)
   2 Sn     0.039987    1.975501   15.867329    ( 0.0000,  0.0000,  0.0000)
   3 Sn    -0.019430    0.107326   18.600315    ( 0.0000,  0.0000,  0.0000)
   4 Sn    -1.710646    2.962925   10.000000    ( 0.0000,  0.0000,  0.0000)
   5 Sn    -0.000000    3.950567   12.793473    ( 0.0000,  0.0000,  0.0000)
   6 Sn    -1.677339    4.971841   15.802270    ( 0.0000,  0.0000,  0.0000)
   7 Sn    -1.720211    3.030921   18.500863    ( 0.0000,  0.0000,  0.0000)
   8 Sn    -3.421291    5.925850   10.000000    ( 0.0000,  0.0000,  0.0000)
   9 Sn    -1.710646    6.913492   12.793473    ( 0.0000,  0.0000,  0.0000)
  10 Sn    -3.386972    7.981901   15.959383    ( 0.0000,  0.0000,  0.0000)
  11 Sn    -3.426940    5.966204   18.533863    ( 0.0000,  0.0000,  0.0000)
  12 Sn     3.421291    0.000000   10.000000    ( 0.0000,  0.0000,  0.0000)
  13 Sn     5.131937    0.987642   12.793473    ( 0.0000,  0.0000,  0.0000)
  14 Sn     3.436422    1.986944   15.850864    ( 0.0000,  0.0000,  0.0000)
  15 Sn     3.438665    0.102051   18.596912    ( 0.0000,  0.0000,  0.0000)
  16 Sn     1.710646    2.962925   10.000000    ( 0.0000,  0.0000,  0.0000)
  17 Sn     3.421291    3.950567   12.793473    ( 0.0000,  0.0000,  0.0000)
  18 Sn     1.757018    4.980480   15.544552    ( 0.0000,  0.0000,  0.0000)
  19 Sn     1.710996    3.324673   18.390286    ( 0.0000,  0.0000,  0.0000)
  20 Sn    -0.000000    5.925850   10.000000    ( 0.0000,  0.0000,  0.0000)
  21 Sn     1.710646    6.913492   12.793473    ( 0.0000,  0.0000,  0.0000)
  22 Sn     0.053857    7.881475   15.618809    ( 0.0000,  0.0000,  0.0000)
  23 Sn    -0.062635    6.024776   18.436850    ( 0.0000,  0.0000,  0.0000)
  24 Sn     6.842582    0.000000   10.000000    ( 0.0000,  0.0000,  0.0000)
  25 Sn     8.553228    0.987642   12.793473    ( 0.0000,  0.0000,  0.0000)
  26 Sn     6.886214    1.968173   15.828041    ( 0.0000,  0.0000,  0.0000)
  27 Sn     6.843898   -0.055819   18.419538    ( 0.0000,  0.0000,  0.0000)
  28 Sn     5.131937    2.962925   10.000000    ( 0.0000,  0.0000,  0.0000)
  29 Sn     6.842582    3.950567   12.793473    ( 0.0000,  0.0000,  0.0000)
  30 Sn     5.189432    4.983966   15.793681    ( 0.0000,  0.0000,  0.0000)
  31 Sn     5.149610    3.015870   18.474247    ( 0.0000,  0.0000,  0.0000)
  32 Sn     3.421291    5.925850   10.000000    ( 0.0000,  0.0000,  0.0000)
  33 Sn     5.131937    6.913492   12.793473    ( 0.0000,  0.0000,  0.0000)
  34 Sn     3.413848    7.897017   15.621006    ( 0.0000,  0.0000,  0.0000)
  35 Sn     3.476058    6.018058   18.421267    ( 0.0000,  0.0000,  0.0000)
  36 H      1.687696    0.443802   22.016870    ( 0.0000,  0.0000,  0.0000)
  37 O      1.720110   -0.154541   21.249607    ( 0.0000,  0.0000,  0.0000)
  38 C      1.718226    0.645828   20.102579    ( 0.0000,  0.0000,  0.0000)
  39 C      1.722361    2.080041   20.346011    ( 0.0000,  0.0000,  0.0000)
  40 O      1.717789    2.606627   21.452930    ( 0.0000,  0.0000,  0.0000)

Unit cell:
           periodic     x           y           z      points  spacing
  1. axis:    yes   10.263874    0.000000    0.000000    48     0.1852
  2. axis:    yes   -5.131937    8.888775    0.000000    48     0.1852
  3. axis:    no     0.000000    0.000000   28.380418   156     0.1819

  Lengths:  10.263874  10.263874  28.380418
  Angles:   90.000000  90.000000 120.000000

Effective grid spacing dv^(1/3) = 0.1931

     iter     time        total  log10-change:
                         energy  eigst   dens
iter:   1 11:49:56 -5959.628498  -3.02
iter:   2 11:50:36 -5959.623579  -3.82  -2.91
iter:   3 11:51:16 -5959.617072c -4.47  -2.99
iter:   4 11:51:56 -5959.616477c -4.59  -3.59
iter:   5 11:52:36 -5959.616350c -4.90  -3.81
iter:   6 11:53:16 -5959.616343c -5.20  -3.95
iter:   7 11:53:56 -5959.616363c -5.73  -4.12c
iter:   8 11:54:36 -5959.616342c -6.26  -4.22c
iter:   9 11:55:16 -5959.616337c -6.28  -4.26c
iter:  10 11:55:56 -5959.616343c -6.85  -4.50c
iter:  11 11:56:36 -5959.616352c -7.10  -4.61c
iter:  12 11:57:16 -5959.616347c -7.35  -4.75c
iter:  13 11:57:55 -5959.616349c -7.31  -4.89c
iter:  14 11:58:36 -5959.616350c -7.59c -5.00c

Converged after 14 iterations.

Dipole moment: (-8.119697, -15.942910, -0.509720) |e|*Ang

Energy contributions relative to reference atoms: (reference = -6054534.410051)

Kinetic:       +962.696913
Potential:     -924.025241
External:        +0.000000
XC:            -5997.309370
Entropy (-ST):   -0.631182
Local:           -0.663061
--------------------------
Free energy:   -5959.931941
Extrapolated:  -5959.616350

Showing only first 2 kpts
 Kpt  Band  Eigenvalues  Occupancy
  0   260     -4.69874    1.69785
  0   261     -4.60368    1.36946
  0   262     -4.49242    0.83310
  0   263     -4.38341    0.38710

  1   260     -5.06555    1.99096
  1   261     -5.02665    1.98668
  1   262     -5.00620    1.98369
  1   263     -4.90501    1.95576


Fermi level: -4.52612

No gap

Forces in eV/Ang:
  0 Sn   -0.02103   -0.01158    0.19082
  1 Sn   -0.01769   -0.00437   -0.15492
  2 Sn    0.00976    0.01295   -0.00855
  3 Sn    0.01095   -0.00578   -0.00616
  4 Sn   -0.05492    0.03649    0.14563
  5 Sn   -0.04930   -0.03559   -0.21832
  6 Sn   -0.00718   -0.00341    0.00956
  7 Sn    0.00809   -0.02569   -0.01496
  8 Sn   -0.00114   -0.05050    0.13152
  9 Sn   -0.03705   -0.00886   -0.19717
 10 Sn   -0.02316    0.00007   -0.01467
 11 Sn    0.00023   -0.00293    0.01194
 12 Sn    0.04996   -0.00826    0.19054
 13 Sn   -0.01385    0.01963   -0.20323
 14 Sn    0.00170    0.00440   -0.00475
 15 Sn    0.01348   -0.00381   -0.01357
 16 Sn    0.01219    0.03578    0.21977
 17 Sn    0.04558   -0.03132   -0.25142
 18 Sn   -0.01792   -0.00430    0.00191
 19 Sn   -0.00863   -0.00318   -0.00469
 20 Sn   -0.02974    0.00542    0.20266
 21 Sn   -0.00920    0.04727   -0.23240
 22 Sn    0.00415   -0.00428    0.00868
 23 Sn   -0.00142   -0.00648    0.00446
 24 Sn   -0.00408    0.02098    0.18736
 25 Sn    0.00440    0.02341   -0.20281
 26 Sn   -0.01355   -0.00207    0.02892
 27 Sn    0.00218    0.00209    0.00931
 28 Sn    0.05222    0.03396    0.14511
 29 Sn   -0.00180   -0.01601   -0.21523
 30 Sn    0.00665   -0.00720    0.02013
 31 Sn    0.00295   -0.00585   -0.00206
 32 Sn    0.02276   -0.00604    0.19856
 33 Sn    0.04653   -0.01915   -0.20737
 34 Sn    0.01405    0.00578    0.00626
 35 Sn   -0.00160   -0.00479    0.00175
 36 H     0.00098   -0.01940    0.03125
 37 O     0.01021    0.02014    0.01027
 38 C     0.02849   -0.01499   -0.01617
 39 C    -0.00596   -0.03234    0.02973
 40 O    -0.00468    0.00200    0.01497

BFGS:   41 11:58:50    -5959.616350        0.0443
Timing:                                      incl.     excl.
-------------------------------------------------------------------
Density initialized from wave functions:    16.546    16.545   0.1% |
 Symmetrize density:                         0.001     0.001   0.0% |
Forces:                                    622.621   622.621   2.2% ||
Hamiltonian:                               202.924     0.007   0.0% |
 Atomic:                                     6.185     0.030   0.0% |
  XC Correction:                             6.155     6.155   0.0% |
 Calculate atomic Hamiltonians:              1.374     1.374   0.0% |
 Communicate:                                0.471     0.471   0.0% |
 Hartree integrate/restrict:                 0.658     0.658   0.0% |
 Initialize Hamiltonian:                     0.000     0.000   0.0% |
 Poisson:                                   10.787     0.408   0.0% |
  Communicate from 1D:                       0.921     0.921   0.0% |
  Communicate from 2D:                       1.748     1.748   0.0% |
  Communicate to 1D:                         0.495     0.495   0.0% |
  Communicate to 2D:                         2.109     2.109   0.0% |
  FFT 1D:                                    2.282     2.282   0.0% |
  FFT 2D:                                    2.825     2.825   0.0% |
 XC 3D grid:                               183.155    46.214   0.2% |
  VdW-DF integral:                         136.941     1.649   0.0% |
   Convolution:                             17.783    17.783   0.1% |
   FFT:                                      9.790     9.790   0.0% |
   gather:                                  40.531    40.531   0.1% |
   hmm1:                                     2.677     2.677   0.0% |
   hmm2:                                     5.695     5.695   0.0% |
   iFFT:                                    10.110    10.110   0.0% |
   potential:                               44.271     0.984   0.0% |
    collect:                                 3.912     3.912   0.0% |
    p1:                                     26.479    26.479   0.1% |
    p2:                                      8.860     8.860   0.0% |
    sum:                                     4.036     4.036   0.0% |
   splines:                                  4.435     4.435   0.0% |
 vbar:                                       0.289     0.289   0.0% |
LCAO initialization:                        21.712     2.160   0.0% |
 LCAO eigensolver:                           4.639     0.005   0.0% |
  Calculate projections:                     0.000     0.000   0.0% |
  DenseAtomicCorrection:                     0.000     0.000   0.0% |
  Distribute overlap matrix:                 4.060     4.060   0.0% |
  Orbital Layouts:                           0.534     0.534   0.0% |
  Potential matrix:                          0.007     0.007   0.0% |
  Sum over cells:                            0.033     0.033   0.0% |
 LCAO to grid:                              14.021    14.021   0.0% |
 Set positions (LCAO WFS):                   0.892     0.736   0.0% |
  Basic WFS set positions:                   0.001     0.001   0.0% |
  Basis functions set positions:             0.000     0.000   0.0% |
  P tci:                                     0.001     0.001   0.0% |
  ST tci:                                    0.113     0.113   0.0% |
  mktci:                                     0.041     0.041   0.0% |
Redistribute:                                0.023     0.023   0.0% |
SCF-cycle:                               26359.759   162.327   0.6% |
 Davidson:                               23068.459  5920.651  20.9% |-------|
  Apply hamiltonian:                       757.610   757.610   2.7% ||
  Subspace diag:                          3247.843     0.095   0.0% |
   calc_h_matrix:                         1641.710   848.361   3.0% ||
    Apply hamiltonian:                     793.349   793.349   2.8% ||
   diagonalize:                             34.956    34.956   0.1% |
   rotate_psi:                            1571.082  1571.082   5.5% |-|
  calc. matrices:                         9820.037  5608.861  19.8% |-------|
   Apply hamiltonian:                     4211.176  4211.176  14.8% |-----|
  diagonalize:                             274.331   274.331   1.0% |
  rotate_psi:                             3047.987  3047.987  10.7% |---|
 Density:                                   59.133     0.019   0.0% |
  Atomic density matrices:                   2.971     2.971   0.0% |
  Mix:                                      13.516    13.516   0.0% |
  Multipole moments:                         0.256     0.256   0.0% |
  Pseudo density:                           42.371    42.350   0.1% |
   Symmetrize density:                       0.021     0.021   0.0% |
 Hamiltonian:                             2905.148     0.085   0.0% |
  Atomic:                                   90.638     0.471   0.0% |
   XC Correction:                           90.167    90.167   0.3% |
  Calculate atomic Hamiltonians:            19.930    19.930   0.1% |
  Communicate:                               4.218     4.218   0.0% |
  Hartree integrate/restrict:                9.653     9.653   0.0% |
  Poisson:                                 157.934     5.864   0.0% |
   Communicate from 1D:                     13.387    13.387   0.0% |
   Communicate from 2D:                     25.661    25.661   0.1% |
   Communicate to 1D:                        7.304     7.304   0.0% |
   Communicate to 2D:                       30.935    30.935   0.1% |
   FFT 1D:                                  33.420    33.420   0.1% |
   FFT 2D:                                  41.362    41.362   0.1% |
  XC 3D grid:                             2620.624   676.926   2.4% ||
   VdW-DF integral:                       1943.698    24.117   0.1% |
    Convolution:                           261.936   261.936   0.9% |
    FFT:                                   142.832   142.832   0.5% |
    gather:                                594.601   594.601   2.1% ||
    hmm1:                                   39.148    39.148   0.1% |
    hmm2:                                   82.951    82.951   0.3% |
    iFFT:                                  148.622   148.622   0.5% |
    potential:                             649.486    14.397   0.1% |
     collect:                               57.057    57.057   0.2% |
     p1:                                   389.601   389.601   1.4% ||
     p2:                                   130.193   130.193   0.5% |
     sum:                                   58.239    58.239   0.2% |
    splines:                                 0.004     0.004   0.0% |
  vbar:                                      2.067     2.067   0.0% |
 Orthonormalize:                           164.692     0.010   0.0% |
  calc_s_matrix:                            24.319    24.319   0.1% |
  inverse-cholesky:                         89.431    89.431   0.3% |
  projections:                               0.003     0.003   0.0% |
  rotate_psi_s:                             50.930    50.930   0.2% |
Set symmetry:                                0.002     0.002   0.0% |
Other:                                    1145.838  1145.838   4.0% |-|
-------------------------------------------------------------------
Total:                                             28369.425 100.0%

Memory usage: 2.25 GiB
Date: Fri Sep 29 11:58:50 2023
