
  ___ ___ ___ _ _ _  
 |   |   |_  | | | | 
 | | | | | . | | | | 
 |__ |  _|___|_____|  22.8.0
 |___|_|             

User:   s204775@a050.nifl.fysik.dtu.dk
Date:   Fri Sep 29 05:34:42 2023
Arch:   x86_64
Pid:    179751
CWD:    /home/cat/s204775/projects/Bachelor_project/OCCOH_missing_features
Python: 3.10.4
gpaw:   /home/modules/software/GPAW/22.8.0-intel-2022a/lib/python3.10/site-packages/gpaw
_gpaw:  /home/modules/software/GPAW/22.8.0-intel-2022a/lib/python3.10/site-packages/
        _gpaw.cpython-310-x86_64-linux-gnu.so
ase:    /home/modules/software/ASE/3.22.1-intel-2022a/lib/python3.10/site-packages/ase (version 3.22.1)
numpy:  /home/modules/software/SciPy-bundle/2022.05-intel-2022a/lib/python3.10/site-packages/numpy (version 1.22.3)
scipy:  /home/modules/software/SciPy-bundle/2022.05-intel-2022a/lib/python3.10/site-packages/scipy (version 1.8.1)
libxc:  5.2.3
units:  Angstrom and eV
cores: 40
OpenMP: False
OMP_NUM_THREADS: 1

Input parameters:
  basis: dzp
  h: 0.18
  kpts: {size: (4, 4, 1)}
  xc: BEEF-vdW

System changes: positions, numbers, cell, pbc, initial_charges, initial_magmoms 

Initialize ...

species:
  Ti:
    name: Titanium
    id: d282db07e62ae71292040bf25b25ccdd
    Z: 22.0
    valence: 12
    core: 10
    charge: 0.0
    file: /home/modules/software/GPAW-setups/0.9.20000/Ti.PBE.gz
    compensation charges: {type: gauss,
                           rc: 0.38,
                           lmax: 2}
    cutoffs: {filter: 2.23,
              core: 1.02}
    valence states:
      #              energy  rcut
      - 3s(2.00)   -62.623   1.270
      - 4s(2.00)    -4.466   1.270
      - 3p(6.00)   -38.862   1.058
      - 4p(0.00)    -1.466   1.058
      - 3d(2.00)    -4.258   1.058
      -  d          22.953   1.058
  
    # LCAO basis set for Ti:
    #   Name: dzp
    #   File: /home/modules/software/GPAW-setups/0.9.20000/Ti.dzp.basis.gz
    #   Number of radial functions: 11
    #   Number of spherical harmonics: 29
    #     l=0, rc=3.4375 Bohr: 3s-sz confined orbital
    #     l=0, rc=9.9062 Bohr: 4s-sz confined orbital
    #     l=1, rc=3.8906 Bohr: 3p-sz confined orbital
    #     l=1, rc=13.1094 Bohr: 4p-sz confined orbital
    #     l=2, rc=6.6250 Bohr: 3d-sz confined orbital
    #     l=0, rc=2.1406 Bohr: 3s-dz split-valence wave
    #     l=0, rc=6.0156 Bohr: 4s-dz split-valence wave
    #     l=1, rc=2.3125 Bohr: 3p-dz split-valence wave
    #     l=1, rc=8.1094 Bohr: 4p-dz split-valence wave
    #     l=2, rc=3.8594 Bohr: 3d-dz split-valence wave
    #     l=1, rc=9.9062 Bohr: p-type Gaussian polarization
    #   Number of RI-basis functions 0

  H:
    name: Hydrogen
    id: d65de229564ff8ea4db303e23b6d1ecf
    Z: 1.0
    valence: 1
    core: 0
    charge: 0.0
    file: /home/modules/software/GPAW-setups/0.9.20000/H.PBE.gz
    compensation charges: {type: gauss,
                           rc: 0.15,
                           lmax: 2}
    cutoffs: {filter: 0.85,
              core: 0.53}
    valence states:
      #              energy  rcut
      - 1s(1.00)    -6.494   0.476
      -  s          20.717   0.476
      -  p           0.000   0.476
  
    # LCAO basis set for H:
    #   Name: dzp
    #   File: /home/modules/software/GPAW-setups/0.9.20000/H.dzp.basis.gz
    #   Number of radial functions: 3
    #   Number of spherical harmonics: 5
    #     l=0, rc=6.4219 Bohr: 1s-sz confined orbital
    #     l=0, rc=3.6094 Bohr: 1s-dz split-valence wave
    #     l=1, rc=6.4219 Bohr: p-type Gaussian polarization
    #   Number of RI-basis functions 0

  O:
    name: Oxygen
    id: 32ecd46bf208036f09c70b0ec9a88b78
    Z: 8.0
    valence: 6
    core: 2
    charge: 0.0
    file: /home/modules/software/GPAW-setups/0.9.20000/O.PBE.gz
    compensation charges: {type: gauss,
                           rc: 0.21,
                           lmax: 2}
    cutoffs: {filter: 1.17,
              core: 0.83}
    valence states:
      #              energy  rcut
      - 2s(2.00)   -23.961   0.688
      - 2p(4.00)    -9.029   0.598
      -  s           3.251   0.688
      -  p          18.182   0.598
      -  d           0.000   0.619
  
    # LCAO basis set for O:
    #   Name: dzp
    #   File: /home/modules/software/GPAW-setups/0.9.20000/O.dzp.basis.gz
    #   Number of radial functions: 5
    #   Number of spherical harmonics: 13
    #     l=0, rc=4.3438 Bohr: 2s-sz confined orbital
    #     l=1, rc=5.3906 Bohr: 2p-sz confined orbital
    #     l=0, rc=2.2969 Bohr: 2s-dz split-valence wave
    #     l=1, rc=2.8906 Bohr: 2p-dz split-valence wave
    #     l=2, rc=5.3906 Bohr: d-type Gaussian polarization
    #   Number of RI-basis functions 0

  C:
    name: Carbon
    id: 4aa54d4b901d75f77cc0ea3eec22967b
    Z: 6.0
    valence: 4
    core: 2
    charge: 0.0
    file: /home/modules/software/GPAW-setups/0.9.20000/C.PBE.gz
    compensation charges: {type: gauss,
                           rc: 0.20,
                           lmax: 2}
    cutoffs: {filter: 1.14,
              core: 1.14}
    valence states:
      #              energy  rcut
      - 2s(2.00)   -13.751   0.635
      - 2p(2.00)    -5.284   0.635
      -  s          13.461   0.635
      -  p          21.927   0.635
      -  d           0.000   0.635
  
    # LCAO basis set for C:
    #   Name: dzp
    #   File: /home/modules/software/GPAW-setups/0.9.20000/C.dzp.basis.gz
    #   Number of radial functions: 5
    #   Number of spherical harmonics: 13
    #     l=0, rc=5.5469 Bohr: 2s-sz confined orbital
    #     l=1, rc=6.6719 Bohr: 2p-sz confined orbital
    #     l=0, rc=3.0312 Bohr: 2s-dz split-valence wave
    #     l=1, rc=3.7500 Bohr: 2p-dz split-valence wave
    #     l=2, rc=6.6719 Bohr: d-type Gaussian polarization
    #   Number of RI-basis functions 0

Reference energy: -842213.965136  # eV

Spin-paired calculation

Convergence criteria:
 Maximum [total energy] change in last 3 cyles: 0.0005 eV / electron
 Maximum integral of absolute [dens]ity change: 0.0001 electrons / valence electron
 Maximum integral of absolute [eigenst]ate change: 4e-08 eV^2 / valence electron
 Maximum number of scf [iter]ations: 333
 (Square brackets indicate name in SCF output, whereas a 'c' in
 the SCF output indicates the quantity has converged.)

Symmetries present (total): 1

  ( 1  0  0)
  ( 0  1  0)
  ( 0  0  1)

16 k-points: 4 x 4 x 1 Monkhorst-Pack grid
8 k-points in the irreducible part of the Brillouin zone
       k-points in crystal coordinates                weights
   0:     0.12500000   -0.37500000    0.00000000          2/16
   1:     0.12500000   -0.12500000    0.00000000          2/16
   2:     0.12500000    0.12500000    0.00000000          2/16
   3:     0.12500000    0.37500000    0.00000000          2/16
   4:     0.37500000   -0.37500000    0.00000000          2/16
   5:     0.37500000   -0.12500000    0.00000000          2/16
   6:     0.37500000    0.12500000    0.00000000          2/16
   7:     0.37500000    0.37500000    0.00000000          2/16

Wave functions: Uniform real-space grid
  Kinetic energy operator: 8*3+1=25 point O(h^6) finite-difference Laplacian
  ScaLapack parameters: grid=1x1, blocksize=None
  Wavefunction extrapolation:
    Improved wavefunction reuse through dual PAW basis 

Occupation numbers: Fermi-Dirac:
  width: 0.1000  # eV
 

Eigensolver
   Davidson(niter=2) 

Densities:
  Coarse grid: 40*40*152 grid
  Fine grid: 80*80*304 grid
  Total Charge: 0.000000 

Density mixing:
  Method: separate
  Backend: pulay
  Linear mixing parameter: 0.05
  old densities: 5
  Damping of long wavelength oscillations: 50 

Hamiltonian:
  XC and Coulomb potentials evaluated on a 80*80*304 grid
  Using the BEEF-vdW Exchange-Correlation functional
  Interpolation: tri-quintic (5. degree polynomial)
  Poisson solver: FastPoissonSolver using
    Stencil: 8*3+1=25 point O(h^6) finite-difference Laplacian
    FFT axes: [0, 1]
    FST axes: [2]
 

XC parameters: BEEF-vdW with 2 nearest neighbor stencil

Memory estimate:
  Process memory now: 200.55 MiB
  Calculator: 486.60 MiB
    Density: 50.99 MiB
      Arrays: 9.52 MiB
      Localized functions: 37.81 MiB
      Mixer: 3.66 MiB
    Hamiltonian: 9.07 MiB
      Arrays: 6.23 MiB
      XC: 0.00 MiB
      Poisson: 0.00 MiB
      vbar: 2.84 MiB
    Wavefunctions: 426.54 MiB
      Arrays psit_nG: 202.15 MiB
      Eigensolver: 217.44 MiB
      Projections: 0.59 MiB
      Projectors: 6.36 MiB

Total number of cores used: 40
Parallelization over k-points: 8
Domain decomposition: 1 x 1 x 5

Number of atoms: 41
Number of atomic orbitals: 1101
Number of bands in calculation: 276
Number of valence electrons: 453
Bands to converge: occupied

... initialized

Initializing position-dependent things.

Density initialized from atomic densities
Creating initial wave functions:
  276 bands from LCAO basis set

                                              
                                              
                                              
                                              
                                              
                                              
                                              
                    O                         
                  H                           
           Ti     OC     Ti                   
                   C                          
            TTi    TTi    TTi                 
              TTi    TTi    TTi               
                                              
               TTi    TTi    TTi              
                                              
                 Ti     Ti     Ti             
                   Ti     Ti     Ti           
           Ti     Ti     Ti                   
             Ti     Ti     Ti                 
                                              
               Ti     Ti     Ti               
                                              
                                              
                                              
                                              

Positions:
   0 Ti     0.000000    0.000000   10.000000    ( 0.0000,  0.0000,  0.0000)
   1 Ti     1.450615    0.837513   12.368845    ( 0.0000,  0.0000,  0.0000)
   2 Ti    -0.000000    1.683540   14.802718    ( 0.0000,  0.0000,  0.0000)
   3 Ti    -0.000000   -0.000000   17.052536    ( 0.0000,  0.0000,  0.0000)
   4 Ti    -1.450615    2.512539   10.000000    ( 0.0000,  0.0000,  0.0000)
   5 Ti    -0.000000    3.350052   12.368845    ( 0.0000,  0.0000,  0.0000)
   6 Ti    -1.460491    4.181864   14.810195    ( 0.0000,  0.0000,  0.0000)
   7 Ti    -1.445663    2.504765   17.063618    ( 0.0000,  0.0000,  0.0000)
   8 Ti    -2.901231    5.025079   10.000000    ( 0.0000,  0.0000,  0.0000)
   9 Ti    -1.450615    5.862592   12.368845    ( 0.0000,  0.0000,  0.0000)
  10 Ti    -2.893857    6.695848   14.802718    ( 0.0000,  0.0000,  0.0000)
  11 Ti    -2.905487    5.033254   17.063618    ( 0.0000,  0.0000,  0.0000)
  12 Ti     2.901231    0.000000   10.000000    ( 0.0000,  0.0000,  0.0000)
  13 Ti     4.351846    0.837513   12.368845    ( 0.0000,  0.0000,  0.0000)
  14 Ti     2.888236    1.667524   14.807912    ( 0.0000,  0.0000,  0.0000)
  15 Ti     2.892022   -0.000402   17.063618    ( 0.0000,  0.0000,  0.0000)
  16 Ti     1.450615    2.512539   10.000000    ( 0.0000,  0.0000,  0.0000)
  17 Ti     2.901231    3.350052   12.368845    ( 0.0000,  0.0000,  0.0000)
  18 Ti     1.460491    4.181864   14.810195    ( 0.0000,  0.0000,  0.0000)
  19 Ti     1.445663    2.504765   17.063618    ( 0.0000,  0.0000,  0.0000)
  20 Ti    -0.000000    5.025079   10.000000    ( 0.0000,  0.0000,  0.0000)
  21 Ti     1.450615    5.862592   12.368845    ( 0.0000,  0.0000,  0.0000)
  22 Ti    -0.000000    6.711509   14.810195    ( 0.0000,  0.0000,  0.0000)
  23 Ti    -0.000000    5.025079   17.031043    ( 0.0000,  0.0000,  0.0000)
  24 Ti     5.802461    0.000000   10.000000    ( 0.0000,  0.0000,  0.0000)
  25 Ti     7.253076    0.837513   12.368845    ( 0.0000,  0.0000,  0.0000)
  26 Ti     5.815456    1.667524   14.807912    ( 0.0000,  0.0000,  0.0000)
  27 Ti     5.811670   -0.000402   17.063618    ( 0.0000,  0.0000,  0.0000)
  28 Ti     4.351846    2.512539   10.000000    ( 0.0000,  0.0000,  0.0000)
  29 Ti     5.802461    3.350052   12.368845    ( 0.0000,  0.0000,  0.0000)
  30 Ti     4.351846    4.202570   14.807912    ( 0.0000,  0.0000,  0.0000)
  31 Ti     4.351846    2.512539   17.027545    ( 0.0000,  0.0000,  0.0000)
  32 Ti     2.901231    5.025079   10.000000    ( 0.0000,  0.0000,  0.0000)
  33 Ti     4.351846    5.862592   12.368845    ( 0.0000,  0.0000,  0.0000)
  34 Ti     2.893857    6.695848   14.802718    ( 0.0000,  0.0000,  0.0000)
  35 Ti     2.905487    5.033254   17.063618    ( 0.0000,  0.0000,  0.0000)
  36 H      1.510330   -0.057815   20.400863    ( 0.0000,  0.0000,  0.0000)
  37 O      1.487813   -0.423451   19.608790    ( 0.0000,  0.0000,  0.0000)
  38 C      1.491566    0.443004   18.609697    ( 0.0000,  0.0000,  0.0000)
  39 C      1.418252    1.938972   18.851804    ( 0.0000,  0.0000,  0.0000)
  40 O      1.470805    2.567520   20.135184    ( 0.0000,  0.0000,  0.0000)

Unit cell:
           periodic     x           y           z      points  spacing
  1. axis:    yes    8.703692    0.000000    0.000000    40     0.1884
  2. axis:    yes   -4.351846    7.537618    0.000000    40     0.1884
  3. axis:    no     0.000000    0.000000   27.106534   152     0.1783

  Lengths:   8.703692   8.703692  27.106534
  Angles:   90.000000  90.000000 120.000000

Effective grid spacing dv^(1/3) = 0.1941

     iter     time        total  log10-change:
                         energy  eigst   dens
iter:   1 05:35:58 -2049.155572
iter:   2 05:36:23 -2044.706891  -0.03  -1.08
iter:   3 05:36:48 -2035.504289  -0.99  -1.15
iter:   4 05:37:13 -2035.553000  -0.29  -1.26
iter:   5 05:37:38 -2047.312248  -0.49  -1.29
iter:   6 05:38:03 -2030.708017  -1.20  -1.14
iter:   7 05:38:27 -2029.996716  -0.83  -1.47
iter:   8 05:38:52 -2029.591855  -1.23  -1.65
iter:   9 05:39:17 -2029.985641  -1.52  -1.71
iter:  10 05:39:42 -2029.746274  -1.39  -1.77
iter:  11 05:40:06 -2029.908714  -1.51  -1.96
iter:  12 05:40:31 -2029.827145c -1.90  -1.93
iter:  13 05:40:56 -2029.574131  -2.07  -2.03
iter:  14 05:41:21 -2029.516811  -2.20  -2.31
iter:  15 05:41:46 -2029.575932c -2.29  -2.46
iter:  16 05:42:10 -2029.529849c -2.63  -2.37
iter:  17 05:42:35 -2029.579426c -2.76  -2.55
iter:  18 05:43:00 -2029.564778c -2.97  -2.38
iter:  19 05:43:25 -2029.534093c -3.07  -2.43
iter:  20 05:43:50 -2029.538382c -3.15  -2.93
iter:  21 05:44:14 -2029.540797c -3.35  -2.95
iter:  22 05:44:39 -2029.541895c -3.48  -3.23
iter:  23 05:45:04 -2029.544978c -3.65  -3.29
iter:  24 05:45:29 -2029.542709c -3.79  -3.18
iter:  25 05:45:53 -2029.541149c -3.85  -3.41
iter:  26 05:46:18 -2029.541195c -3.96  -3.62
iter:  27 05:46:43 -2029.541202c -4.05  -3.58
iter:  28 05:47:08 -2029.541872c -4.15  -3.58
iter:  29 05:47:33 -2029.542197c -4.27  -3.81
iter:  30 05:47:57 -2029.542562c -4.37  -3.91
iter:  31 05:48:22 -2029.542443c -4.43  -3.95
iter:  32 05:48:47 -2029.542738c -4.56  -4.00c
iter:  33 05:49:12 -2029.542978c -4.66  -4.01c
iter:  34 05:49:37 -2029.542789c -4.74  -3.99
iter:  35 05:50:02 -2029.542816c -4.87  -4.10c
iter:  36 05:50:27 -2029.542810c -4.93  -4.23c
iter:  37 05:50:51 -2029.542912c -5.02  -4.37c
iter:  38 05:51:16 -2029.542891c -5.08  -4.27c
iter:  39 05:51:41 -2029.542915c -5.19  -4.50c
iter:  40 05:52:06 -2029.543010c -5.20  -4.57c
iter:  41 05:52:30 -2029.542955c -5.35  -4.28c
iter:  42 05:52:55 -2029.542959c -5.44  -5.01c
iter:  43 05:53:20 -2029.542948c -5.48  -5.03c
iter:  44 05:53:45 -2029.542961c -5.49  -5.06c
iter:  45 05:54:10 -2029.542955c -5.62  -5.06c
iter:  46 05:54:34 -2029.542961c -5.71  -5.27c
iter:  47 05:54:59 -2029.542972c -5.77  -5.34c
iter:  48 05:55:24 -2029.542970c -5.82  -5.33c
iter:  49 05:55:49 -2029.542979c -5.92  -5.44c
iter:  50 05:56:14 -2029.542980c -6.01  -5.54c
iter:  51 05:56:38 -2029.542983c -6.03  -5.56c
iter:  52 05:57:03 -2029.542980c -6.08  -5.51c
iter:  53 05:57:28 -2029.542979c -6.19  -5.61c
iter:  54 05:57:53 -2029.542984c -6.29  -5.62c
iter:  55 05:58:18 -2029.542975c -6.29  -5.58c
iter:  56 05:58:42 -2029.542977c -6.45  -5.71c
iter:  57 05:59:07 -2029.542979c -6.50  -5.77c
iter:  58 05:59:32 -2029.542982c -6.56  -6.01c
iter:  59 05:59:57 -2029.542982c -6.60  -5.97c
iter:  60 06:00:21 -2029.542982c -6.69  -6.11c
iter:  61 06:00:46 -2029.542981c -6.74  -6.15c
iter:  62 06:01:11 -2029.542979c -6.80  -6.32c
iter:  63 06:01:36 -2029.542979c -6.84  -6.22c
iter:  64 06:02:01 -2029.542980c -6.91  -6.29c
iter:  65 06:02:25 -2029.542979c -6.98  -6.28c
iter:  66 06:02:50 -2029.542979c -7.00  -6.20c
iter:  67 06:03:15 -2029.542978c -7.08  -6.10c
iter:  68 06:03:40 -2029.542978c -7.13  -6.01c
iter:  69 06:04:04 -2029.542978c -7.21  -6.05c
iter:  70 06:04:29 -2029.542978c -7.28  -6.18c
iter:  71 06:04:54 -2029.542980c -7.31  -6.13c
iter:  72 06:05:19 -2029.542980c -7.38  -6.28c
iter:  73 06:05:44 -2029.542980c -7.35  -6.29c
iter:  74 06:06:08 -2029.542979c -7.43c -5.93c

Converged after 74 iterations.

Dipole moment: (-6.376534, -6.013597, -0.388112) |e|*Ang

Energy contributions relative to reference atoms: (reference = -842213.965136)

Kinetic:       +675.689891
Potential:     -621.258917
External:        +0.000000
XC:            -2079.078122
Entropy (-ST):   -2.446515
Local:           -3.672574
--------------------------
Free energy:   -2030.766236
Extrapolated:  -2029.542979

Showing only first 2 kpts
 Kpt  Band  Eigenvalues  Occupancy
  0   224     -4.95328    1.12985
  0   225     -4.93212    1.02480
  0   226     -4.90333    0.88140
  0   227     -4.89678    0.84925

  1   224     -4.87293    0.73528
  1   225     -4.86435    0.69588
  1   226     -4.84191    0.59781
  1   227     -4.83302    0.56124


Fermi level: -4.92716

No gap

Forces in eV/Ang:
  0 Ti   -0.00910   -0.00662    0.46783
  1 Ti    0.03915    0.01893   -0.30912
  2 Ti   -0.32481   -0.13542   -0.25796
  3 Ti   -0.39610   -0.23776   -0.10296
  4 Ti    0.01740   -0.02504    0.35046
  5 Ti   -0.00839   -0.14018   -0.39756
  6 Ti    0.00322    0.00427    0.08565
  7 Ti   -0.12751   -0.00526    0.10050
  8 Ti   -0.01484    0.02882    0.35390
  9 Ti   -0.12310    0.06888   -0.41919
 10 Ti   -0.02062   -0.07842   -0.06197
 11 Ti   -0.01837   -0.14195    0.05828
 12 Ti   -0.02095   -0.00627    0.34827
 13 Ti   -0.02225   -0.08397   -0.30026
 14 Ti    0.33404   -0.13532   -0.28155
 15 Ti    0.56083   -0.28822   -0.27202
 16 Ti   -0.01574   -0.02030    0.34583
 17 Ti   -0.07989    0.04161   -0.31295
 18 Ti    0.01087    0.26155   -0.18591
 19 Ti    0.05554    1.07653   -2.08213
 20 Ti    0.00462    0.00021    0.32955
 21 Ti    0.11237    0.06589   -0.36492
 22 Ti    0.07981   -0.01683   -0.11731
 23 Ti    0.01170    0.03615   -0.02477
 24 Ti    0.03305   -0.00579    0.34510
 25 Ti   -0.02269    0.03870   -0.30410
 26 Ti   -0.00012   -0.04296   -0.01865
 27 Ti    0.02663   -0.01706   -0.06230
 28 Ti    0.00115    0.00162    0.32725
 29 Ti    0.08181    0.04896   -0.34245
 30 Ti   -0.02123    0.01084    0.06240
 31 Ti    0.17903    0.01725    0.08212
 32 Ti    0.01254    0.02743    0.35077
 33 Ti    0.00586   -0.04445   -0.33073
 34 Ti   -0.08389   -0.03771   -0.11274
 35 Ti   -0.00704    0.07719   -0.00683
 36 H     0.11946    3.13382    6.27736
 37 O    -0.02474   -4.25413   -4.28190
 38 C    -0.36015    3.24540   -1.38118
 39 C     0.32260    0.42420    7.66868
 40 O    -0.29166   -2.89712   -4.89226

      Step     Time          Energy         fmax
BFGS:    0 06:06:21    -2029.542979        7.6872
System changes: positions 

Initializing position-dependent things.

Density initialized from wave functions
                                              
                                              
                                              
                                              
                                              
                                              
                                              
                    O                         
                  H                           
           Ti     OC     Ti                   
                   C                          
            TTi    TTi    TTi                 
              TTi    TTi    TTi               
                                              
               TTi    TTi    TTi              
                                              
                 Ti     Ti     Ti             
                   Ti     Ti     Ti           
           Ti     Ti     Ti                   
             Ti     Ti     Ti                 
                                              
               Ti     Ti     Ti               
                                              
                                              
                                              
                                              

Positions:
   0 Ti     0.000000    0.000000   10.000000    ( 0.0000,  0.0000,  0.0000)
   1 Ti     1.450615    0.837513   12.368845    ( 0.0000,  0.0000,  0.0000)
   2 Ti    -0.004640    1.681606   14.799033    ( 0.0000,  0.0000,  0.0000)
   3 Ti    -0.005659   -0.003397   17.051065    ( 0.0000,  0.0000,  0.0000)
   4 Ti    -1.450615    2.512539   10.000000    ( 0.0000,  0.0000,  0.0000)
   5 Ti    -0.000000    3.350052   12.368845    ( 0.0000,  0.0000,  0.0000)
   6 Ti    -1.460445    4.181925   14.811419    ( 0.0000,  0.0000,  0.0000)
   7 Ti    -1.447485    2.504690   17.065054    ( 0.0000,  0.0000,  0.0000)
   8 Ti    -2.901231    5.025079   10.000000    ( 0.0000,  0.0000,  0.0000)
   9 Ti    -1.450615    5.862592   12.368845    ( 0.0000,  0.0000,  0.0000)
  10 Ti    -2.894152    6.694728   14.801833    ( 0.0000,  0.0000,  0.0000)
  11 Ti    -2.905749    5.031226   17.064451    ( 0.0000,  0.0000,  0.0000)
  12 Ti     2.901231    0.000000   10.000000    ( 0.0000,  0.0000,  0.0000)
  13 Ti     4.351846    0.837513   12.368845    ( 0.0000,  0.0000,  0.0000)
  14 Ti     2.893008    1.665591   14.803890    ( 0.0000,  0.0000,  0.0000)
  15 Ti     2.900034   -0.004519   17.059732    ( 0.0000,  0.0000,  0.0000)
  16 Ti     1.450615    2.512539   10.000000    ( 0.0000,  0.0000,  0.0000)
  17 Ti     2.901231    3.350052   12.368845    ( 0.0000,  0.0000,  0.0000)
  18 Ti     1.460646    4.185600   14.807539    ( 0.0000,  0.0000,  0.0000)
  19 Ti     1.446456    2.520144   17.033873    ( 0.0000,  0.0000,  0.0000)
  20 Ti    -0.000000    5.025079   10.000000    ( 0.0000,  0.0000,  0.0000)
  21 Ti     1.450615    5.862592   12.368845    ( 0.0000,  0.0000,  0.0000)
  22 Ti     0.001140    6.711268   14.808519    ( 0.0000,  0.0000,  0.0000)
  23 Ti     0.000167    5.025595   17.030689    ( 0.0000,  0.0000,  0.0000)
  24 Ti     5.802461    0.000000   10.000000    ( 0.0000,  0.0000,  0.0000)
  25 Ti     7.253076    0.837513   12.368845    ( 0.0000,  0.0000,  0.0000)
  26 Ti     5.815454    1.666910   14.807646    ( 0.0000,  0.0000,  0.0000)
  27 Ti     5.812050   -0.000646   17.062728    ( 0.0000,  0.0000,  0.0000)
  28 Ti     4.351846    2.512539   10.000000    ( 0.0000,  0.0000,  0.0000)
  29 Ti     5.802461    3.350052   12.368845    ( 0.0000,  0.0000,  0.0000)
  30 Ti     4.351543    4.202725   14.808804    ( 0.0000,  0.0000,  0.0000)
  31 Ti     4.354403    2.512786   17.028719    ( 0.0000,  0.0000,  0.0000)
  32 Ti     2.901231    5.025079   10.000000    ( 0.0000,  0.0000,  0.0000)
  33 Ti     4.351846    5.862592   12.368845    ( 0.0000,  0.0000,  0.0000)
  34 Ti     2.892659    6.695309   14.801107    ( 0.0000,  0.0000,  0.0000)
  35 Ti     2.905386    5.034357   17.063520    ( 0.0000,  0.0000,  0.0000)
  36 H      1.512037   -0.013046   20.490540    ( 0.0000,  0.0000,  0.0000)
  37 O      1.487460   -0.484224   19.547620    ( 0.0000,  0.0000,  0.0000)
  38 C      1.486421    0.489367   18.589966    ( 0.0000,  0.0000,  0.0000)
  39 C      1.422861    1.945032   18.961357    ( 0.0000,  0.0000,  0.0000)
  40 O      1.466639    2.526133   20.065295    ( 0.0000,  0.0000,  0.0000)

Unit cell:
           periodic     x           y           z      points  spacing
  1. axis:    yes    8.703692    0.000000    0.000000    40     0.1884
  2. axis:    yes   -4.351846    7.537618    0.000000    40     0.1884
  3. axis:    no     0.000000    0.000000   27.106534   152     0.1783

  Lengths:   8.703692   8.703692  27.106534
  Angles:   90.000000  90.000000 120.000000

Effective grid spacing dv^(1/3) = 0.1941

     iter     time        total  log10-change:
                         energy  eigst   dens
iter:   1 06:07:32 -2034.480537  -0.55
iter:   2 06:07:58 -2061.853906  -0.69  -1.64
iter:   3 06:08:23 -2032.561835  -1.24  -1.08
iter:   4 06:08:48 -2032.785663  -1.43  -1.84
iter:   5 06:09:13 -2031.416299  -1.88  -1.68
iter:   6 06:09:39 -2030.903903  -1.52  -2.20
iter:   7 06:10:04 -2030.895609  -1.72  -2.43
iter:   8 06:10:29 -2030.900684c -2.11  -2.31
iter:   9 06:10:55 -2030.821249c -2.45  -2.32
iter:  10 06:11:20 -2030.822447c -2.40  -2.73
iter:  11 06:11:45 -2030.827402c -2.70  -2.45
iter:  12 06:12:10 -2030.802142c -2.81  -2.53
iter:  13 06:12:36 -2030.808538c -3.31  -2.94
iter:  14 06:13:01 -2030.836395c -3.13  -2.73
iter:  15 06:13:26 -2030.799697c -3.45  -2.45
iter:  16 06:13:51 -2030.799083c -3.81  -3.23
iter:  17 06:14:17 -2030.798596c -4.05  -3.28
iter:  18 06:14:42 -2030.800446c -3.93  -3.30
iter:  19 06:15:07 -2030.799067c -4.39  -3.22
iter:  20 06:15:33 -2030.798785c -4.46  -3.27
iter:  21 06:15:58 -2030.799235c -4.70  -3.24
iter:  22 06:16:23 -2030.799183c -4.63  -3.61
iter:  23 06:16:48 -2030.799071c -4.91  -3.86
iter:  24 06:17:13 -2030.799034c -5.28  -3.98
iter:  25 06:17:39 -2030.799031c -5.40  -3.99
iter:  26 06:18:04 -2030.798782c -5.43  -3.99
iter:  27 06:18:29 -2030.798783c -5.48  -3.92
iter:  28 06:18:54 -2030.798948c -5.79  -4.18c
iter:  29 06:19:20 -2030.798825c -5.82  -4.09c
iter:  30 06:19:45 -2030.798926c -5.94  -4.33c
iter:  31 06:20:10 -2030.798929c -6.07  -4.55c
iter:  32 06:20:36 -2030.798976c -6.20  -4.54c
iter:  33 06:21:01 -2030.798868c -6.31  -4.42c
iter:  34 06:21:26 -2030.798839c -6.37  -4.68c
iter:  35 06:21:51 -2030.798889c -6.57  -4.56c
iter:  36 06:22:17 -2030.798888c -6.68  -4.74c
iter:  37 06:22:42 -2030.798887c -6.79  -5.08c
iter:  38 06:23:07 -2030.798883c -6.83  -5.13c
iter:  39 06:23:32 -2030.798904c -6.89  -5.17c
iter:  40 06:23:58 -2030.798893c -7.00  -5.04c
iter:  41 06:24:23 -2030.798891c -7.15  -5.39c
iter:  42 06:24:48 -2030.798887c -7.21  -5.45c
iter:  43 06:25:13 -2030.798890c -7.29  -5.51c
iter:  44 06:25:39 -2030.798884c -7.34  -5.18c
iter:  45 06:26:04 -2030.798885c -7.47c -5.80c

Converged after 45 iterations.

Dipole moment: (-5.335166, -7.353378, -0.180529) |e|*Ang

Energy contributions relative to reference atoms: (reference = -842213.965136)

Kinetic:       +670.760675
Potential:     -618.736218
External:        +0.000000
XC:            -2077.942881
Entropy (-ST):   -2.445557
Local:           -3.657683
--------------------------
Free energy:   -2032.021663
Extrapolated:  -2030.798885

Showing only first 2 kpts
 Kpt  Band  Eigenvalues  Occupancy
  0   224     -4.79372    1.13565
  0   225     -4.77492    1.04244
  0   226     -4.73956    0.86647
  0   227     -4.73480    0.84317

  1   224     -4.72004    0.77213
  1   225     -4.70039    0.68135
  1   226     -4.68215    0.60192
  1   227     -4.67248    0.56204


Fermi level: -4.76642

No gap

Forces in eV/Ang:
  0 Ti   -0.00751   -0.00812    0.46742
  1 Ti    0.03859    0.01914   -0.30897
  2 Ti   -0.32771   -0.12918   -0.21765
  3 Ti   -0.38278   -0.21465   -0.10165
  4 Ti    0.01654   -0.02298    0.35075
  5 Ti   -0.00942   -0.14052   -0.40403
  6 Ti    0.00400    0.00293    0.07890
  7 Ti   -0.10495    0.01013    0.06463
  8 Ti   -0.01459    0.03036    0.35484
  9 Ti   -0.12236    0.06805   -0.41763
 10 Ti   -0.01638   -0.07120   -0.03801
 11 Ti   -0.01927   -0.16052    0.09675
 12 Ti   -0.02249   -0.00770    0.34706
 13 Ti   -0.01692   -0.08351   -0.29380
 14 Ti    0.31166   -0.17301   -0.27064
 15 Ti    0.44569   -0.20078   -0.22575
 16 Ti   -0.01545   -0.01930    0.34543
 17 Ti   -0.07820    0.04144   -0.32048
 18 Ti    0.02395    0.26817   -0.25428
 19 Ti    0.02683    0.08056   -0.18383
 20 Ti    0.00340    0.00071    0.32801
 21 Ti    0.11300    0.06839   -0.36975
 22 Ti    0.08251   -0.02192   -0.13075
 23 Ti    0.04298    0.00044   -0.05056
 24 Ti    0.03282   -0.00662    0.33949
 25 Ti   -0.02731    0.03800   -0.29808
 26 Ti   -0.00329   -0.03633   -0.03427
 27 Ti    0.01794   -0.02822   -0.04872
 28 Ti    0.00155    0.00327    0.32773
 29 Ti    0.08220    0.04824   -0.33831
 30 Ti   -0.02361    0.00805    0.05584
 31 Ti    0.15493    0.03176    0.04629
 32 Ti    0.01331    0.02781    0.34962
 33 Ti    0.00356   -0.04521   -0.33223
 34 Ti   -0.07436   -0.03623   -0.11500
 35 Ti   -0.03519    0.03324   -0.04260
 36 H    -0.09364   -1.21130   -2.08686
 37 O     0.14784    0.86377    3.24251
 38 C    -0.30702    2.01889   -0.75545
 39 C     0.18741    0.20672    1.43270
 40 O    -0.15425   -1.26772   -0.35077

BFGS:    1 06:26:17    -2030.798885        3.3588
System changes: positions 

Initializing position-dependent things.

Density initialized from wave functions
                                              
                                              
                                              
                                              
                                              
                                              
                                              
                    O                         
                  H                           
           Ti     OC     Ti                   
                   C                          
            TTi    TTi    TTi                 
              TTi    TTi    TTi               
                                              
               TTi    TTi    TTi              
                                              
                 Ti     Ti     Ti             
                   Ti     Ti     Ti           
           Ti     Ti     Ti                   
             Ti     Ti     Ti                 
                                              
               Ti     Ti     Ti               
                                              
                                              
                                              
                                              

Positions:
   0 Ti     0.000000    0.000000   10.000000    ( 0.0000,  0.0000,  0.0000)
   1 Ti     1.450615    0.837513   12.368845    ( 0.0000,  0.0000,  0.0000)
   2 Ti    -0.009704    1.679596   14.795595    ( 0.0000,  0.0000,  0.0000)
   3 Ti    -0.011603   -0.006758   17.049490    ( 0.0000,  0.0000,  0.0000)
   4 Ti    -1.450615    2.512539   10.000000    ( 0.0000,  0.0000,  0.0000)
   5 Ti    -0.000000    3.350052   12.368845    ( 0.0000,  0.0000,  0.0000)
   6 Ti    -1.460385    4.181972   14.812651    ( 0.0000,  0.0000,  0.0000)
   7 Ti    -1.449148    2.504820   17.066117    ( 0.0000,  0.0000,  0.0000)
   8 Ti    -2.901231    5.025079   10.000000    ( 0.0000,  0.0000,  0.0000)
   9 Ti    -1.450615    5.862592   12.368845    ( 0.0000,  0.0000,  0.0000)
  10 Ti    -2.894413    6.693613   14.801202    ( 0.0000,  0.0000,  0.0000)
  11 Ti    -2.906046    5.028776   17.065879    ( 0.0000,  0.0000,  0.0000)
  12 Ti     2.901231    0.000000   10.000000    ( 0.0000,  0.0000,  0.0000)
  13 Ti     4.351846    0.837513   12.368845    ( 0.0000,  0.0000,  0.0000)
  14 Ti     2.897869    1.662981   14.799684    ( 0.0000,  0.0000,  0.0000)
  15 Ti     2.907132   -0.007780   17.056158    ( 0.0000,  0.0000,  0.0000)
  16 Ti     1.450615    2.512539   10.000000    ( 0.0000,  0.0000,  0.0000)
  17 Ti     2.901231    3.350052   12.368845    ( 0.0000,  0.0000,  0.0000)
  18 Ti     1.460994    4.189737   14.803727    ( 0.0000,  0.0000,  0.0000)
  19 Ti     1.446922    2.523157   17.027662    ( 0.0000,  0.0000,  0.0000)
  20 Ti    -0.000000    5.025079   10.000000    ( 0.0000,  0.0000,  0.0000)
  21 Ti     1.450615    5.862592   12.368845    ( 0.0000,  0.0000,  0.0000)
  22 Ti     0.002412    6.710938   14.806520    ( 0.0000,  0.0000,  0.0000)
  23 Ti     0.000776    5.025665   17.029953    ( 0.0000,  0.0000,  0.0000)
  24 Ti     5.802461    0.000000   10.000000    ( 0.0000,  0.0000,  0.0000)
  25 Ti     7.253076    0.837513   12.368845    ( 0.0000,  0.0000,  0.0000)
  26 Ti     5.815409    1.666336   14.807143    ( 0.0000,  0.0000,  0.0000)
  27 Ti     5.812343   -0.001062   17.061950    ( 0.0000,  0.0000,  0.0000)
  28 Ti     4.351846    2.512539   10.000000    ( 0.0000,  0.0000,  0.0000)
  29 Ti     5.802461    3.350052   12.368845    ( 0.0000,  0.0000,  0.0000)
  30 Ti     4.351182    4.202855   14.809679    ( 0.0000,  0.0000,  0.0000)
  31 Ti     4.356843    2.513251   17.029498    ( 0.0000,  0.0000,  0.0000)
  32 Ti     2.901231    5.025079   10.000000    ( 0.0000,  0.0000,  0.0000)
  33 Ti     4.351846    5.862592   12.368845    ( 0.0000,  0.0000,  0.0000)
  34 Ti     2.891492    6.694746   14.799332    ( 0.0000,  0.0000,  0.0000)
  35 Ti     2.904892    5.034949   17.062925    ( 0.0000,  0.0000,  0.0000)
  36 H      1.510967   -0.024075   20.473097    ( 0.0000,  0.0000,  0.0000)
  37 O      1.489441   -0.479942   19.584429    ( 0.0000,  0.0000,  0.0000)
  38 C      1.481578    0.522772   18.577170    ( 0.0000,  0.0000,  0.0000)
  39 C      1.426000    1.948615   18.994581    ( 0.0000,  0.0000,  0.0000)
  40 O      1.464009    2.503632   20.051812    ( 0.0000,  0.0000,  0.0000)

Unit cell:
           periodic     x           y           z      points  spacing
  1. axis:    yes    8.703692    0.000000    0.000000    40     0.1884
  2. axis:    yes   -4.351846    7.537618    0.000000    40     0.1884
  3. axis:    no     0.000000    0.000000   27.106534   152     0.1783

  Lengths:   8.703692   8.703692  27.106534
  Angles:   90.000000  90.000000 120.000000

Effective grid spacing dv^(1/3) = 0.1941

     iter     time        total  log10-change:
                         energy  eigst   dens
iter:   1 06:27:27 -2033.093435  -1.32
iter:   2 06:27:52 -2069.281620  -0.46  -1.72
iter:   3 06:28:18 -2032.864437  -1.16  -1.05
iter:   4 06:28:43 -2031.615848  -1.71  -1.63
iter:   5 06:29:09 -2031.045807  -2.30  -1.92
iter:   6 06:29:34 -2031.016500  -2.34  -2.44
iter:   7 06:29:59 -2031.002051c -2.65  -2.59
iter:   8 06:30:24 -2030.983652c -2.52  -2.80
iter:   9 06:30:50 -2030.994874c -2.82  -2.96
iter:  10 06:31:15 -2030.983348c -3.05  -2.65
iter:  11 06:31:40 -2030.984494c -3.51  -3.09
iter:  12 06:32:06 -2030.982038c -3.68  -3.08
iter:  13 06:32:31 -2030.984154c -3.47  -3.19
iter:  14 06:32:56 -2030.982631c -4.13  -3.28
iter:  15 06:33:22 -2030.984069c -3.85  -3.31
iter:  16 06:33:47 -2030.981848c -4.21  -3.09
iter:  17 06:34:12 -2030.982248c -4.32  -3.49
iter:  18 06:34:38 -2030.982445c -4.53  -3.39
iter:  19 06:35:03 -2030.982241c -4.86  -3.78
iter:  20 06:35:28 -2030.982532c -4.98  -3.65
iter:  21 06:35:54 -2030.982175c -5.14  -3.62
iter:  22 06:36:19 -2030.982377c -5.19  -3.94
iter:  23 06:36:44 -2030.982469c -5.24  -3.75
iter:  24 06:37:09 -2030.982404c -5.63  -4.14c
iter:  25 06:37:35 -2030.982349c -5.70  -4.30c
iter:  26 06:38:00 -2030.982333c -5.87  -4.39c
iter:  27 06:38:25 -2030.982371c -5.97  -4.44c
iter:  28 06:38:51 -2030.982282c -5.90  -4.45c
iter:  29 06:39:16 -2030.982304c -6.27  -4.22c
iter:  30 06:39:41 -2030.982343c -6.36  -4.40c
iter:  31 06:40:07 -2030.982351c -6.50  -4.81c
iter:  32 06:40:32 -2030.982348c -6.58  -4.84c
iter:  33 06:40:57 -2030.982337c -6.65  -4.96c
iter:  34 06:41:23 -2030.982336c -6.75  -5.17c
iter:  35 06:41:48 -2030.982349c -6.86  -5.15c
iter:  36 06:42:13 -2030.982340c -6.94  -5.20c
iter:  37 06:42:38 -2030.982336c -7.06  -5.28c
iter:  38 06:43:04 -2030.982346c -7.14  -5.31c
iter:  39 06:43:29 -2030.982339c -7.23  -5.31c
iter:  40 06:43:54 -2030.982342c -7.37  -5.53c
iter:  41 06:44:20 -2030.982341c -7.45c -5.65c

Converged after 41 iterations.

Dipole moment: (-5.465247, -6.426680, -0.129005) |e|*Ang

Energy contributions relative to reference atoms: (reference = -842213.965136)

Kinetic:       +674.798422
Potential:     -622.058723
External:        +0.000000
XC:            -2078.841592
Entropy (-ST):   -2.447401
Local:           -3.656748
--------------------------
Free energy:   -2032.206042
Extrapolated:  -2030.982341

Showing only first 2 kpts
 Kpt  Band  Eigenvalues  Occupancy
  0   224     -4.75355    1.13411
  0   225     -4.73582    1.04622
  0   226     -4.70048    0.87027
  0   227     -4.69405    0.83882

  1   224     -4.68143    0.77804
  1   225     -4.65837    0.67163
  1   226     -4.64316    0.60557
  1   227     -4.63294    0.56331


Fermi level: -4.72657

No gap

Forces in eV/Ang:
  0 Ti   -0.00638   -0.00851    0.46691
  1 Ti    0.03769    0.01959   -0.31032
  2 Ti   -0.31319   -0.10985   -0.18035
  3 Ti   -0.34056   -0.21291   -0.05614
  4 Ti    0.01606   -0.02267    0.35080
  5 Ti   -0.01050   -0.13991   -0.40658
  6 Ti   -0.00014    0.00297    0.07137
  7 Ti   -0.09479    0.01664    0.04647
  8 Ti   -0.01454    0.03098    0.35583
  9 Ti   -0.12159    0.06750   -0.41679
 10 Ti   -0.01564   -0.06526   -0.01755
 11 Ti   -0.02024   -0.13953    0.10626
 12 Ti   -0.02364   -0.00823    0.34618
 13 Ti   -0.01394   -0.08226   -0.29202
 14 Ti    0.27291   -0.18657   -0.25014
 15 Ti    0.32607   -0.15952   -0.15309
 16 Ti   -0.01537   -0.01921    0.34546
 17 Ti   -0.07652    0.04175   -0.32424
 18 Ti    0.03388    0.23981   -0.25336
 19 Ti    0.02254   -0.14032    0.01137
 20 Ti    0.00262    0.00093    0.32694
 21 Ti    0.11337    0.06812   -0.37537
 22 Ti    0.08627   -0.02234   -0.14241
 23 Ti    0.05998   -0.02089   -0.04436
 24 Ti    0.03286   -0.00670    0.33457
 25 Ti   -0.02990    0.03841   -0.29680
 26 Ti   -0.00638   -0.03401   -0.04193
 27 Ti    0.01171   -0.02956   -0.04392
 28 Ti    0.00178    0.00356    0.32736
 29 Ti    0.08262    0.04772   -0.33505
 30 Ti   -0.02175    0.00626    0.05055
 31 Ti    0.14827    0.03932    0.02614
 32 Ti    0.01397    0.02801    0.34849
 33 Ti    0.00214   -0.04618   -0.33255
 34 Ti   -0.06528   -0.02827   -0.11643
 35 Ti   -0.04997    0.00678   -0.04228
 36 H    -0.03493   -0.48843   -0.74641
 37 O     0.13533    0.87320    0.85542
 38 C    -0.23253    0.85434    0.06257
 39 C     0.07728   -0.76510   -1.64324
 40 O    -0.01676    0.24863    2.56754

BFGS:    2 06:44:33    -2030.982341        2.5796
System changes: positions 

Initializing position-dependent things.

Density initialized from wave functions
                                              
                                              
                                              
                                              
                                              
                                              
                                              
                    O                         
                  H                           
           Ti     OC     Ti                   
                   C                          
            TTi    TTi    TTi                 
              TTi    TTi    TTi               
                                              
               TTi    TTi    TTi              
                                              
                 Ti     Ti     Ti             
                   Ti     Ti     Ti           
           Ti     Ti     Ti                   
             Ti     Ti     Ti                 
                                              
               Ti     Ti     Ti               
                                              
                                              
                                              
                                              

Positions:
   0 Ti     0.000000    0.000000   10.000000    ( 0.0000,  0.0000,  0.0000)
   1 Ti     1.450615    0.837513   12.368845    ( 0.0000,  0.0000,  0.0000)
   2 Ti    -0.016079    1.677272   14.791721    ( 0.0000,  0.0000,  0.0000)
   3 Ti    -0.018702   -0.011066   17.048098    ( 0.0000,  0.0000,  0.0000)
   4 Ti    -1.450615    2.512539   10.000000    ( 0.0000,  0.0000,  0.0000)
   5 Ti    -0.000000    3.350052   12.368845    ( 0.0000,  0.0000,  0.0000)
   6 Ti    -1.460364    4.182033   14.814135    ( 0.0000,  0.0000,  0.0000)
   7 Ti    -1.451131    2.505103   17.067186    ( 0.0000,  0.0000,  0.0000)
   8 Ti    -2.901231    5.025079   10.000000    ( 0.0000,  0.0000,  0.0000)
   9 Ti    -1.450615    5.862592   12.368845    ( 0.0000,  0.0000,  0.0000)
  10 Ti    -2.894735    6.692262   14.800711    ( 0.0000,  0.0000,  0.0000)
  11 Ti    -2.906446    5.025868   17.067926    ( 0.0000,  0.0000,  0.0000)
  12 Ti     2.901231    0.000000   10.000000    ( 0.0000,  0.0000,  0.0000)
  13 Ti     4.351846    0.837513   12.368845    ( 0.0000,  0.0000,  0.0000)
  14 Ti     2.903595    1.659343   14.794530    ( 0.0000,  0.0000,  0.0000)
  15 Ti     2.914474   -0.011299   17.052622    ( 0.0000,  0.0000,  0.0000)
  16 Ti     1.450615    2.512539   10.000000    ( 0.0000,  0.0000,  0.0000)
  17 Ti     2.901231    3.350052   12.368845    ( 0.0000,  0.0000,  0.0000)
  18 Ti     1.461606    4.194713   14.798690    ( 0.0000,  0.0000,  0.0000)
  19 Ti     1.447425    2.522469   17.025133    ( 0.0000,  0.0000,  0.0000)
  20 Ti    -0.000000    5.025079   10.000000    ( 0.0000,  0.0000,  0.0000)
  21 Ti     1.450615    5.862592   12.368845    ( 0.0000,  0.0000,  0.0000)
  22 Ti     0.004121    6.710496   14.803738    ( 0.0000,  0.0000,  0.0000)
  23 Ti     0.001857    5.025399   17.029048    ( 0.0000,  0.0000,  0.0000)
  24 Ti     5.802461    0.000000   10.000000    ( 0.0000,  0.0000,  0.0000)
  25 Ti     7.253076    0.837513   12.368845    ( 0.0000,  0.0000,  0.0000)
  26 Ti     5.815301    1.665634   14.806358    ( 0.0000,  0.0000,  0.0000)
  27 Ti     5.812622   -0.001639   17.061028    ( 0.0000,  0.0000,  0.0000)
  28 Ti     4.351846    2.512539   10.000000    ( 0.0000,  0.0000,  0.0000)
  29 Ti     5.802461    3.350052   12.368845    ( 0.0000,  0.0000,  0.0000)
  30 Ti     4.350736    4.202993   14.810731    ( 0.0000,  0.0000,  0.0000)
  31 Ti     4.359881    2.513985   17.030171    ( 0.0000,  0.0000,  0.0000)
  32 Ti     2.901231    5.025079   10.000000    ( 0.0000,  0.0000,  0.0000)
  33 Ti     4.351846    5.862592   12.368845    ( 0.0000,  0.0000,  0.0000)
  34 Ti     2.890119    6.694131   14.797003    ( 0.0000,  0.0000,  0.0000)
  35 Ti     2.903997    5.035276   17.062104    ( 0.0000,  0.0000,  0.0000)
  36 H      1.510109   -0.034333   20.457539    ( 0.0000,  0.0000,  0.0000)
  37 O      1.492084   -0.466846   19.608945    ( 0.0000,  0.0000,  0.0000)
  38 C      1.476430    0.547719   18.573165    ( 0.0000,  0.0000,  0.0000)
  39 C      1.428305    1.939042   18.984686    ( 0.0000,  0.0000,  0.0000)
  40 O      1.462760    2.498470   20.082646    ( 0.0000,  0.0000,  0.0000)

Unit cell:
           periodic     x           y           z      points  spacing
  1. axis:    yes    8.703692    0.000000    0.000000    40     0.1884
  2. axis:    yes   -4.351846    7.537618    0.000000    40     0.1884
  3. axis:    no     0.000000    0.000000   27.106534   152     0.1783

  Lengths:   8.703692   8.703692  27.106534
  Angles:   90.000000  90.000000 120.000000

Effective grid spacing dv^(1/3) = 0.1941

     iter     time        total  log10-change:
                         energy  eigst   dens
iter:   1 06:45:43 -2031.335472  -1.61
iter:   2 06:46:08 -2035.627994  -1.56  -2.17
iter:   3 06:46:34 -2031.243679  -2.15  -1.47
iter:   4 06:46:59 -2031.160211  -2.59  -2.26
iter:   5 06:47:24 -2031.094013c -2.88  -2.42
iter:   6 06:47:50 -2031.074475c -3.05  -2.65
iter:   7 06:48:15 -2031.064543c -2.98  -2.86
iter:   8 06:48:40 -2031.064882c -3.25  -3.04
iter:   9 06:49:05 -2031.062019c -3.40  -2.97
iter:  10 06:49:31 -2031.063114c -3.75  -3.30
iter:  11 06:49:56 -2031.062589c -4.08  -3.26
iter:  12 06:50:21 -2031.060267c -4.17  -3.01
iter:  13 06:50:47 -2031.060223c -4.41  -3.56
iter:  14 06:51:12 -2031.060224c -4.65  -3.70
iter:  15 06:51:37 -2031.060443c -4.96  -3.61
iter:  16 06:52:03 -2031.060357c -5.06  -3.87
iter:  17 06:52:28 -2031.061318c -5.06  -3.88
iter:  18 06:52:53 -2031.060766c -5.34  -3.55
iter:  19 06:53:18 -2031.060676c -5.61  -4.06c
iter:  20 06:53:44 -2031.060582c -5.78  -4.13c
iter:  21 06:54:09 -2031.060494c -5.77  -4.32c
iter:  22 06:54:34 -2031.060586c -6.11  -4.22c
iter:  23 06:55:00 -2031.060463c -6.25  -4.40c
iter:  24 06:55:25 -2031.060559c -6.37  -4.39c
iter:  25 06:55:50 -2031.060639c -6.54  -4.46c
iter:  26 06:56:15 -2031.060690c -6.56  -4.55c
iter:  27 06:56:41 -2031.060694c -6.77  -4.71c
iter:  28 06:57:06 -2031.060632c -6.86  -4.75c
iter:  29 06:57:31 -2031.060605c -7.05  -5.11c
iter:  30 06:57:57 -2031.060635c -7.18  -5.04c
iter:  31 06:58:22 -2031.060608c -7.23  -5.12c
iter:  32 06:58:47 -2031.060618c -7.43c -5.20c

Converged after 32 iterations.

Dipole moment: (-5.562143, -5.346957, -0.224614) |e|*Ang

Energy contributions relative to reference atoms: (reference = -842213.965136)

Kinetic:       +673.336937
Potential:     -620.698300
External:        +0.000000
XC:            -2078.817853
Entropy (-ST):   -2.449806
Local:           -3.656500
--------------------------
Free energy:   -2032.285521
Extrapolated:  -2031.060618

Showing only first 2 kpts
 Kpt  Band  Eigenvalues  Occupancy
  0   224     -4.82668    1.12714
  0   225     -4.80880    1.03841
  0   226     -4.77579    0.87403
  0   227     -4.76867    0.83917

  1   224     -4.75217    0.76006
  1   225     -4.73128    0.66436
  1   226     -4.71800    0.60678
  1   227     -4.70713    0.56188


Fermi level: -4.80112

No gap

Forces in eV/Ang:
  0 Ti   -0.00632   -0.00876    0.46557
  1 Ti    0.03631    0.01922   -0.31462
  2 Ti   -0.30118   -0.09718   -0.14358
  3 Ti   -0.30263   -0.19904   -0.02145
  4 Ti    0.01564   -0.02237    0.34990
  5 Ti   -0.01163   -0.13812   -0.41045
  6 Ti   -0.00173    0.00099    0.06860
  7 Ti   -0.08265    0.00712    0.04893
  8 Ti   -0.01453    0.03061    0.35544
  9 Ti   -0.12143    0.06756   -0.41604
 10 Ti   -0.01652   -0.05619    0.01083
 11 Ti   -0.02111   -0.12191    0.10912
 12 Ti   -0.02386   -0.00859    0.34468
 13 Ti   -0.01099   -0.08370   -0.29803
 14 Ti    0.23634   -0.19425   -0.22980
 15 Ti    0.22396   -0.11357   -0.09999
 16 Ti   -0.01534   -0.01899    0.34474
 17 Ti   -0.07448    0.04256   -0.33002
 18 Ti    0.04314    0.20205   -0.23296
 19 Ti    0.02595   -0.09385   -0.03769
 20 Ti    0.00213    0.00085    0.32483
 21 Ti    0.11378    0.06759   -0.38403
 22 Ti    0.08839   -0.02800   -0.15164
 23 Ti    0.06806   -0.02020   -0.03381
 24 Ti    0.03314   -0.00643    0.32899
 25 Ti   -0.03271    0.03648   -0.30202
 26 Ti   -0.01069   -0.03123   -0.04693
 27 Ti    0.00548   -0.02631   -0.04287
 28 Ti    0.00199    0.00401    0.32606
 29 Ti    0.08295    0.04595   -0.33184
 30 Ti   -0.02278    0.00101    0.05050
 31 Ti    0.14225    0.03093    0.02286
 32 Ti    0.01447    0.02801    0.34609
 33 Ti    0.00155   -0.04709   -0.33234
 34 Ti   -0.05361   -0.02406   -0.11477
 35 Ti   -0.05455    0.00155   -0.02892
 36 H     0.01153    0.54519    0.99711
 37 O     0.05159    0.12994   -1.47460
 38 C    -0.18998    0.11776    0.47110
 39 C     0.09870    0.60095    0.73633
 40 O    -0.09682   -0.70597    0.28293

BFGS:    3 06:59:00    -2031.060618        1.4812
System changes: positions 

Initializing position-dependent things.

Density initialized from wave functions
                                              
                                              
                                              
                                              
                                              
                                              
                                              
                    O                         
                  H                           
           Ti     OC     Ti                   
                   C                          
            TTi    TTi    TTi                 
              TTi    TTi    TTi               
                                              
               TTi    TTi    TTi              
                                              
                 Ti     Ti     Ti             
                   Ti     Ti     Ti           
           Ti     Ti     Ti                   
             Ti     Ti     Ti                 
                                              
               Ti     Ti     Ti               
                                              
                                              
                                              
                                              

Positions:
   0 Ti     0.000000    0.000000   10.000000    ( 0.0000,  0.0000,  0.0000)
   1 Ti     1.450615    0.837513   12.368845    ( 0.0000,  0.0000,  0.0000)
   2 Ti    -0.021134    1.675578   14.789121    ( 0.0000,  0.0000,  0.0000)
   3 Ti    -0.023943   -0.014423   17.047515    ( 0.0000,  0.0000,  0.0000)
   4 Ti    -1.450615    2.512539   10.000000    ( 0.0000,  0.0000,  0.0000)
   5 Ti    -0.000000    3.350052   12.368845    ( 0.0000,  0.0000,  0.0000)
   6 Ti    -1.460379    4.182058   14.815293    ( 0.0000,  0.0000,  0.0000)
   7 Ti    -1.452569    2.505254   17.068013    ( 0.0000,  0.0000,  0.0000)
   8 Ti    -2.901231    5.025079   10.000000    ( 0.0000,  0.0000,  0.0000)
   9 Ti    -1.450615    5.862592   12.368845    ( 0.0000,  0.0000,  0.0000)
  10 Ti    -2.895005    6.691282   14.800728    ( 0.0000,  0.0000,  0.0000)
  11 Ti    -2.906789    5.023740   17.069701    ( 0.0000,  0.0000,  0.0000)
  12 Ti     2.901231    0.000000   10.000000    ( 0.0000,  0.0000,  0.0000)
  13 Ti     4.351846    0.837513   12.368845    ( 0.0000,  0.0000,  0.0000)
  14 Ti     2.907729    1.656189   14.790607    ( 0.0000,  0.0000,  0.0000)
  15 Ti     2.918830   -0.013452   17.050614    ( 0.0000,  0.0000,  0.0000)
  16 Ti     1.450615    2.512539   10.000000    ( 0.0000,  0.0000,  0.0000)
  17 Ti     2.901231    3.350052   12.368845    ( 0.0000,  0.0000,  0.0000)
  18 Ti     1.462261    4.198269   14.794746    ( 0.0000,  0.0000,  0.0000)
  19 Ti     1.447845    2.521073   17.024380    ( 0.0000,  0.0000,  0.0000)
  20 Ti    -0.000000    5.025079   10.000000    ( 0.0000,  0.0000,  0.0000)
  21 Ti     1.450615    5.862592   12.368845    ( 0.0000,  0.0000,  0.0000)
  22 Ti     0.005567    6.710060   14.801292    ( 0.0000,  0.0000,  0.0000)
  23 Ti     0.002918    5.025096   17.028432    ( 0.0000,  0.0000,  0.0000)
  24 Ti     5.802461    0.000000   10.000000    ( 0.0000,  0.0000,  0.0000)
  25 Ti     7.253076    0.837513   12.368845    ( 0.0000,  0.0000,  0.0000)
  26 Ti     5.815149    1.665101   14.805618    ( 0.0000,  0.0000,  0.0000)
  27 Ti     5.812750   -0.002086   17.060307    ( 0.0000,  0.0000,  0.0000)
  28 Ti     4.351846    2.512539   10.000000    ( 0.0000,  0.0000,  0.0000)
  29 Ti     5.802461    3.350052   12.368845    ( 0.0000,  0.0000,  0.0000)
  30 Ti     4.350361    4.203037   14.811574    ( 0.0000,  0.0000,  0.0000)
  31 Ti     4.362271    2.514523   17.030595    ( 0.0000,  0.0000,  0.0000)
  32 Ti     2.901231    5.025079   10.000000    ( 0.0000,  0.0000,  0.0000)
  33 Ti     4.351846    5.862592   12.368845    ( 0.0000,  0.0000,  0.0000)
  34 Ti     2.889166    6.693702   14.795100    ( 0.0000,  0.0000,  0.0000)
  35 Ti     2.903140    5.035367   17.061566    ( 0.0000,  0.0000,  0.0000)
  36 H      1.510003   -0.031027   20.464240    ( 0.0000,  0.0000,  0.0000)
  37 O      1.493333   -0.461464   19.598659    ( 0.0000,  0.0000,  0.0000)
  38 C      1.472979    0.554851   18.577813    ( 0.0000,  0.0000,  0.0000)
  39 C      1.430012    1.944245   18.990906    ( 0.0000,  0.0000,  0.0000)
  40 O      1.461310    2.488777   20.093132    ( 0.0000,  0.0000,  0.0000)

Unit cell:
           periodic     x           y           z      points  spacing
  1. axis:    yes    8.703692    0.000000    0.000000    40     0.1884
  2. axis:    yes   -4.351846    7.537618    0.000000    40     0.1884
  3. axis:    no     0.000000    0.000000   27.106534   152     0.1783

  Lengths:   8.703692   8.703692  27.106534
  Angles:   90.000000  90.000000 120.000000

Effective grid spacing dv^(1/3) = 0.1941

     iter     time        total  log10-change:
                         energy  eigst   dens
iter:   1 07:00:10 -2031.199804  -2.43
iter:   2 07:00:36 -2034.291296  -1.78  -2.29
iter:   3 07:01:01 -2031.139679  -2.62  -1.54
iter:   4 07:01:27 -2031.112976  -3.14  -2.61
iter:   5 07:01:52 -2031.112790c -3.43  -3.04
iter:   6 07:02:17 -2031.112816c -3.79  -3.19
iter:   7 07:02:43 -2031.111814c -3.79  -3.40
iter:   8 07:03:08 -2031.111838c -3.93  -3.65
iter:   9 07:03:33 -2031.112096c -4.28  -3.67
iter:  10 07:03:59 -2031.112094c -4.51  -3.71
iter:  11 07:04:24 -2031.112592c -4.69  -3.68
iter:  12 07:04:49 -2031.113364c -4.35  -3.82
iter:  13 07:05:15 -2031.112522c -5.10  -3.24
iter:  14 07:05:40 -2031.112526c -5.33  -3.98
iter:  15 07:06:06 -2031.112446c -5.34  -4.06c
iter:  16 07:06:31 -2031.112540c -5.40  -4.14c
iter:  17 07:06:56 -2031.112390c -5.55  -4.20c
iter:  18 07:07:22 -2031.112442c -5.84  -4.40c
iter:  19 07:07:47 -2031.112402c -5.68  -4.27c
iter:  20 07:08:12 -2031.112466c -6.03  -4.24c
iter:  21 07:08:38 -2031.112484c -6.14  -4.59c
iter:  22 07:09:03 -2031.112470c -6.30  -4.68c
iter:  23 07:09:28 -2031.112502c -6.41  -4.84c
iter:  24 07:09:54 -2031.112460c -6.57  -4.76c
iter:  25 07:10:19 -2031.112470c -6.76  -4.85c
iter:  26 07:10:44 -2031.112466c -6.82  -4.54c
iter:  27 07:11:10 -2031.112469c -6.90  -5.12c
iter:  28 07:11:35 -2031.112472c -6.98  -5.30c
iter:  29 07:12:01 -2031.112479c -7.08  -5.33c
iter:  30 07:12:26 -2031.112484c -7.20  -5.23c
iter:  31 07:12:51 -2031.112485c -7.32  -5.32c
iter:  32 07:13:17 -2031.112481c -7.39  -5.37c
iter:  33 07:13:42 -2031.112484c -7.55c -5.68c

Converged after 33 iterations.

Dipole moment: (-5.441612, -4.986358, -0.218242) |e|*Ang

Energy contributions relative to reference atoms: (reference = -842213.965136)

Kinetic:       +672.772302
Potential:     -620.327068
External:        +0.000000
XC:            -2078.674549
Entropy (-ST):   -2.448068
Local:           -3.659134
--------------------------
Free energy:   -2032.336518
Extrapolated:  -2031.112484

Showing only first 2 kpts
 Kpt  Band  Eigenvalues  Occupancy
  0   224     -4.82163    1.12619
  0   225     -4.80387    1.03804
  0   226     -4.77168    0.87775
  0   227     -4.76366    0.83847

  1   224     -4.74802    0.76340
  1   225     -4.72533    0.65955
  1   226     -4.71367    0.60904
  1   227     -4.70215    0.56138


Fermi level: -4.79625

No gap

Forces in eV/Ang:
  0 Ti   -0.00621   -0.00911    0.46503
  1 Ti    0.03496    0.01895   -0.31687
  2 Ti   -0.28346   -0.09054   -0.12260
  3 Ti   -0.25784   -0.17978   -0.00864
  4 Ti    0.01501   -0.02233    0.34977
  5 Ti   -0.01279   -0.13693   -0.41316
  6 Ti   -0.00549    0.00148    0.06370
  7 Ti   -0.06687    0.00118    0.05246
  8 Ti   -0.01451    0.03072    0.35572
  9 Ti   -0.12058    0.06773   -0.41482
 10 Ti   -0.01769   -0.05071    0.02545
 11 Ti   -0.02071   -0.10985    0.10472
 12 Ti   -0.02410   -0.00900    0.34396
 13 Ti   -0.00892   -0.08372   -0.30200
 14 Ti    0.21590   -0.18201   -0.21697
 15 Ti    0.15596   -0.08079   -0.07149
 16 Ti   -0.01531   -0.01897    0.34505
 17 Ti   -0.07250    0.04274   -0.33454
 18 Ti    0.04602    0.17208   -0.21216
 19 Ti    0.02633   -0.17846   -0.00372
 20 Ti    0.00152    0.00112    0.32374
 21 Ti    0.11427    0.06716   -0.39116
 22 Ti    0.08846   -0.02926   -0.15433
 23 Ti    0.07417   -0.02461   -0.03023
 24 Ti    0.03334   -0.00636    0.32524
 25 Ti   -0.03472    0.03615   -0.30476
 26 Ti   -0.01377   -0.03148   -0.05238
 27 Ti    0.00052   -0.02739   -0.04264
 28 Ti    0.00251    0.00421    0.32552
 29 Ti    0.08332    0.04498   -0.32895
 30 Ti   -0.02070   -0.00052    0.04715
 31 Ti    0.12634    0.02224    0.02310
 32 Ti    0.01506    0.02845    0.34483
 33 Ti    0.00021   -0.04811   -0.33160
 34 Ti   -0.04728   -0.02126   -0.11280
 35 Ti   -0.05822   -0.00692   -0.02522
 36 H    -0.00101    0.22965    0.38206
 37 O     0.08391    0.38977   -0.73060
 38 C    -0.16056    0.13510    0.19331
 39 C     0.08628    0.59107    0.61518
 40 O    -0.10708   -0.60481    0.43466

BFGS:    4 07:13:55    -2031.112484        0.8575
System changes: positions 

Initializing position-dependent things.

Density initialized from wave functions
                                              
                                              
                                              
                                              
                                              
                                              
                                              
                    O                         
                  H                           
           Ti     OC     Ti                   
                   C                          
            TTi    TTi    TTi                 
              Ti     TTi    TTi               
                                              
               TTi    TTi    TTi              
                                              
                 Ti     Ti     Ti             
                                              
           Ti     TTi    TTi     Ti           
             Ti     Ti     Ti                 
                                              
               Ti     Ti     Ti               
                                              
                                              
                                              
                                              

Positions:
   0 Ti     0.000000    0.000000   10.000000    ( 0.0000,  0.0000,  0.0000)
   1 Ti     1.450615    0.837513   12.368845    ( 0.0000,  0.0000,  0.0000)
   2 Ti    -0.059093    1.662867   14.770193    ( 0.0000,  0.0000,  0.0000)
   3 Ti    -0.061808   -0.039209   17.043690    ( 0.0000,  0.0000,  0.0000)
   4 Ti    -1.450615    2.512539   10.000000    ( 0.0000,  0.0000,  0.0000)
   5 Ti    -0.000000    3.350052   12.368845    ( 0.0000,  0.0000,  0.0000)
   6 Ti    -1.460711    4.182286   14.823953    ( 0.0000,  0.0000,  0.0000)
   7 Ti    -1.462772    2.506053   17.074647    ( 0.0000,  0.0000,  0.0000)
   8 Ti    -2.901231    5.025079   10.000000    ( 0.0000,  0.0000,  0.0000)
   9 Ti    -1.450615    5.862592   12.368845    ( 0.0000,  0.0000,  0.0000)
  10 Ti    -2.897163    6.684029   14.801647    ( 0.0000,  0.0000,  0.0000)
  11 Ti    -2.909411    5.008028   17.083074    ( 0.0000,  0.0000,  0.0000)
  12 Ti     2.901231    0.000000   10.000000    ( 0.0000,  0.0000,  0.0000)
  13 Ti     4.351846    0.837513   12.368845    ( 0.0000,  0.0000,  0.0000)
  14 Ti     2.938500    1.632655   14.761060    ( 0.0000,  0.0000,  0.0000)
  15 Ti     2.948755   -0.028303   17.036630    ( 0.0000,  0.0000,  0.0000)
  16 Ti     1.450615    2.512539   10.000000    ( 0.0000,  0.0000,  0.0000)
  17 Ti     2.901231    3.350052   12.368845    ( 0.0000,  0.0000,  0.0000)
  18 Ti     1.467449    4.223979   14.765617    ( 0.0000,  0.0000,  0.0000)
  19 Ti     1.451143    2.506541   17.018445    ( 0.0000,  0.0000,  0.0000)
  20 Ti    -0.000000    5.025079   10.000000    ( 0.0000,  0.0000,  0.0000)
  21 Ti     1.450615    5.862592   12.368845    ( 0.0000,  0.0000,  0.0000)
  22 Ti     0.016708    6.706634   14.782310    ( 0.0000,  0.0000,  0.0000)
  23 Ti     0.011401    5.022556   17.023904    ( 0.0000,  0.0000,  0.0000)
  24 Ti     5.802461    0.000000   10.000000    ( 0.0000,  0.0000,  0.0000)
  25 Ti     7.253076    0.837513   12.368845    ( 0.0000,  0.0000,  0.0000)
  26 Ti     5.813805    1.660967   14.799615    ( 0.0000,  0.0000,  0.0000)
  27 Ti     5.813473   -0.005590   17.054739    ( 0.0000,  0.0000,  0.0000)
  28 Ti     4.351846    2.512539   10.000000    ( 0.0000,  0.0000,  0.0000)
  29 Ti     5.802461    3.350052   12.368845    ( 0.0000,  0.0000,  0.0000)
  30 Ti     4.347597    4.203292   14.817891    ( 0.0000,  0.0000,  0.0000)
  31 Ti     4.379797    2.518141   17.033947    ( 0.0000,  0.0000,  0.0000)
  32 Ti     2.901231    5.025079   10.000000    ( 0.0000,  0.0000,  0.0000)
  33 Ti     4.351846    5.862592   12.368845    ( 0.0000,  0.0000,  0.0000)
  34 Ti     2.882154    6.690543   14.780550    ( 0.0000,  0.0000,  0.0000)
  35 Ti     2.896364    5.035652   17.057655    ( 0.0000,  0.0000,  0.0000)
  36 H      1.508560   -0.021480   20.485086    ( 0.0000,  0.0000,  0.0000)
  37 O      1.504796   -0.409202   19.560393    ( 0.0000,  0.0000,  0.0000)
  38 C      1.447931    0.614167   18.595318    ( 0.0000,  0.0000,  0.0000)
  39 C      1.442670    1.983463   19.038747    ( 0.0000,  0.0000,  0.0000)
  40 O      1.449326    2.417823   20.177724    ( 0.0000,  0.0000,  0.0000)

Unit cell:
           periodic     x           y           z      points  spacing
  1. axis:    yes    8.703692    0.000000    0.000000    40     0.1884
  2. axis:    yes   -4.351846    7.537618    0.000000    40     0.1884
  3. axis:    no     0.000000    0.000000   27.106534   152     0.1783

  Lengths:   8.703692   8.703692  27.106534
  Angles:   90.000000  90.000000 120.000000

Effective grid spacing dv^(1/3) = 0.1941

     iter     time        total  log10-change:
                         energy  eigst   dens
iter:   1 07:15:06 -2033.614404  -0.80
iter:   2 07:15:31 -2083.103771  -0.42  -1.61
iter:   3 07:15:57 -2031.855192  -1.36  -0.99
iter:   4 07:16:22 -2031.345085  -1.71  -1.92
iter:   5 07:16:47 -2031.409308  -1.96  -2.28
iter:   6 07:17:13 -2031.319273c -2.37  -2.21
iter:   7 07:17:38 -2031.309639c -2.42  -2.61
iter:   8 07:18:03 -2031.301929c -2.59  -2.63
iter:   9 07:18:29 -2031.295525c -2.78  -2.72
iter:  10 07:18:54 -2031.298951c -3.06  -3.01
iter:  11 07:19:20 -2031.297620c -3.27  -2.97
iter:  12 07:19:45 -2031.301651c -3.30  -3.06
iter:  13 07:20:10 -2031.301150c -3.66  -2.98
iter:  14 07:20:36 -2031.299070c -3.67  -2.97
iter:  15 07:21:01 -2031.300020c -3.99  -3.37
iter:  16 07:21:26 -2031.299975c -3.96  -3.29
iter:  17 07:21:52 -2031.301131c -4.18  -3.46
iter:  18 07:22:17 -2031.300552c -4.28  -3.39
iter:  19 07:22:43 -2031.300349c -4.31  -3.32
iter:  20 07:23:08 -2031.300424c -4.66  -3.76
iter:  21 07:23:33 -2031.300105c -4.55  -3.68
iter:  22 07:23:59 -2031.300199c -4.79  -3.90
iter:  23 07:24:24 -2031.300253c -4.93  -4.00c
iter:  24 07:24:49 -2031.300430c -5.05  -4.14c
iter:  25 07:25:15 -2031.300339c -5.25  -4.25c
iter:  26 07:25:40 -2031.300345c -5.29  -4.07c
iter:  27 07:26:05 -2031.300393c -5.43  -4.06c
iter:  28 07:26:31 -2031.300398c -5.53  -4.39c
iter:  29 07:26:56 -2031.300430c -5.60  -4.53c
iter:  30 07:27:22 -2031.300428c -5.74  -4.71c
iter:  31 07:27:47 -2031.300468c -5.84  -4.74c
iter:  32 07:28:12 -2031.300458c -5.97  -4.74c
iter:  33 07:28:38 -2031.300454c -6.06  -4.60c
iter:  34 07:29:03 -2031.300469c -6.20  -4.82c
iter:  35 07:29:28 -2031.300457c -6.25  -4.83c
iter:  36 07:29:54 -2031.300458c -6.36  -4.89c
iter:  37 07:30:19 -2031.300443c -6.43  -4.91c
iter:  38 07:30:44 -2031.300464c -6.43  -4.94c
iter:  39 07:31:10 -2031.300458c -6.66  -4.80c
iter:  40 07:31:35 -2031.300452c -6.69  -5.05c
iter:  41 07:32:00 -2031.300462c -6.83  -5.26c
iter:  42 07:32:26 -2031.300464c -6.88  -5.30c
iter:  43 07:32:51 -2031.300473c -6.98  -5.45c
iter:  44 07:33:17 -2031.300465c -7.10  -5.38c
iter:  45 07:33:42 -2031.300466c -7.18  -5.42c
iter:  46 07:34:07 -2031.300468c -7.29  -5.59c
iter:  47 07:34:33 -2031.300462c -7.38  -5.45c
iter:  48 07:34:58 -2031.300462c -7.49c -5.69c

Converged after 48 iterations.

Dipole moment: (-4.867329, -1.765642, -0.215962) |e|*Ang

Energy contributions relative to reference atoms: (reference = -842213.965136)

Kinetic:       +670.685113
Potential:     -618.907515
External:        +0.000000
XC:            -2078.183522
Entropy (-ST):   -2.435224
Local:           -3.676927
--------------------------
Free energy:   -2032.518074
Extrapolated:  -2031.300462

Showing only first 2 kpts
 Kpt  Band  Eigenvalues  Occupancy
  0   224     -4.82058    1.12394
  0   225     -4.80039    1.02363
  0   226     -4.77725    0.90820
  0   227     -4.76313    0.83875

  1   224     -4.75096    0.78012
  1   225     -4.72553    0.66303
  1   226     -4.71116    0.60096
  1   227     -4.70274    0.56615


Fermi level: -4.79566

No gap

Forces in eV/Ang:
  0 Ti   -0.00396   -0.01086    0.45947
  1 Ti    0.02413    0.01563   -0.33090
  2 Ti    0.04412   -0.11835   -0.00835
  3 Ti    0.32900    0.14382    0.02570
  4 Ti    0.01123   -0.02159    0.34685
  5 Ti   -0.01997   -0.12624   -0.43149
  6 Ti   -0.03527    0.00373    0.01874
  7 Ti    0.04056   -0.03979    0.07605
  8 Ti   -0.01439    0.03127    0.35649
  9 Ti   -0.11610    0.07055   -0.40596
 10 Ti   -0.02704   -0.01539    0.11956
 11 Ti    0.01498   -0.01598    0.09915
 12 Ti   -0.02739   -0.01131    0.33720
 13 Ti    0.00951   -0.08606   -0.33992
 14 Ti    0.10248    0.15787    0.01411
 15 Ti   -0.13632    0.07243    0.11424
 16 Ti   -0.01544   -0.02019    0.34635
 17 Ti   -0.05791    0.04501   -0.36565
 18 Ti   -0.02207   -0.05730   -0.04477
 19 Ti    0.01793   -0.63808    0.25873
 20 Ti   -0.00330    0.00226    0.31475
 21 Ti    0.11864    0.06508   -0.45002
 22 Ti    0.05415   -0.01990   -0.11958
 23 Ti    0.10827   -0.05306    0.01050
 24 Ti    0.03491   -0.00568    0.29633
 25 Ti   -0.05162    0.03234   -0.33174
 26 Ti   -0.04061   -0.02591   -0.08135
 27 Ti   -0.03556   -0.02638   -0.04178
 28 Ti    0.00578    0.00623    0.31900
 29 Ti    0.08580    0.03716   -0.30714
 30 Ti   -0.00374   -0.01249    0.01959
 31 Ti    0.01531   -0.04902    0.02362
 32 Ti    0.01972    0.03107    0.33370
 33 Ti   -0.00789   -0.05477   -0.32512
 34 Ti    0.00934   -0.00047   -0.10104
 35 Ti   -0.08542   -0.07401    0.01101
 36 H    -0.00149   -0.19052   -0.96212
 37 O    -0.00658    0.45287    0.87176
 38 C    -0.01537   -0.07395   -0.97310
 39 C    -0.05131    0.85025    0.18308
 40 O     0.00854   -0.13498    0.88795

BFGS:    5 07:35:11    -2031.300462        0.9824
System changes: positions 

Initializing position-dependent things.

Density initialized from wave functions
                                              
                                              
                                              
                                              
                                              
                                              
                                              
                    O                         
                  HC                          
           Ti     Oi     Ti                   
                   C                          
            TTi    TTi    TTi                 
              Ti     TTi    TTi               
                                              
               Ti     TTi    TTi              
                                              
                 Ti     Ti     Ti             
                                              
           Ti     TTi    TTi     Ti           
             Ti     Ti     Ti                 
                                              
               Ti     Ti     Ti               
                                              
                                              
                                              
                                              

Positions:
   0 Ti     0.000000    0.000000   10.000000    ( 0.0000,  0.0000,  0.0000)
   1 Ti     1.450615    0.837513   12.368845    ( 0.0000,  0.0000,  0.0000)
   2 Ti    -0.078733    1.653787   14.759500    ( 0.0000,  0.0000,  0.0000)
   3 Ti    -0.076753   -0.050074   17.041781    ( 0.0000,  0.0000,  0.0000)
   4 Ti    -1.450615    2.512539   10.000000    ( 0.0000,  0.0000,  0.0000)
   5 Ti    -0.000000    3.350052   12.368845    ( 0.0000,  0.0000,  0.0000)
   6 Ti    -1.461458    4.182470   14.828988    ( 0.0000,  0.0000,  0.0000)
   7 Ti    -1.467769    2.505869   17.079508    ( 0.0000,  0.0000,  0.0000)
   8 Ti    -2.901231    5.025079   10.000000    ( 0.0000,  0.0000,  0.0000)
   9 Ti    -1.450615    5.862592   12.368845    ( 0.0000,  0.0000,  0.0000)
  10 Ti    -2.898779    6.679776   14.803971    ( 0.0000,  0.0000,  0.0000)
  11 Ti    -2.910526    4.999138   17.092040    ( 0.0000,  0.0000,  0.0000)
  12 Ti     2.901231    0.000000   10.000000    ( 0.0000,  0.0000,  0.0000)
  13 Ti     4.351846    0.837513   12.368845    ( 0.0000,  0.0000,  0.0000)
  14 Ti     2.957178    1.622923   14.745384    ( 0.0000,  0.0000,  0.0000)
  15 Ti     2.963742   -0.035616   17.030603    ( 0.0000,  0.0000,  0.0000)
  16 Ti     1.450615    2.512539   10.000000    ( 0.0000,  0.0000,  0.0000)
  17 Ti     2.901231    3.350052   12.368845    ( 0.0000,  0.0000,  0.0000)
  18 Ti     1.469696    4.237206   14.748952    ( 0.0000,  0.0000,  0.0000)
  19 Ti     1.453214    2.489089   17.018864    ( 0.0000,  0.0000,  0.0000)
  20 Ti    -0.000000    5.025079   10.000000    ( 0.0000,  0.0000,  0.0000)
  21 Ti     1.450615    5.862592   12.368845    ( 0.0000,  0.0000,  0.0000)
  22 Ti     0.023588    6.704494   14.770150    ( 0.0000,  0.0000,  0.0000)
  23 Ti     0.017726    5.020346   17.021613    ( 0.0000,  0.0000,  0.0000)
  24 Ti     5.802461    0.000000   10.000000    ( 0.0000,  0.0000,  0.0000)
  25 Ti     7.253076    0.837513   12.368845    ( 0.0000,  0.0000,  0.0000)
  26 Ti     5.812417    1.658298   14.795067    ( 0.0000,  0.0000,  0.0000)
  27 Ti     5.813317   -0.007911   17.051010    ( 0.0000,  0.0000,  0.0000)
  28 Ti     4.351846    2.512539   10.000000    ( 0.0000,  0.0000,  0.0000)
  29 Ti     5.802461    3.350052   12.368845    ( 0.0000,  0.0000,  0.0000)
  30 Ti     4.346027    4.203240   14.821665    ( 0.0000,  0.0000,  0.0000)
  31 Ti     4.389685    2.519329   17.036182    ( 0.0000,  0.0000,  0.0000)
  32 Ti     2.901231    5.025079   10.000000    ( 0.0000,  0.0000,  0.0000)
  33 Ti     4.351846    5.862592   12.368845    ( 0.0000,  0.0000,  0.0000)
  34 Ti     2.878460    6.688794   14.770951    ( 0.0000,  0.0000,  0.0000)
  35 Ti     2.891304    5.034646   17.055698    ( 0.0000,  0.0000,  0.0000)
  36 H      1.507934   -0.015226   20.488126    ( 0.0000,  0.0000,  0.0000)
  37 O      1.510229   -0.378193   19.546148    ( 0.0000,  0.0000,  0.0000)
  38 C      1.433660    0.646552   18.590477    ( 0.0000,  0.0000,  0.0000)
  39 C      1.448739    2.018122   19.068990    ( 0.0000,  0.0000,  0.0000)
  40 O      1.443373    2.376152   20.237045    ( 0.0000,  0.0000,  0.0000)

Unit cell:
           periodic     x           y           z      points  spacing
  1. axis:    yes    8.703692    0.000000    0.000000    40     0.1884
  2. axis:    yes   -4.351846    7.537618    0.000000    40     0.1884
  3. axis:    no     0.000000    0.000000   27.106534   152     0.1783

  Lengths:   8.703692   8.703692  27.106534
  Angles:   90.000000  90.000000 120.000000

Effective grid spacing dv^(1/3) = 0.1941

     iter     time        total  log10-change:
                         energy  eigst   dens
iter:   1 07:36:21 -2032.670278  -1.22
iter:   2 07:36:47 -2068.147192  -0.62  -1.72
iter:   3 07:37:12 -2031.681782  -1.51  -1.05
iter:   4 07:37:38 -2031.392016  -1.96  -2.08
iter:   5 07:38:03 -2031.418642  -2.24  -2.53
iter:   6 07:38:28 -2031.387666c -2.60  -2.47
iter:   7 07:38:54 -2031.382119c -2.69  -2.80
iter:   8 07:39:19 -2031.381472c -2.86  -3.00
iter:   9 07:39:44 -2031.389681c -3.12  -3.15
iter:  10 07:40:10 -2031.384576c -3.22  -2.87
iter:  11 07:40:35 -2031.387462c -3.54  -3.21
iter:  12 07:41:00 -2031.389369c -3.61  -3.08
iter:  13 07:41:25 -2031.387816c -3.85  -3.13
iter:  14 07:41:51 -2031.387405c -3.94  -3.33
iter:  15 07:42:16 -2031.387393c -3.97  -3.52
iter:  16 07:42:41 -2031.388568c -4.46  -3.65
iter:  17 07:43:07 -2031.387800c -4.29  -3.40
iter:  18 07:43:32 -2031.388073c -4.47  -3.82
iter:  19 07:43:57 -2031.387675c -4.75  -3.76
iter:  20 07:44:23 -2031.387877c -4.79  -3.60
iter:  21 07:44:48 -2031.387959c -5.04  -3.99
iter:  22 07:45:13 -2031.387924c -5.11  -4.13c
iter:  23 07:45:39 -2031.388051c -5.24  -4.12c
iter:  24 07:46:04 -2031.387991c -5.34  -4.13c
iter:  25 07:46:29 -2031.388061c -5.44  -4.43c
iter:  26 07:46:54 -2031.388004c -5.59  -4.63c
iter:  27 07:47:20 -2031.388049c -5.64  -4.56c
iter:  28 07:47:45 -2031.388056c -5.85  -4.56c
iter:  29 07:48:10 -2031.388052c -5.94  -4.84c
iter:  30 07:48:36 -2031.388072c -6.06  -4.84c
iter:  31 07:49:01 -2031.388064c -6.15  -4.90c
iter:  32 07:49:26 -2031.388073c -6.24  -5.15c
iter:  33 07:49:52 -2031.388069c -6.34  -5.33c
iter:  34 07:50:17 -2031.388073c -6.41  -5.31c
iter:  35 07:50:42 -2031.388075c -6.53  -5.39c
iter:  36 07:51:07 -2031.388070c -6.55  -5.34c
iter:  37 07:51:33 -2031.388077c -6.72  -5.43c
iter:  38 07:51:58 -2031.388081c -6.79  -5.57c
iter:  39 07:52:23 -2031.388074c -6.84  -5.59c
iter:  40 07:52:49 -2031.388078c -6.92  -5.72c
iter:  41 07:53:14 -2031.388078c -7.08  -5.71c
iter:  42 07:53:39 -2031.388078c -7.17  -5.80c
iter:  43 07:54:04 -2031.388077c -7.21  -5.77c
iter:  44 07:54:30 -2031.388077c -7.32  -5.72c
iter:  45 07:54:55 -2031.388077c -7.39  -5.87c
iter:  46 07:55:20 -2031.388080c -7.42c -5.91c

Converged after 46 iterations.

Dipole moment: (-4.791417, -0.164462, -0.230565) |e|*Ang

Energy contributions relative to reference atoms: (reference = -842213.965136)

Kinetic:       +668.403409
Potential:     -617.235465
External:        +0.000000
XC:            -2077.664695
Entropy (-ST):   -2.426961
Local:           -3.677848
--------------------------
Free energy:   -2032.601560
Extrapolated:  -2031.388080

Showing only first 2 kpts
 Kpt  Band  Eigenvalues  Occupancy
  0   224     -4.83273    1.12539
  0   225     -4.80965    1.01070
  0   226     -4.79287    0.92691
  0   227     -4.77627    0.84504

  1   224     -4.76447    0.78804
  1   225     -4.74203    0.68380
  1   226     -4.72048    0.59035
  1   227     -4.71659    0.57430


Fermi level: -4.80752

No gap

Forces in eV/Ang:
  0 Ti   -0.00236   -0.01167    0.45657
  1 Ti    0.01985    0.01308   -0.33591
  2 Ti    0.20875   -0.10428    0.08024
  3 Ti    0.48318    0.22952    0.01993
  4 Ti    0.00944   -0.02117    0.34510
  5 Ti   -0.02435   -0.11952   -0.44123
  6 Ti   -0.04552    0.00347   -0.00270
  7 Ti    0.09369   -0.06273    0.07993
  8 Ti   -0.01450    0.03145    0.35671
  9 Ti   -0.11411    0.07097   -0.40252
 10 Ti   -0.02044   -0.00052    0.15329
 11 Ti    0.05491    0.02596    0.09698
 12 Ti   -0.02981   -0.01247    0.33381
 13 Ti    0.02231   -0.08803   -0.37140
 14 Ti   -0.02954    0.26432    0.09997
 15 Ti   -0.28004    0.11977    0.18313
 16 Ti   -0.01583   -0.02189    0.34804
 17 Ti   -0.04918    0.04838   -0.38166
 18 Ti   -0.09591   -0.17226    0.00462
 19 Ti    0.04958   -0.70468    0.42166
 20 Ti   -0.00638    0.00283    0.31001
 21 Ti    0.12135    0.06544   -0.49089
 22 Ti    0.00602   -0.01844   -0.07682
 23 Ti    0.11729   -0.07149    0.03447
 24 Ti    0.03575   -0.00512    0.28071
 25 Ti   -0.06260    0.02920   -0.35553
 26 Ti   -0.04531   -0.01762   -0.08580
 27 Ti   -0.04456   -0.01967   -0.05211
 28 Ti    0.00771    0.00751    0.31478
 29 Ti    0.08572    0.03214   -0.29477
 30 Ti    0.00864   -0.01304    0.00191
 31 Ti   -0.02159   -0.08658    0.03255
 32 Ti    0.02289    0.03248    0.32650
 33 Ti   -0.01089   -0.05732   -0.32096
 34 Ti    0.04480    0.01085   -0.08679
 35 Ti   -0.09186   -0.11097    0.02366
 36 H     0.00159   -0.10782   -1.21034
 37 O    -0.00932    0.36654    0.92994
 38 C     0.06866    0.01749   -1.01366
 39 C    -0.12453    0.80174    0.30683
 40 O     0.04087   -0.22350    0.47005

BFGS:    6 07:55:33    -2031.388080        1.2151
System changes: positions 

Initializing position-dependent things.

Density initialized from wave functions
                                              
                                              
                                              
                                              
                                              
                                              
                                              
                    O                         
                  H C                         
           Ti     Oi     Ti                   
                   C                          
            TTi    TTi    TTi                 
              Ti     TTi    TTi               
                                              
               Ti     TTi    TTi              
                                              
                 Ti     Ti     Ti             
                                              
           Ti     TTi    TTi     Ti           
             Ti     Ti     Ti                 
                                              
               Ti     Ti     Ti               
                                              
                                              
                                              
                                              

Positions:
   0 Ti     0.000000    0.000000   10.000000    ( 0.0000,  0.0000,  0.0000)
   1 Ti     1.450615    0.837513   12.368845    ( 0.0000,  0.0000,  0.0000)
   2 Ti    -0.109841    1.634457   14.741733    ( 0.0000,  0.0000,  0.0000)
   3 Ti    -0.093978   -0.065271   17.038272    ( 0.0000,  0.0000,  0.0000)
   4 Ti    -1.450615    2.512539   10.000000    ( 0.0000,  0.0000,  0.0000)
   5 Ti    -0.000000    3.350052   12.368845    ( 0.0000,  0.0000,  0.0000)
   6 Ti    -1.463904    4.182882   14.838309    ( 0.0000,  0.0000,  0.0000)
   7 Ti    -1.474865    2.503995   17.090411    ( 0.0000,  0.0000,  0.0000)
   8 Ti    -2.901231    5.025079   10.000000    ( 0.0000,  0.0000,  0.0000)
   9 Ti    -1.450615    5.862592   12.368845    ( 0.0000,  0.0000,  0.0000)
  10 Ti    -2.902160    6.671773   14.811801    ( 0.0000,  0.0000,  0.0000)
  11 Ti    -2.910935    4.983132   17.111180    ( 0.0000,  0.0000,  0.0000)
  12 Ti     2.901231    0.000000   10.000000    ( 0.0000,  0.0000,  0.0000)
  13 Ti     4.351846    0.837513   12.368845    ( 0.0000,  0.0000,  0.0000)
  14 Ti     2.990543    1.611033   14.718520    ( 0.0000,  0.0000,  0.0000)
  15 Ti     2.985533   -0.046975   17.023420    ( 0.0000,  0.0000,  0.0000)
  16 Ti     1.450615    2.512539   10.000000    ( 0.0000,  0.0000,  0.0000)
  17 Ti     2.901231    3.350052   12.368845    ( 0.0000,  0.0000,  0.0000)
  18 Ti     1.470872    4.257715   14.717595    ( 0.0000,  0.0000,  0.0000)
  19 Ti     1.458676    2.441840   17.029899    ( 0.0000,  0.0000,  0.0000)
  20 Ti    -0.000000    5.025079   10.000000    ( 0.0000,  0.0000,  0.0000)
  21 Ti     1.450615    5.862592   12.368845    ( 0.0000,  0.0000,  0.0000)
  22 Ti     0.036123    6.700070   14.746039    ( 0.0000,  0.0000,  0.0000)
  23 Ti     0.032242    5.014444   17.018249    ( 0.0000,  0.0000,  0.0000)
  24 Ti     5.802461    0.000000   10.000000    ( 0.0000,  0.0000,  0.0000)
  25 Ti     7.253076    0.837513   12.368845    ( 0.0000,  0.0000,  0.0000)
  26 Ti     5.808828    1.652970   14.784653    ( 0.0000,  0.0000,  0.0000)
  27 Ti     5.812060   -0.012625   17.042657    ( 0.0000,  0.0000,  0.0000)
  28 Ti     4.351846    2.512539   10.000000    ( 0.0000,  0.0000,  0.0000)
  29 Ti     5.802461    3.350052   12.368845    ( 0.0000,  0.0000,  0.0000)
  30 Ti     4.343360    4.202895   14.828697    ( 0.0000,  0.0000,  0.0000)
  31 Ti     4.407855    2.519417   17.041243    ( 0.0000,  0.0000,  0.0000)
  32 Ti     2.901231    5.025079   10.000000    ( 0.0000,  0.0000,  0.0000)
  33 Ti     4.351846    5.862592   12.368845    ( 0.0000,  0.0000,  0.0000)
  34 Ti     2.872750    6.685804   14.751025    ( 0.0000,  0.0000,  0.0000)
  35 Ti     2.879727    5.030030   17.052571    ( 0.0000,  0.0000,  0.0000)
  36 H      1.507098    0.002110   20.477923    ( 0.0000,  0.0000,  0.0000)
[...]
  40 O      1.464059    5.603245   18.348823    ( 0.0000,  0.0000,  0.0000)

Unit cell:
           periodic     x           y           z      points  spacing
  1. axis:    yes    8.703692    0.000000    0.000000    40     0.1884
  2. axis:    yes   -4.351846    7.537618    0.000000    40     0.1884
  3. axis:    no     0.000000    0.000000   27.106534   152     0.1783

  Lengths:   8.703692   8.703692  27.106534
  Angles:   90.000000  90.000000 120.000000

Effective grid spacing dv^(1/3) = 0.1941

     iter     time        total  log10-change:
                         energy  eigst   dens
iter:   1 11:38:02 -2034.037666  -3.35
iter:   2 11:38:27 -2034.087312  -3.43  -3.09
iter:   3 11:38:52 -2034.036609c -4.17  -2.43
iter:   4 11:39:17 -2034.035311c -4.58  -3.44
iter:   5 11:39:42 -2034.035573c -4.90  -3.70
iter:   6 11:40:07 -2034.035557c -5.06  -3.90
iter:   7 11:40:33 -2034.035526c -5.10  -4.03c
iter:   8 11:40:58 -2034.035549c -5.27  -4.21c
iter:   9 11:41:23 -2034.035573c -5.54  -4.01c
iter:  10 11:41:48 -2034.035570c -5.86  -4.26c
iter:  11 11:42:13 -2034.035535c -5.95  -4.38c
iter:  12 11:42:38 -2034.035618c -6.07  -4.44c
iter:  13 11:43:03 -2034.035542c -6.26  -4.51c
iter:  14 11:43:28 -2034.035568c -6.40  -4.68c
iter:  15 11:43:53 -2034.035583c -6.46  -4.85c
iter:  16 11:44:18 -2034.035569c -6.70  -4.60c
iter:  17 11:44:43 -2034.035569c -6.79  -5.04c
iter:  18 11:45:08 -2034.035564c -6.97  -5.14c
iter:  19 11:45:34 -2034.035572c -7.09  -5.21c
iter:  20 11:45:59 -2034.035566c -7.21  -5.26c
iter:  21 11:46:24 -2034.035559c -7.37  -5.30c
iter:  22 11:46:49 -2034.035570c -7.45c -4.90c

Converged after 22 iterations.

Dipole moment: (0.972036, -10.114499, 0.133265) |e|*Ang

Energy contributions relative to reference atoms: (reference = -842213.965136)

Kinetic:       +675.379139
Potential:     -625.963703
External:        +0.000000
XC:            -2078.759570
Entropy (-ST):   -2.257346
Local:           -3.562763
--------------------------
Free energy:   -2035.164243
Extrapolated:  -2034.035570

Showing only first 2 kpts
 Kpt  Band  Eigenvalues  Occupancy
  0   224     -4.54348    1.13682
  0   225     -4.53079    1.07408
  0   226     -4.50822    0.96138
  0   227     -4.49245    0.88306

  1   224     -4.53501    1.09505
  1   225     -4.50216    0.93118
  1   226     -4.43236    0.60484
  1   227     -4.41708    0.54235


Fermi level: -4.51595

No gap

Forces in eV/Ang:
  0 Ti   -0.00128    0.00149    0.49053
  1 Ti    0.04849    0.03186   -0.25409
  2 Ti    0.01891   -0.00418    0.01026
  3 Ti    0.01884    0.02323   -0.00452
  4 Ti    0.00161   -0.03538    0.31825
  5 Ti    0.04068   -0.13950   -0.50279
  6 Ti   -0.02377    0.02635    0.00438
  7 Ti    0.00154   -0.00931    0.01457
  8 Ti   -0.01420    0.03513    0.35873
  9 Ti   -0.06596    0.00731   -0.41211
 10 Ti   -0.01831   -0.02324   -0.00781
 11 Ti   -0.00740   -0.01855   -0.02711
 12 Ti   -0.03189    0.00223    0.37313
 13 Ti   -0.01175   -0.10515   -0.23370
 14 Ti   -0.00362    0.00207   -0.00716
 15 Ti    0.01517    0.01132   -0.01153
 16 Ti   -0.01404   -0.02913    0.35129
 17 Ti   -0.12497    0.01997   -0.39298
 18 Ti    0.00743   -0.01002    0.00824
 19 Ti   -0.00432   -0.00509   -0.00747
 20 Ti   -0.01209   -0.01086    0.29353
 21 Ti    0.12307    0.05833   -0.45803
 22 Ti   -0.01541    0.01592   -0.00035
 23 Ti    0.00764    0.02244    0.01043
 24 Ti    0.03392    0.02100    0.35467
 25 Ti   -0.00857    0.04037   -0.26734
 26 Ti    0.00904    0.03961    0.00324
 27 Ti   -0.06163    0.03996    0.00292
 28 Ti    0.01702   -0.00562    0.30524
 29 Ti    0.07596   -0.02756   -0.40278
 30 Ti    0.01972   -0.02725    0.00404
 31 Ti   -0.01480    0.01169   -0.01592
 32 Ti    0.02774    0.01948    0.30712
 33 Ti   -0.00885   -0.11055   -0.34257
 34 Ti    0.00189    0.01562   -0.00888
 35 Ti    0.03221    0.00002   -0.00862
 36 H     0.00773    0.00709    0.00888
 37 O     0.01514    0.00922    0.01218
 38 C     0.01352    0.00527   -0.01416
 39 C     0.00529   -0.00036   -0.01902
 40 O    -0.00050   -0.00173    0.01873

BFGS:  114 11:47:02    -2034.035570        0.0735
System changes: positions 

Initializing position-dependent things.

Density initialized from wave functions
                                              
                                              
                                              
                                              
                                              
                                              
                                              
                  H   O                       
                     C                        
           Ti    TO      Ti                   
                   CTi                        
            Ti     Ti     TTi                 
             TiTi    TTi    TTi               
                                              
               TTi    TTi    TTi              
                                              
                 Ti     Ti     Ti             
                                              
           Ti     TTi    TTi     Ti           
             Ti     Ti     Ti                 
                                              
               Ti     Ti     Ti               
                                              
                                              
                                              
                                              

Positions:
   0 Ti     0.000000    0.000000   10.000000    ( 0.0000,  0.0000,  0.0000)
   1 Ti     1.450615    0.837513   12.368845    ( 0.0000,  0.0000,  0.0000)
   2 Ti     0.043901    1.667194   14.850151    ( 0.0000,  0.0000,  0.0000)
   3 Ti     0.012547   -0.049865   17.011872    ( 0.0000,  0.0000,  0.0000)
   4 Ti    -1.450615    2.512539   10.000000    ( 0.0000,  0.0000,  0.0000)
   5 Ti    -0.000000    3.350052   12.368845    ( 0.0000,  0.0000,  0.0000)
   6 Ti    -1.488995    4.089051   14.771845    ( 0.0000,  0.0000,  0.0000)
   7 Ti    -1.490966    2.426084   17.092397    ( 0.0000,  0.0000,  0.0000)
   8 Ti    -2.901231    5.025079   10.000000    ( 0.0000,  0.0000,  0.0000)
   9 Ti    -1.450615    5.862592   12.368845    ( 0.0000,  0.0000,  0.0000)
  10 Ti    -2.874076    6.604360   14.822570    ( 0.0000,  0.0000,  0.0000)
  11 Ti    -2.882769    4.941058   17.099499    ( 0.0000,  0.0000,  0.0000)
  12 Ti     2.901231    0.000000   10.000000    ( 0.0000,  0.0000,  0.0000)
  13 Ti     4.351846    0.837513   12.368845    ( 0.0000,  0.0000,  0.0000)
  14 Ti     2.915936    1.649361   14.860821    ( 0.0000,  0.0000,  0.0000)
  15 Ti     2.902143   -0.028574   17.053080    ( 0.0000,  0.0000,  0.0000)
  16 Ti     1.450615    2.512539   10.000000    ( 0.0000,  0.0000,  0.0000)
  17 Ti     2.901231    3.350052   12.368845    ( 0.0000,  0.0000,  0.0000)
  18 Ti     1.462990    4.161168   14.691928    ( 0.0000,  0.0000,  0.0000)
  19 Ti     1.467351    2.504132   17.308437    ( 0.0000,  0.0000,  0.0000)
  20 Ti    -0.000000    5.025079   10.000000    ( 0.0000,  0.0000,  0.0000)
  21 Ti     1.450615    5.862592   12.368845    ( 0.0000,  0.0000,  0.0000)
  22 Ti     0.035827    6.628553   14.791134    ( 0.0000,  0.0000,  0.0000)
  23 Ti    -0.091222    4.912071   17.016059    ( 0.0000,  0.0000,  0.0000)
  24 Ti     5.802461    0.000000   10.000000    ( 0.0000,  0.0000,  0.0000)
  25 Ti     7.253076    0.837513   12.368845    ( 0.0000,  0.0000,  0.0000)
  26 Ti     5.831004    1.543472   14.834184    ( 0.0000,  0.0000,  0.0000)
  27 Ti     5.824760   -0.191187   17.182566    ( 0.0000,  0.0000,  0.0000)
  28 Ti     4.351846    2.512539   10.000000    ( 0.0000,  0.0000,  0.0000)
  29 Ti     5.802461    3.350052   12.368845    ( 0.0000,  0.0000,  0.0000)
  30 Ti     4.403125    4.101752   14.770886    ( 0.0000,  0.0000,  0.0000)
  31 Ti     4.485240    2.406426   17.082826    ( 0.0000,  0.0000,  0.0000)
  32 Ti     2.901231    5.025079   10.000000    ( 0.0000,  0.0000,  0.0000)
  33 Ti     4.351846    5.862592   12.368845    ( 0.0000,  0.0000,  0.0000)
  34 Ti     2.915788    6.644939   14.760553    ( 0.0000,  0.0000,  0.0000)
  35 Ti     3.002676    4.913468   17.003006    ( 0.0000,  0.0000,  0.0000)
  36 H      1.287563    1.035331   20.322322    ( 0.0000,  0.0000,  0.0000)
  37 O      1.362679    0.281480   19.716111    ( 0.0000,  0.0000,  0.0000)
  38 C      1.426681    0.747949   18.407536    ( 0.0000,  0.0000,  0.0000)
  39 C      1.458326    4.232364   18.277358    ( 0.0000,  0.0000,  0.0000)
  40 O      1.464091    5.604380   18.349601    ( 0.0000,  0.0000,  0.0000)

Unit cell:
           periodic     x           y           z      points  spacing
  1. axis:    yes    8.703692    0.000000    0.000000    40     0.1884
  2. axis:    yes   -4.351846    7.537618    0.000000    40     0.1884
  3. axis:    no     0.000000    0.000000   27.106534   152     0.1783

  Lengths:   8.703692   8.703692  27.106534
  Angles:   90.000000  90.000000 120.000000

Effective grid spacing dv^(1/3) = 0.1941

     iter     time        total  log10-change:
                         energy  eigst   dens
iter:   1 11:48:12 -2034.037466  -3.38
iter:   2 11:48:37 -2034.048911  -3.86  -3.22
iter:   3 11:49:03 -2034.038249c -4.34  -2.74
iter:   4 11:49:28 -2034.035875c -4.76  -3.21
iter:   5 11:49:53 -2034.036173c -5.08  -3.66
iter:   6 11:50:19 -2034.036127c -5.18  -3.93
iter:   7 11:50:44 -2034.036066c -5.14  -4.02c
iter:   8 11:51:09 -2034.036093c -5.32  -4.21c
iter:   9 11:51:35 -2034.036115c -5.73  -4.36c
iter:  10 11:52:00 -2034.036185c -5.88  -4.41c
iter:  11 11:52:25 -2034.036125c -6.09  -4.14c
iter:  12 11:52:50 -2034.036155c -6.25  -4.36c
iter:  13 11:53:16 -2034.036120c -6.40  -4.70c
iter:  14 11:53:41 -2034.036139c -6.57  -4.78c
iter:  15 11:54:06 -2034.036116c -6.62  -4.82c
iter:  16 11:54:32 -2034.036107c -6.77  -4.90c
iter:  17 11:54:57 -2034.036163c -6.82  -4.88c
iter:  18 11:55:22 -2034.036118c -7.09  -4.36c
iter:  19 11:55:48 -2034.036117c -7.23  -5.21c
iter:  20 11:56:13 -2034.036131c -7.32  -5.24c
iter:  21 11:56:38 -2034.036126c -7.47c -5.38c

Converged after 21 iterations.

Dipole moment: (0.982682, -10.117108, 0.130995) |e|*Ang

Energy contributions relative to reference atoms: (reference = -842213.965136)

Kinetic:       +675.285886
Potential:     -625.897804
External:        +0.000000
XC:            -2078.732885
Entropy (-ST):   -2.257244
Local:           -3.562701
--------------------------
Free energy:   -2035.164748
Extrapolated:  -2034.036126

Showing only first 2 kpts
 Kpt  Band  Eigenvalues  Occupancy
  0   224     -4.54511    1.13630
  0   225     -4.53252    1.07407
  0   226     -4.50999    0.96159
  0   227     -4.49429    0.88362

  1   224     -4.53653    1.09397
  1   225     -4.50386    0.93102
  1   226     -4.43406    0.60469
  1   227     -4.41874    0.54207


Fermi level: -4.51768

No gap

Forces in eV/Ang:
  0 Ti   -0.00140    0.00150    0.49027
  1 Ti    0.04916    0.03151   -0.25434
  2 Ti    0.00706    0.00449    0.00839
  3 Ti    0.01989    0.02349    0.00192
  4 Ti    0.00182   -0.03529    0.31858
  5 Ti    0.04078   -0.14071   -0.50008
  6 Ti   -0.01997    0.02756    0.00276
  7 Ti    0.00544   -0.00522    0.00746
  8 Ti   -0.01384    0.03518    0.35833
  9 Ti   -0.06615    0.00655   -0.41078
 10 Ti   -0.01049   -0.02344   -0.00783
 11 Ti    0.00582   -0.02217   -0.01569
 12 Ti   -0.03201    0.00199    0.37398
 13 Ti   -0.00969   -0.10436   -0.23401
 14 Ti   -0.01075   -0.00666   -0.00930
 15 Ti   -0.00611    0.01916   -0.01421
 16 Ti   -0.01427   -0.02909    0.35149
 17 Ti   -0.12628    0.02139   -0.39286
 18 Ti    0.00439   -0.01221    0.01089
 19 Ti   -0.00854    0.00086    0.00587
 20 Ti   -0.01238   -0.01091    0.29453
 21 Ti    0.12227    0.05632   -0.45939
 22 Ti   -0.01656    0.01509   -0.00763
 23 Ti    0.01134    0.01839    0.00667
 24 Ti    0.03400    0.02123    0.35507
 25 Ti   -0.00724    0.04026   -0.26806
 26 Ti    0.00697    0.03677   -0.00067
 27 Ti   -0.03807    0.02912    0.00642
 28 Ti    0.01705   -0.00580    0.30512
 29 Ti    0.07707   -0.02697   -0.40376
 30 Ti    0.00395   -0.01626    0.01304
 31 Ti   -0.01851    0.01856    0.00236
 32 Ti    0.02787    0.01951    0.30701
 33 Ti   -0.00882   -0.10995   -0.34466
 34 Ti    0.00717    0.02976    0.00402
 35 Ti    0.01457   -0.00704   -0.01638
 36 H     0.00848   -0.00788    0.01073
 37 O     0.00180    0.02963    0.00154
 38 C     0.00079    0.00493   -0.02709
 39 C     0.01591   -0.01019   -0.02688
 40 O    -0.00265   -0.00086    0.01146

BFGS:  115 11:56:51    -2034.036126        0.0484
Timing:                                      incl.     excl.
-------------------------------------------------------------------
Density initialized from wave functions:    14.770    14.767   0.0% |
 Symmetrize density:                         0.003     0.003   0.0% |
Forces:                                   1502.380  1502.380   1.4% ||
Hamiltonian:                               307.484     0.013   0.0% |
 Atomic:                                    10.803     0.064   0.0% |
  XC Correction:                            10.739    10.739   0.0% |
 Calculate atomic Hamiltonians:              3.701     3.701   0.0% |
 Communicate:                                0.693     0.693   0.0% |
 Hartree integrate/restrict:                 1.074     1.074   0.0% |
 Initialize Hamiltonian:                     0.001     0.001   0.0% |
 Poisson:                                   17.650     0.760   0.0% |
  Communicate from 1D:                       1.519     1.519   0.0% |
  Communicate from 2D:                       3.070     3.070   0.0% |
  Communicate to 1D:                         0.809     0.809   0.0% |
  Communicate to 2D:                         3.275     3.275   0.0% |
  FFT 1D:                                    3.880     3.880   0.0% |
  FFT 2D:                                    4.337     4.337   0.0% |
 XC 3D grid:                               273.324    72.426   0.1% |
  VdW-DF integral:                         200.898    14.269   0.0% |
   Convolution:                             23.446    23.446   0.0% |
   FFT:                                     15.539    15.539   0.0% |
   gather:                                  49.677    49.677   0.0% |
   hmm1:                                     3.893     3.893   0.0% |
   hmm2:                                     9.567     9.567   0.0% |
   iFFT:                                    15.006    15.006   0.0% |
   potential:                               65.857     1.733   0.0% |
    collect:                                 5.245     5.245   0.0% |
    p1:                                     39.840    39.840   0.0% |
    p2:                                     14.207    14.207   0.0% |
    sum:                                     4.831     4.831   0.0% |
   splines:                                  3.645     3.645   0.0% |
 vbar:                                       0.224     0.224   0.0% |
LCAO initialization:                        39.678     2.001   0.0% |
 LCAO eigensolver:                          27.522     0.005   0.0% |
  Calculate projections:                     0.000     0.000   0.0% |
  DenseAtomicCorrection:                     0.000     0.000   0.0% |
  Distribute overlap matrix:                26.505    26.505   0.0% |
  Orbital Layouts:                           0.817     0.817   0.0% |
  Potential matrix:                          0.035     0.035   0.0% |
  Sum over cells:                            0.159     0.159   0.0% |
 LCAO to grid:                               8.509     8.509   0.0% |
 Set positions (LCAO WFS):                   1.646     1.104   0.0% |
  Basic WFS set positions:                   0.001     0.001   0.0% |
  Basis functions set positions:             0.000     0.000   0.0% |
  P tci:                                     0.000     0.000   0.0% |
  ST tci:                                    0.462     0.462   0.0% |
  mktci:                                     0.078     0.078   0.0% |
Redistribute:                                0.054     0.054   0.0% |
SCF-cycle:                               102736.163   686.498   0.6% |
 Davidson:                               91126.192 30346.812  27.8% |----------|
  Apply hamiltonian:                      2066.849  2066.849   1.9% ||
  Subspace diag:                          8586.434     0.390   0.0% |
   calc_h_matrix:                         4298.303  2236.580   2.0% ||
    Apply hamiltonian:                    2061.724  2061.724   1.9% ||
   diagonalize:                            122.967   122.967   0.1% |
   rotate_psi:                            4164.774  4164.774   3.8% |-|
  calc. matrices:                        41452.293 14351.662  13.1% |----|
   Apply hamiltonian:                    27100.631 27100.631  24.8% |---------|
  diagonalize:                             977.243   977.243   0.9% |
  rotate_psi:                             7696.561  7696.561   7.0% |--|
 Density:                                  212.190     0.082   0.0% |
  Atomic density matrices:                  18.684    18.684   0.0% |
  Mix:                                      54.006    54.006   0.0% |
  Multipole moments:                         1.421     1.421   0.0% |
  Pseudo density:                          137.998   137.925   0.1% |
   Symmetrize density:                       0.073     0.073   0.0% |
 Hamiltonian:                            10315.199     0.382   0.0% |
  Atomic:                                  366.803     2.198   0.0% |
   XC Correction:                          364.605   364.605   0.3% |
  Calculate atomic Hamiltonians:           125.572   125.572   0.1% |
  Communicate:                              23.061    23.061   0.0% |
  Hartree integrate/restrict:               36.083    36.083   0.0% |
  Poisson:                                 600.270    25.981   0.0% |
   Communicate from 1D:                     52.324    52.324   0.0% |
   Communicate from 2D:                    104.132   104.132   0.1% |
   Communicate to 1D:                       27.078    27.078   0.0% |
   Communicate to 2D:                      111.728   111.728   0.1% |
   FFT 1D:                                 131.403   131.403   0.1% |
   FFT 2D:                                 147.625   147.625   0.1% |
  XC 3D grid:                             9156.050  2448.344   2.2% ||
   VdW-DF integral:                       6707.706   484.520   0.4% |
    Convolution:                           795.984   795.984   0.7% |
    FFT:                                   526.963   526.963   0.5% |
    gather:                               1692.435  1692.435   1.5% ||
    hmm1:                                  133.185   133.185   0.1% |
    hmm2:                                  323.112   323.112   0.3% |
    iFFT:                                  510.308   510.308   0.5% |
    potential:                            2241.176    58.839   0.1% |
     collect:                              178.024   178.024   0.2% |
     p1:                                  1354.663  1354.663   1.2% |
     p2:                                   481.861   481.861   0.4% |
     sum:                                  167.788   167.788   0.2% |
    splines:                                 0.023     0.023   0.0% |
  vbar:                                      6.977     6.977   0.0% |
 Orthonormalize:                           396.084     0.019   0.0% |
  calc_s_matrix:                            26.423    26.423   0.0% |
  inverse-cholesky:                        312.394   312.394   0.3% |
  projections:                               0.006     0.006   0.0% |
  rotate_psi_s:                             57.243    57.243   0.1% |
Set symmetry:                                0.001     0.001   0.0% |
Other:                                    4729.094  4729.094   4.3% |-|
-------------------------------------------------------------------
Total:                                             109329.624 100.0%

Memory usage: 1.41 GiB
Date: Sat Sep 30 11:56:51 2023
