
  ___ ___ ___ _ _ _  
 |   |   |_  | | | | 
 | | | | | . | | | | 
 |__ |  _|___|_____|  22.8.0
 |___|_|             

User:   s204775@c121.nifl.fysik.dtu.dk
Date:   Thu Oct  5 00:34:07 2023
Arch:   x86_64
Pid:    241324
CWD:    /home/cat/s204775/projects/Bachelor_project/OCCOH_missing_features
Python: 3.10.4
gpaw:   /home/modules/software/GPAW/22.8.0-intel-2022a/lib/python3.10/site-packages/gpaw
_gpaw:  /home/modules/software/GPAW/22.8.0-intel-2022a/lib/python3.10/site-packages/
        _gpaw.cpython-310-x86_64-linux-gnu.so
ase:    /home/modules/software/ASE/3.22.1-intel-2022a/lib/python3.10/site-packages/ase (version 3.22.1)
numpy:  /home/modules/software/SciPy-bundle/2022.05-intel-2022a/lib/python3.10/site-packages/numpy (version 1.22.3)
scipy:  /home/modules/software/SciPy-bundle/2022.05-intel-2022a/lib/python3.10/site-packages/scipy (version 1.8.1)
libxc:  5.2.3
units:  Angstrom and eV
cores: 40
OpenMP: False
OMP_NUM_THREADS: 1

Input parameters:
  basis: dzp
  h: 0.18
  kpts: {size: (4, 4, 1)}
  xc: BEEF-vdW

System changes: positions, numbers, cell, pbc, initial_charges, initial_magmoms 

Initialize ...

species:
  Tl:
    name: Thallium
    id: 5a3688cb07e09c63f278d9dd157b5100
    Z: 81.0
    valence: 13
    core: 68
    charge: 0.0
    file: /home/modules/software/GPAW-setups/0.9.20000/Tl.PBE.gz
    compensation charges: {type: gauss,
                           rc: 0.38,
                           lmax: 2}
    cutoffs: {filter: 2.11,
              core: 2.55}
    valence states:
      #              energy  rcut
      - 6s(2.00)    -9.493   1.212
      - 6p(1.00)    -2.379   1.270
      - 5d(10.00)   -15.517   1.191
      -  s          17.718   1.212
      -  p          24.832   1.270
      -  d          11.695   1.191
  
    # LCAO basis set for Tl:
    #   Name: dzp
    #   File: /home/modules/software/GPAW-setups/0.9.20000/Tl.dzp.basis.gz
    #   Number of radial functions: 7
    #   Number of spherical harmonics: 23
    #     l=0, rc=7.3438 Bohr: 6s-sz confined orbital
    #     l=1, rc=11.0312 Bohr: 6p-sz confined orbital
    #     l=2, rc=4.8750 Bohr: 5d-sz confined orbital
    #     l=0, rc=4.2500 Bohr: 6s-dz split-valence wave
    #     l=1, rc=6.6250 Bohr: 6p-dz split-valence wave
    #     l=2, rc=2.9531 Bohr: 5d-dz split-valence wave
    #     l=2, rc=11.0312 Bohr: d-type Gaussian polarization
    #   Number of RI-basis functions 0

  H:
    name: Hydrogen
    id: d65de229564ff8ea4db303e23b6d1ecf
    Z: 1.0
    valence: 1
    core: 0
    charge: 0.0
    file: /home/modules/software/GPAW-setups/0.9.20000/H.PBE.gz
    compensation charges: {type: gauss,
                           rc: 0.15,
                           lmax: 2}
    cutoffs: {filter: 0.85,
              core: 0.53}
    valence states:
      #              energy  rcut
      - 1s(1.00)    -6.494   0.476
      -  s          20.717   0.476
      -  p           0.000   0.476
  
    # LCAO basis set for H:
    #   Name: dzp
    #   File: /home/modules/software/GPAW-setups/0.9.20000/H.dzp.basis.gz
    #   Number of radial functions: 3
    #   Number of spherical harmonics: 5
    #     l=0, rc=6.4219 Bohr: 1s-sz confined orbital
    #     l=0, rc=3.6094 Bohr: 1s-dz split-valence wave
    #     l=1, rc=6.4219 Bohr: p-type Gaussian polarization
    #   Number of RI-basis functions 0

  O:
    name: Oxygen
    id: 32ecd46bf208036f09c70b0ec9a88b78
    Z: 8.0
    valence: 6
    core: 2
    charge: 0.0
    file: /home/modules/software/GPAW-setups/0.9.20000/O.PBE.gz
    compensation charges: {type: gauss,
                           rc: 0.21,
                           lmax: 2}
    cutoffs: {filter: 1.17,
              core: 0.83}
    valence states:
      #              energy  rcut
      - 2s(2.00)   -23.961   0.688
      - 2p(4.00)    -9.029   0.598
      -  s           3.251   0.688
      -  p          18.182   0.598
      -  d           0.000   0.619
  
    # LCAO basis set for O:
    #   Name: dzp
    #   File: /home/modules/software/GPAW-setups/0.9.20000/O.dzp.basis.gz
    #   Number of radial functions: 5
    #   Number of spherical harmonics: 13
    #     l=0, rc=4.3438 Bohr: 2s-sz confined orbital
    #     l=1, rc=5.3906 Bohr: 2p-sz confined orbital
    #     l=0, rc=2.2969 Bohr: 2s-dz split-valence wave
    #     l=1, rc=2.8906 Bohr: 2p-dz split-valence wave
    #     l=2, rc=5.3906 Bohr: d-type Gaussian polarization
    #   Number of RI-basis functions 0

  C:
    name: Carbon
    id: 4aa54d4b901d75f77cc0ea3eec22967b
    Z: 6.0
    valence: 4
    core: 2
    charge: 0.0
    file: /home/modules/software/GPAW-setups/0.9.20000/C.PBE.gz
    compensation charges: {type: gauss,
                           rc: 0.20,
                           lmax: 2}
    cutoffs: {filter: 1.14,
              core: 1.14}
    valence states:
      #              energy  rcut
      - 2s(2.00)   -13.751   0.635
      - 2p(2.00)    -5.284   0.635
      -  s          13.461   0.635
      -  p          21.927   0.635
      -  d           0.000   0.635
  
    # LCAO basis set for C:
    #   Name: dzp
    #   File: /home/modules/software/GPAW-setups/0.9.20000/C.dzp.basis.gz
    #   Number of radial functions: 5
    #   Number of spherical harmonics: 13
    #     l=0, rc=5.5469 Bohr: 2s-sz confined orbital
    #     l=1, rc=6.6719 Bohr: 2p-sz confined orbital
    #     l=0, rc=3.0312 Bohr: 2s-dz split-valence wave
    #     l=1, rc=3.7500 Bohr: 2p-dz split-valence wave
    #     l=2, rc=6.6719 Bohr: d-type Gaussian polarization
    #   Number of RI-basis functions 0

Reference energy: -19807768.740774  # eV

Spin-paired calculation

Convergence criteria:
 Maximum [total energy] change in last 3 cyles: 0.0005 eV / electron
 Maximum integral of absolute [dens]ity change: 0.0001 electrons / valence electron
 Maximum integral of absolute [eigenst]ate change: 4e-08 eV^2 / valence electron
 Maximum number of scf [iter]ations: 333
 (Square brackets indicate name in SCF output, whereas a 'c' in
 the SCF output indicates the quantity has converged.)

Symmetries present (total): 1

  ( 1  0  0)
  ( 0  1  0)
  ( 0  0  1)

16 k-points: 4 x 4 x 1 Monkhorst-Pack grid
8 k-points in the irreducible part of the Brillouin zone
       k-points in crystal coordinates                weights
   0:     0.12500000   -0.37500000    0.00000000          2/16
   1:     0.12500000   -0.12500000    0.00000000          2/16
   2:     0.12500000    0.12500000    0.00000000          2/16
   3:     0.12500000    0.37500000    0.00000000          2/16
   4:     0.37500000   -0.37500000    0.00000000          2/16
   5:     0.37500000   -0.12500000    0.00000000          2/16
   6:     0.37500000    0.12500000    0.00000000          2/16
   7:     0.37500000    0.37500000    0.00000000          2/16

Wave functions: Uniform real-space grid
  Kinetic energy operator: 8*3+1=25 point O(h^6) finite-difference Laplacian
  ScaLapack parameters: grid=1x1, blocksize=None
  Wavefunction extrapolation:
    Improved wavefunction reuse through dual PAW basis 

Occupation numbers: Fermi-Dirac:
  width: 0.1000  # eV
 

Eigensolver
   Davidson(niter=2) 

Densities:
  Coarse grid: 52*52*160 grid
  Fine grid: 104*104*320 grid
  Total Charge: 0.000000 

Density mixing:
  Method: separate
  Backend: pulay
  Linear mixing parameter: 0.05
  old densities: 5
  Damping of long wavelength oscillations: 50 

Hamiltonian:
  XC and Coulomb potentials evaluated on a 104*104*320 grid
  Using the BEEF-vdW Exchange-Correlation functional
  Interpolation: tri-quintic (5. degree polynomial)
  Poisson solver: FastPoissonSolver using
    Stencil: 8*3+1=25 point O(h^6) finite-difference Laplacian
    FFT axes: [0, 1]
    FST axes: [2]
 

XC parameters: BEEF-vdW with 2 nearest neighbor stencil

Memory estimate:
  Process memory now: 246.51 MiB
  Calculator: 869.73 MiB
    Density: 66.88 MiB
      Arrays: 16.88 MiB
      Localized functions: 43.61 MiB
      Mixer: 6.40 MiB
    Hamiltonian: 13.79 MiB
      Arrays: 11.04 MiB
      XC: 0.00 MiB
      Poisson: 0.00 MiB
      vbar: 2.75 MiB
    Wavefunctions: 789.07 MiB
      Arrays psit_nG: 381.16 MiB
      Eigensolver: 401.11 MiB
      Projections: 0.64 MiB
      Projectors: 6.15 MiB

Total number of cores used: 40
Parallelization over k-points: 8
Domain decomposition: 1 x 1 x 5

Number of atoms: 41
Number of atomic orbitals: 885
Number of bands in calculation: 298
Number of valence electrons: 489
Bands to converge: occupied

... initialized

Initializing position-dependent things.

Density initialized from atomic densities
Creating initial wave functions:
  298 bands from LCAO basis set

                                                             
                                                             
                                                             
                                                             
                                                             
                                                             
                                     O                       
                                    H                        
                                  TO C     Tl       Tl       
                                    C                        
                            Tl       Tl       Tl             
                                                             
                      Tl       Tl      Tl                    
                         Tl      Tl       Tl                 
                                                             
                  Tl       Tl       Tl                       
            Tl       Tl      TTl      Tl       Tl            
                                                             
                       Tl       Tl       Tl                  
                 Tl       Tl      Tl                         
                                                             
                    Tl      Tl       Tl                      
             Tl       Tl       Tl                            
                                                             
       Tl       Tl       Tl                                  
                                                             
                                                             
                                                             
                                                             

Positions:
   0 Tl     0.000000    0.000000   10.000000    ( 0.0000,  0.0000,  0.0000)
   1 Tl     3.527816    2.036786   12.880450    ( 0.0000,  0.0000,  0.0000)
   2 Tl     1.764813    1.018915   15.753208    ( 0.0000,  0.0000,  0.0000)
   3 Tl     5.291724    3.055179   18.682936    ( 0.0000,  0.0000,  0.0000)
   4 Tl     1.763908    3.055179   10.000000    ( 0.0000,  0.0000,  0.0000)
   5 Tl     5.291724    5.091964   12.880450    ( 0.0000,  0.0000,  0.0000)
   6 Tl     3.536429    4.068599   15.756428    ( 0.0000,  0.0000,  0.0000)
   7 Tl     7.055234    6.110037   18.676583    ( 0.0000,  0.0000,  0.0000)
   8 Tl     3.527816    6.110357   10.000000    ( 0.0000,  0.0000,  0.0000)
   9 Tl     7.055633    8.147143   12.880450    ( 0.0000,  0.0000,  0.0000)
  10 Tl     5.291724    7.127705   15.753208    ( 0.0000,  0.0000,  0.0000)
  11 Tl     8.819619    9.166041   18.676583    ( 0.0000,  0.0000,  0.0000)
  12 Tl     3.527816    0.000000   10.000000    ( 0.0000,  0.0000,  0.0000)
  13 Tl     7.055633    2.036786   12.880450    ( 0.0000,  0.0000,  0.0000)
  14 Tl     5.291724    1.028338   15.756428    ( 0.0000,  0.0000,  0.0000)
  15 Tl     8.819065    3.054993   18.676583    ( 0.0000,  0.0000,  0.0000)
  16 Tl     5.291724    3.055179   10.000000    ( 0.0000,  0.0000,  0.0000)
  17 Tl     8.819541    5.091964   12.880450    ( 0.0000,  0.0000,  0.0000)
  18 Tl     7.047020    4.068599   15.756428    ( 0.0000,  0.0000,  0.0000)
  19 Tl    10.583449    6.110357   18.680650    ( 0.0000,  0.0000,  0.0000)
  20 Tl     7.055633    6.110357   10.000000    ( 0.0000,  0.0000,  0.0000)
  21 Tl    10.583449    8.147143   12.880450    ( 0.0000,  0.0000,  0.0000)
  22 Tl     8.816138    7.130714   15.755224    ( 0.0000,  0.0000,  0.0000)
  23 Tl    12.347279    9.166041   18.676583    ( 0.0000,  0.0000,  0.0000)
  24 Tl     7.055633    0.000000   10.000000    ( 0.0000,  0.0000,  0.0000)
  25 Tl    10.583449    2.036786   12.880450    ( 0.0000,  0.0000,  0.0000)
  26 Tl     8.818636    1.018915   15.753208    ( 0.0000,  0.0000,  0.0000)
  27 Tl    12.347833    3.054993   18.676583    ( 0.0000,  0.0000,  0.0000)
  28 Tl     8.819541    3.055179   10.000000    ( 0.0000,  0.0000,  0.0000)
  29 Tl    12.347357    5.091964   12.880450    ( 0.0000,  0.0000,  0.0000)
  30 Tl    10.583449    4.069643   15.755224    ( 0.0000,  0.0000,  0.0000)
  31 Tl    14.111664    6.110037   18.676583    ( 0.0000,  0.0000,  0.0000)
  32 Tl    10.583449    6.110357   10.000000    ( 0.0000,  0.0000,  0.0000)
  33 Tl    14.111265    8.147143   12.880450    ( 0.0000,  0.0000,  0.0000)
  34 Tl    12.350760    7.130714   15.755224    ( 0.0000,  0.0000,  0.0000)
  35 Tl    15.875173    9.165536   18.652511    ( 0.0000,  0.0000,  0.0000)
  36 H     10.648116    3.547777   22.017895    ( 0.0000,  0.0000,  0.0000)
  37 O     10.625599    3.182141   21.225822    ( 0.0000,  0.0000,  0.0000)
  38 C     10.629352    4.048596   20.226729    ( 0.0000,  0.0000,  0.0000)
  39 C     10.556038    5.544564   20.468836    ( 0.0000,  0.0000,  0.0000)
  40 O     10.608591    6.173112   21.752216    ( 0.0000,  0.0000,  0.0000)

Unit cell:
           periodic     x           y           z      points  spacing
  1. axis:    yes   10.583449    0.000000    0.000000    52     0.1763
  2. axis:    yes    5.291724    9.165536    0.000000    52     0.1763
  3. axis:    no     0.000000    0.000000   28.641350   160     0.1790

  Lengths:  10.583449  10.583449  28.641350
  Angles:   90.000000  90.000000  60.000000

Effective grid spacing dv^(1/3) = 0.1859

     iter     time        total  log10-change:
                         energy  eigst   dens
iter:   1 00:35:34 -12592.233098
iter:   2 00:36:18 -12591.101884  -0.84  -1.40
iter:   3 00:37:01 -12590.065105  -1.06  -1.43
iter:   4 00:37:44 -12588.463829  -1.93  -1.50
iter:   5 00:38:28 -12588.180049  -1.98  -1.55
iter:   6 00:39:11 -12588.478738  -1.45  -1.64
iter:   7 00:39:54 -12588.390942  -1.90  -1.92
iter:   8 00:40:37 -12588.322673c -2.41  -2.09
iter:   9 00:41:21 -12588.210159c -2.04  -2.20
iter:  10 00:42:04 -12588.202922c -2.83  -2.49
iter:  11 00:42:47 -12588.184633c -2.68  -2.54
iter:  12 00:43:30 -12588.178857c -2.81  -2.67
iter:  13 00:44:14 -12588.175470c -3.40  -2.85
iter:  14 00:44:57 -12588.174766c -3.74  -2.91
iter:  15 00:45:40 -12588.173723c -3.71  -2.96
iter:  16 00:46:23 -12588.176161c -3.67  -3.14
iter:  17 00:47:06 -12588.176091c -4.29  -3.20
iter:  18 00:47:49 -12588.175275c -4.13  -3.25
iter:  19 00:48:33 -12588.175244c -4.66  -3.50
iter:  20 00:49:16 -12588.175095c -4.58  -3.59
iter:  21 00:50:00 -12588.175060c -5.35  -3.77
iter:  22 00:50:43 -12588.175048c -5.84  -3.81
iter:  23 00:51:26 -12588.175006c -6.19  -3.84
iter:  24 00:52:09 -12588.174985c -6.16  -3.94
iter:  25 00:52:53 -12588.174966c -6.34  -4.05c
iter:  26 00:53:36 -12588.174956c -6.78  -4.16c
iter:  27 00:54:19 -12588.174955c -6.44  -4.23c
iter:  28 00:55:02 -12588.174959c -6.77  -4.40c
iter:  29 00:55:46 -12588.174961c -6.97  -4.46c
iter:  30 00:56:29 -12588.174962c -7.23  -4.50c
iter:  31 00:57:12 -12588.174957c -7.38  -4.57c
iter:  32 00:57:56 -12588.174959c -7.89c -4.75c

Converged after 32 iterations.

Dipole moment: (-26.756154, -15.643054, -0.840493) |e|*Ang

Energy contributions relative to reference atoms: (reference = -19807768.740774)

Kinetic:       +1330.096254
Potential:     -1254.114759
External:        +0.000000
XC:            -12664.895862
Entropy (-ST):   -0.875250
Local:           +1.177033
--------------------------
Free energy:   -12588.612584
Extrapolated:  -12588.174959

Showing only first 2 kpts
 Kpt  Band  Eigenvalues  Occupancy
  0   242     -4.44383    1.80135
  0   243     -4.30033    1.36691
  0   244     -4.27384    1.24720
  0   245     -4.14689    0.63527

  1   242     -4.31815    1.44141
  1   243     -4.28186    1.28444
  1   244     -4.25448    1.15437
  1   245     -4.23791    1.07264


Fermi level: -4.22336

No gap

Forces in eV/Ang:
  0 Tl   -0.00703   -0.00846   -0.03332
  1 Tl   -0.02938   -0.01417    0.00861
  2 Tl   -0.00688   -0.00382   -0.01530
  3 Tl    0.00713    0.04957    0.07078
  4 Tl   -0.00842    0.00781   -0.10325
  5 Tl    0.00032    0.02872    0.02052
  6 Tl    0.00693    0.04463   -0.01959
  7 Tl   -0.01350    0.02550    0.03026
  8 Tl   -0.00493   -0.00293   -0.11462
  9 Tl   -0.02651    0.00572   -0.02829
 10 Tl    0.00180   -0.00812   -0.00641
 11 Tl    0.01870   -0.02510    0.07878
 12 Tl    0.01855   -0.00191   -0.11025
 13 Tl    0.03211   -0.01584    0.02269
 14 Tl   -0.00394    0.03460    0.02383
 15 Tl   -0.22227   -0.06877   -0.08823
 16 Tl   -0.01049   -0.01143   -0.10069
 17 Tl    0.02418   -0.00094    0.06269
 18 Tl   -0.00201    0.05145   -0.03066
 19 Tl    0.07970    3.20468   -7.52819
 20 Tl   -0.00724   -0.00925   -0.11105
 21 Tl    0.00003   -0.02499    0.04230
 22 Tl    0.02490   -0.01408    0.09464
 23 Tl   -0.01572   -0.02098    0.07344
 24 Tl   -0.01416   -0.00855   -0.10850
 25 Tl   -0.00808   -0.01271    0.00601
 26 Tl    0.00779   -0.00164   -0.01862
 27 Tl    0.29770   -0.10140   -0.15206
 28 Tl    0.00922    0.00552   -0.09859
 29 Tl   -0.02478    0.00224    0.06041
 30 Tl   -0.00487    0.01579    0.06075
 31 Tl    0.02091    0.02321    0.03171
 32 Tl    0.00393   -0.00673   -0.10079
 33 Tl    0.01886    0.00980   -0.02983
 34 Tl   -0.02349   -0.00725    0.09094
 35 Tl   -0.00109   -0.03055    0.00838
 36 H     0.12256    3.13947    6.17408
 37 O    -0.09712   -3.99322   -4.39769
 38 C    -0.35601    2.94254   -0.36258
 39 C     0.44325   -2.51630   11.64517
 40 O    -0.29688   -2.67844   -5.29421

      Step     Time          Energy         fmax
BFGS:    0 00:58:09   -12588.174959        6.6528
System changes: positions 

Initializing position-dependent things.

Density initialized from wave functions
                                                             
                                                             
                                                             
                                                             
                                                             
                                                             
                                     O                       
                                    H                        
                                  TO C     Tl       Tl       
                                    C                        
                            Tl       Tl       Tl             
                                                             
                      Tl       Tl      Tl                    
                         Tl      Tl       Tl                 
                                                             
                  Tl       Tl       Tl                       
            Tl       Tl      TTl      Tl       Tl            
                                                             
                       Tl       Tl       Tl                  
                 Tl       Tl      Tl                         
                                                             
                    Tl      Tl       Tl                      
             Tl       Tl       Tl                            
                                                             
       Tl       Tl       Tl                                  
                                                             
                                                             
                                                             
                                                             

Positions:
   0 Tl     0.000000    0.000000   10.000000    ( 0.0000,  0.0000,  0.0000)
   1 Tl     3.527816    2.036786   12.880450    ( 0.0000,  0.0000,  0.0000)
   2 Tl     1.764813    1.018915   15.753208    ( 0.0000,  0.0000,  0.0000)
   3 Tl     5.291724    3.055179   18.682936    ( 0.0000,  0.0000,  0.0000)
   4 Tl     1.763908    3.055179   10.000000    ( 0.0000,  0.0000,  0.0000)
   5 Tl     5.291724    5.091964   12.880450    ( 0.0000,  0.0000,  0.0000)
   6 Tl     3.536429    4.068599   15.756428    ( 0.0000,  0.0000,  0.0000)
   7 Tl     7.055234    6.110037   18.676583    ( 0.0000,  0.0000,  0.0000)
   8 Tl     3.527816    6.110357   10.000000    ( 0.0000,  0.0000,  0.0000)
   9 Tl     7.055633    8.147143   12.880450    ( 0.0000,  0.0000,  0.0000)
  10 Tl     5.291724    7.127705   15.753208    ( 0.0000,  0.0000,  0.0000)
  11 Tl     8.819619    9.166041   18.676583    ( 0.0000,  0.0000,  0.0000)
  12 Tl     3.527816    0.000000   10.000000    ( 0.0000,  0.0000,  0.0000)
  13 Tl     7.055633    2.036786   12.880450    ( 0.0000,  0.0000,  0.0000)
  14 Tl     5.291724    1.028338   15.756428    ( 0.0000,  0.0000,  0.0000)
  15 Tl     8.819065    3.054993   18.676583    ( 0.0000,  0.0000,  0.0000)
  16 Tl     5.291724    3.055179   10.000000    ( 0.0000,  0.0000,  0.0000)
  17 Tl     8.819541    5.091964   12.880450    ( 0.0000,  0.0000,  0.0000)
  18 Tl     7.047020    4.068599   15.756428    ( 0.0000,  0.0000,  0.0000)
  19 Tl    10.583449    6.110357   18.680650    ( 0.0000,  0.0000,  0.0000)
  20 Tl     7.055633    6.110357   10.000000    ( 0.0000,  0.0000,  0.0000)
  21 Tl    10.583449    8.147143   12.880450    ( 0.0000,  0.0000,  0.0000)
  22 Tl     8.816138    7.130714   15.755224    ( 0.0000,  0.0000,  0.0000)
  23 Tl    12.347279    9.166041   18.676583    ( 0.0000,  0.0000,  0.0000)
  24 Tl     7.055633    0.000000   10.000000    ( 0.0000,  0.0000,  0.0000)
  25 Tl    10.583449    2.036786   12.880450    ( 0.0000,  0.0000,  0.0000)
  26 Tl     8.818636    1.018915   15.753208    ( 0.0000,  0.0000,  0.0000)
  27 Tl    12.347833    3.054993   18.676583    ( 0.0000,  0.0000,  0.0000)
  28 Tl     8.819541    3.055179   10.000000    ( 0.0000,  0.0000,  0.0000)
  29 Tl    12.347357    5.091964   12.880450    ( 0.0000,  0.0000,  0.0000)
  30 Tl    10.583449    4.069643   15.755224    ( 0.0000,  0.0000,  0.0000)
  31 Tl    14.111664    6.110037   18.676583    ( 0.0000,  0.0000,  0.0000)
  32 Tl    10.583449    6.110357   10.000000    ( 0.0000,  0.0000,  0.0000)
  33 Tl    14.111265    8.147143   12.880450    ( 0.0000,  0.0000,  0.0000)
  34 Tl    12.350760    7.130714   15.755224    ( 0.0000,  0.0000,  0.0000)
  35 Tl    15.875173    9.165536   18.652511    ( 0.0000,  0.0000,  0.0000)
  36 H     10.647418    3.552864   22.019960    ( 0.0000,  0.0000,  0.0000)
  37 O     10.626808    3.183678   21.231243    ( 0.0000,  0.0000,  0.0000)
  38 C     10.626689    4.022895   20.232709    ( 0.0000,  0.0000,  0.0000)
  39 C     10.555311    5.504945   20.531983    ( 0.0000,  0.0000,  0.0000)
  40 O     10.608860    6.188792   21.786728    ( 0.0000,  0.0000,  0.0000)

Unit cell:
           periodic     x           y           z      points  spacing
  1. axis:    yes   10.583449    0.000000    0.000000    52     0.1763
  2. axis:    yes    5.291724    9.165536    0.000000    52     0.1763
  3. axis:    no     0.000000    0.000000   28.641350   160     0.1790

  Lengths:  10.583449  10.583449  28.641350
  Angles:   90.000000  90.000000  60.000000

Effective grid spacing dv^(1/3) = 0.1859

     iter     time        total  log10-change:
                         energy  eigst   dens
iter:   1 00:59:23 -12588.770410  -1.82
iter:   2 01:00:07 -12588.716723  -2.70  -2.35
iter:   3 01:00:50 -12588.619333c -3.24  -2.31
iter:   4 01:01:33 -12588.586175c -3.28  -2.77
iter:   5 01:02:17 -12588.577682c -3.59  -3.03
iter:   6 01:03:00 -12588.574751c -3.81  -3.19
iter:   7 01:03:44 -12588.573010c -3.99  -3.30
iter:   8 01:04:27 -12588.572309c -3.99  -3.39
iter:   9 01:05:10 -12588.571354c -4.39  -3.49
iter:  10 01:05:53 -12588.571271c -4.89  -3.73
iter:  11 01:06:36 -12588.571236c -5.46  -3.84
iter:  12 01:07:20 -12588.571241c -5.56  -3.92
iter:  13 01:08:03 -12588.571224c -5.54  -3.85
iter:  14 01:08:46 -12588.571216c -5.99  -4.00c
iter:  15 01:09:29 -12588.571220c -5.92  -4.13c
iter:  16 01:10:12 -12588.571219c -6.51  -4.42c
iter:  17 01:10:56 -12588.571214c -6.80  -4.55c
iter:  18 01:11:39 -12588.571217c -6.79  -4.67c
iter:  19 01:12:22 -12588.571217c -7.58c -4.90c

Converged after 19 iterations.

Dipole moment: (-26.748091, -15.645113, -0.832641) |e|*Ang

Energy contributions relative to reference atoms: (reference = -19807768.740774)

Kinetic:       +1326.421445
Potential:     -1251.127918
External:        +0.000000
XC:            -12664.644229
Entropy (-ST):   -0.877338
Local:           +1.218155
--------------------------
Free energy:   -12589.009886
Extrapolated:  -12588.571217

Showing only first 2 kpts
 Kpt  Band  Eigenvalues  Occupancy
  0   242     -4.43647    1.79555
  0   243     -4.29369    1.35616
  0   244     -4.27041    1.25061
  0   245     -4.14367    0.63937

  1   242     -4.31322    1.43829
  1   243     -4.27728    1.28251
  1   244     -4.25028    1.15417
  1   245     -4.23398    1.07376


Fermi level: -4.21920

No gap

Forces in eV/Ang:
  0 Tl   -0.00744   -0.00708   -0.03570
  1 Tl   -0.02909   -0.01396    0.00933
  2 Tl   -0.00702   -0.00623   -0.01683
  3 Tl    0.00752    0.04984    0.06977
  4 Tl   -0.00976    0.00920   -0.10406
  5 Tl    0.00033    0.02857    0.02212
  6 Tl    0.00887    0.04475   -0.02044
  7 Tl   -0.01004    0.02433    0.03126
  8 Tl   -0.00575   -0.00419   -0.11458
  9 Tl   -0.02351    0.00368   -0.02339
 10 Tl    0.00180   -0.00743   -0.00873
 11 Tl    0.01799   -0.02689    0.08014
 12 Tl    0.01780   -0.00196   -0.10973
 13 Tl    0.03203   -0.01556    0.02368
 14 Tl   -0.00374    0.03519    0.02189
 15 Tl   -0.24605   -0.07183   -0.10867
 16 Tl   -0.01021   -0.01013   -0.10222
 17 Tl    0.02565    0.00043    0.06245
 18 Tl   -0.00369    0.05109   -0.03119
 19 Tl    0.04627    2.53690   -5.35885
 20 Tl   -0.00636   -0.01053   -0.11137
 21 Tl    0.00009   -0.02765    0.04438
 22 Tl    0.02120   -0.01149    0.08621
 23 Tl   -0.01419   -0.02216    0.07528
 24 Tl   -0.01356   -0.00859   -0.10808
 25 Tl   -0.00811   -0.01022    0.00719
 26 Tl    0.00768   -0.00418   -0.02005
 27 Tl    0.32420   -0.10553   -0.17764
 28 Tl    0.01034    0.00683   -0.09925
 29 Tl   -0.02637    0.00368    0.06005
 30 Tl   -0.00487    0.01361    0.06244
 31 Tl    0.01791    0.02295    0.03257
 32 Tl    0.00394   -0.00880   -0.10070
 33 Tl    0.01567    0.00766   -0.02502
 34 Tl   -0.01955   -0.00442    0.08208
 35 Tl   -0.00120   -0.02877    0.00751
 36 H     0.12020    3.19814    6.25812
 37 O    -0.09156   -4.99887   -3.85671
 38 C    -0.34458    3.65547   -0.30060
 39 C     0.45676   -1.04034    8.84106
 40 O    -0.32302   -3.26315   -5.29393

BFGS:    1 01:12:36   -12588.571217        4.6309
System changes: positions 

Initializing position-dependent things.

Density initialized from wave functions
                                                             
                                                             
                                                             
                                                             
                                                             
                                                             
                                     O                       
                                    H                        
                                  TOC      Tl       Tl       
                                    C                        
                            Tl       Tl       Tl             
                                                             
                      Tl       Tl      Tl                    
                         Tl      Tl       Tl                 
                                                             
                  Tl       Tl       Tl                       
            Tl       Tl      TTl      Tl       Tl            
                                                             
                       Tl       Tl       Tl                  
                 Tl       Tl      Tl                         
                                                             
                    Tl      Tl       Tl                      
             Tl       Tl       Tl                            
                                                             
       Tl       Tl       Tl                                  
                                                             
                                                             
                                                             
                                                             

Positions:
   0 Tl     0.000000    0.000000   10.000000    ( 0.0000,  0.0000,  0.0000)
   1 Tl     3.527816    2.036786   12.880450    ( 0.0000,  0.0000,  0.0000)
   2 Tl     1.764813    1.018915   15.753208    ( 0.0000,  0.0000,  0.0000)
   3 Tl     5.291724    3.055179   18.682936    ( 0.0000,  0.0000,  0.0000)
   4 Tl     1.763908    3.055179   10.000000    ( 0.0000,  0.0000,  0.0000)
   5 Tl     5.291724    5.091964   12.880450    ( 0.0000,  0.0000,  0.0000)
   6 Tl     3.536429    4.068599   15.756428    ( 0.0000,  0.0000,  0.0000)
   7 Tl     7.055234    6.110037   18.676583    ( 0.0000,  0.0000,  0.0000)
   8 Tl     3.527816    6.110357   10.000000    ( 0.0000,  0.0000,  0.0000)
   9 Tl     7.055633    8.147143   12.880450    ( 0.0000,  0.0000,  0.0000)
  10 Tl     5.291724    7.127705   15.753208    ( 0.0000,  0.0000,  0.0000)
  11 Tl     8.819619    9.166041   18.676583    ( 0.0000,  0.0000,  0.0000)
  12 Tl     3.527816    0.000000   10.000000    ( 0.0000,  0.0000,  0.0000)
  13 Tl     7.055633    2.036786   12.880450    ( 0.0000,  0.0000,  0.0000)
  14 Tl     5.291724    1.028338   15.756428    ( 0.0000,  0.0000,  0.0000)
  15 Tl     8.819065    3.054993   18.676583    ( 0.0000,  0.0000,  0.0000)
  16 Tl     5.291724    3.055179   10.000000    ( 0.0000,  0.0000,  0.0000)
  17 Tl     8.819541    5.091964   12.880450    ( 0.0000,  0.0000,  0.0000)
  18 Tl     7.047020    4.068599   15.756428    ( 0.0000,  0.0000,  0.0000)
  19 Tl    10.583449    6.110357   18.680650    ( 0.0000,  0.0000,  0.0000)
  20 Tl     7.055633    6.110357   10.000000    ( 0.0000,  0.0000,  0.0000)
  21 Tl    10.583449    8.147143   12.880450    ( 0.0000,  0.0000,  0.0000)
  22 Tl     8.816138    7.130714   15.755224    ( 0.0000,  0.0000,  0.0000)
  23 Tl    12.347279    9.166041   18.676583    ( 0.0000,  0.0000,  0.0000)
  24 Tl     7.055633    0.000000   10.000000    ( 0.0000,  0.0000,  0.0000)
  25 Tl    10.583449    2.036786   12.880450    ( 0.0000,  0.0000,  0.0000)
  26 Tl     8.818636    1.018915   15.753208    ( 0.0000,  0.0000,  0.0000)
  27 Tl    12.347833    3.054993   18.676583    ( 0.0000,  0.0000,  0.0000)
  28 Tl     8.819541    3.055179   10.000000    ( 0.0000,  0.0000,  0.0000)
  29 Tl    12.347357    5.091964   12.880450    ( 0.0000,  0.0000,  0.0000)
  30 Tl    10.583449    4.069643   15.755224    ( 0.0000,  0.0000,  0.0000)
  31 Tl    14.111664    6.110037   18.676583    ( 0.0000,  0.0000,  0.0000)
  32 Tl    10.583449    6.110357   10.000000    ( 0.0000,  0.0000,  0.0000)
  33 Tl    14.111265    8.147143   12.880450    ( 0.0000,  0.0000,  0.0000)
  34 Tl    12.350760    7.130714   15.755224    ( 0.0000,  0.0000,  0.0000)
  35 Tl    15.875173    9.165536   18.652511    ( 0.0000,  0.0000,  0.0000)
  36 H     10.645826    3.565422   22.024344    ( 0.0000,  0.0000,  0.0000)
  37 O     10.629642    3.159424   21.260306    ( 0.0000,  0.0000,  0.0000)
  38 C     10.619446    3.987798   20.254324    ( 0.0000,  0.0000,  0.0000)
  39 C     10.555365    5.441835   20.637476    ( 0.0000,  0.0000,  0.0000)
  40 O     10.607595    6.206003   21.845043    ( 0.0000,  0.0000,  0.0000)

Unit cell:
           periodic     x           y           z      points  spacing
  1. axis:    yes   10.583449    0.000000    0.000000    52     0.1763
  2. axis:    yes    5.291724    9.165536    0.000000    52     0.1763
  3. axis:    no     0.000000    0.000000   28.641350   160     0.1790

  Lengths:  10.583449  10.583449  28.641350
  Angles:   90.000000  90.000000  60.000000

Effective grid spacing dv^(1/3) = 0.1859

     iter     time        total  log10-change:
                         energy  eigst   dens
iter:   1 01:13:50 -12589.569711  -1.41
iter:   2 01:14:33 -12589.378439  -2.26  -2.05
iter:   3 01:15:17 -12589.005807  -2.82  -2.03
iter:   4 01:16:00 -12588.941305  -3.04  -2.60
iter:   5 01:16:43 -12588.933645c -3.53  -2.90
iter:   6 01:17:26 -12588.917220c -3.40  -2.96
iter:   7 01:18:09 -12588.913541c -3.48  -3.07
iter:   8 01:18:53 -12588.913605c -3.72  -3.29
iter:   9 01:19:36 -12588.911936c -4.11  -3.33
iter:  10 01:20:19 -12588.912050c -4.68  -3.60
iter:  11 01:21:02 -12588.911924c -5.27  -3.53
iter:  12 01:21:45 -12588.911934c -4.80  -3.69
iter:  13 01:22:29 -12588.911709c -5.41  -3.81
iter:  14 01:23:12 -12588.911651c -5.79  -3.93
iter:  15 01:23:55 -12588.911707c -5.67  -4.01c
iter:  16 01:24:39 -12588.911662c -6.21  -4.28c
iter:  17 01:25:22 -12588.911641c -6.39  -4.34c
iter:  18 01:26:05 -12588.911658c -6.51  -4.51c
iter:  19 01:26:48 -12588.911661c -7.30  -4.63c
iter:  20 01:27:31 -12588.911673c -7.50c -4.68c

Converged after 20 iterations.

Dipole moment: (-26.761248, -15.620935, -0.850147) |e|*Ang

Energy contributions relative to reference atoms: (reference = -19807768.740774)

Kinetic:       +1321.556380
Potential:     -1247.197310
External:        +0.000000
XC:            -12664.040633
Entropy (-ST):   -0.882125
Local:           +1.210952
--------------------------
Free energy:   -12589.352735
Extrapolated:  -12588.911673

Showing only first 2 kpts
 Kpt  Band  Eigenvalues  Occupancy
  0   242     -4.43737    1.78064
  0   243     -4.29879    1.34001
  0   244     -4.27661    1.23854
  0   245     -4.15202    0.63753

  1   242     -4.32081    1.43350
  1   243     -4.28491    1.27725
  1   244     -4.25853    1.15165
  1   245     -4.24220    1.07104


Fermi level: -4.22797

No gap

Forces in eV/Ang:
  0 Tl   -0.00752   -0.00524   -0.03753
  1 Tl   -0.02959   -0.01252    0.00780
  2 Tl   -0.01087   -0.00758   -0.02020
  3 Tl    0.00805    0.04999    0.06868
  4 Tl   -0.01033    0.01025   -0.10420
  5 Tl    0.00010    0.02632    0.02003
  6 Tl    0.01070    0.04340   -0.02378
  7 Tl   -0.00425    0.02289    0.03542
  8 Tl   -0.00550   -0.00679   -0.11314
  9 Tl   -0.02293    0.00326   -0.01948
 10 Tl    0.00165   -0.00470   -0.01000
 11 Tl    0.01616   -0.03016    0.08424
 12 Tl    0.01656   -0.00058   -0.10708
 13 Tl    0.03308   -0.01375    0.02241
 14 Tl   -0.00342    0.03882    0.02056
 15 Tl   -0.24935   -0.06234   -0.10358
 16 Tl   -0.00988   -0.00806   -0.10342
 17 Tl    0.02589   -0.00079    0.06014
 18 Tl   -0.00487    0.04926   -0.03350
 19 Tl    0.01115    1.70343   -2.92942
 20 Tl   -0.00641   -0.01260   -0.11031
 21 Tl    0.00012   -0.02806    0.04235
 22 Tl    0.01154   -0.00711    0.07275
 23 Tl   -0.01135   -0.02451    0.07945
 24 Tl   -0.01306   -0.00726   -0.10603
 25 Tl   -0.00841   -0.00936    0.01044
 26 Tl    0.01142   -0.00601   -0.02331
 27 Tl    0.32203   -0.09207   -0.17129
 28 Tl    0.01075    0.00802   -0.09854
 29 Tl   -0.02684    0.00252    0.05811
 30 Tl   -0.00418    0.00492    0.06152
 31 Tl    0.01328    0.02336    0.03555
 32 Tl    0.00345   -0.01182   -0.10231
 33 Tl    0.01481    0.00742   -0.02079
 34 Tl   -0.00949   -0.00071    0.06869
 35 Tl   -0.00115   -0.02576    0.00687
 36 H     0.11928    3.48695    6.65111
 37 O    -0.04622   -5.90018   -3.96270
 38 C    -0.29798    3.97348    0.09156
 39 C     0.40191    0.82980    5.60278
 40 O    -0.27129   -4.00393   -5.12682

BFGS:    2 01:27:45   -12588.911673        2.9898
System changes: positions 

Initializing position-dependent things.

Density initialized from wave functions
                                                             
                                                             
                                                             
                                                             
                                                             
                                                             
                                     O                       
                                    H                        
                                  TOC      Tl       Tl       
                                    C                        
                            Tl       Tl       Tl             
                                                             
                      Tl       Tl      Tl                    
                         Tl      Tl       Tl                 
                                                             
                  Tl       Tl       Tl                       
            Tl       Tl      TTl      Tl       Tl            
                                                             
                       Tl       Tl       Tl                  
                 Tl       Tl      Tl                         
                                                             
                    Tl      Tl       Tl                      
             Tl       Tl       Tl                            
                                                             
       Tl       Tl       Tl                                  
                                                             
                                                             
                                                             
                                                             

Positions:
   0 Tl     0.000000    0.000000   10.000000    ( 0.0000,  0.0000,  0.0000)
   1 Tl     3.527816    2.036786   12.880450    ( 0.0000,  0.0000,  0.0000)
   2 Tl     1.764813    1.018915   15.753208    ( 0.0000,  0.0000,  0.0000)
   3 Tl     5.291724    3.055179   18.682936    ( 0.0000,  0.0000,  0.0000)
   4 Tl     1.763908    3.055179   10.000000    ( 0.0000,  0.0000,  0.0000)
   5 Tl     5.291724    5.091964   12.880450    ( 0.0000,  0.0000,  0.0000)
   6 Tl     3.536429    4.068599   15.756428    ( 0.0000,  0.0000,  0.0000)
   7 Tl     7.055234    6.110037   18.676583    ( 0.0000,  0.0000,  0.0000)
   8 Tl     3.527816    6.110357   10.000000    ( 0.0000,  0.0000,  0.0000)
   9 Tl     7.055633    8.147143   12.880450    ( 0.0000,  0.0000,  0.0000)
  10 Tl     5.291724    7.127705   15.753208    ( 0.0000,  0.0000,  0.0000)
  11 Tl     8.819619    9.166041   18.676583    ( 0.0000,  0.0000,  0.0000)
  12 Tl     3.527816    0.000000   10.000000    ( 0.0000,  0.0000,  0.0000)
  13 Tl     7.055633    2.036786   12.880450    ( 0.0000,  0.0000,  0.0000)
  14 Tl     5.291724    1.028338   15.756428    ( 0.0000,  0.0000,  0.0000)
  15 Tl     8.819065    3.054993   18.676583    ( 0.0000,  0.0000,  0.0000)
  16 Tl     5.291724    3.055179   10.000000    ( 0.0000,  0.0000,  0.0000)
  17 Tl     8.819541    5.091964   12.880450    ( 0.0000,  0.0000,  0.0000)
  18 Tl     7.047020    4.068599   15.756428    ( 0.0000,  0.0000,  0.0000)
  19 Tl    10.583449    6.110357   18.680650    ( 0.0000,  0.0000,  0.0000)
  20 Tl     7.055633    6.110357   10.000000    ( 0.0000,  0.0000,  0.0000)
  21 Tl    10.583449    8.147143   12.880450    ( 0.0000,  0.0000,  0.0000)
  22 Tl     8.816138    7.130714   15.755224    ( 0.0000,  0.0000,  0.0000)
  23 Tl    12.347279    9.166041   18.676583    ( 0.0000,  0.0000,  0.0000)
  24 Tl     7.055633    0.000000   10.000000    ( 0.0000,  0.0000,  0.0000)
  25 Tl    10.583449    2.036786   12.880450    ( 0.0000,  0.0000,  0.0000)
  26 Tl     8.818636    1.018915   15.753208    ( 0.0000,  0.0000,  0.0000)
  27 Tl    12.347833    3.054993   18.676583    ( 0.0000,  0.0000,  0.0000)
  28 Tl     8.819541    3.055179   10.000000    ( 0.0000,  0.0000,  0.0000)
  29 Tl    12.347357    5.091964   12.880450    ( 0.0000,  0.0000,  0.0000)
  30 Tl    10.583449    4.069643   15.755224    ( 0.0000,  0.0000,  0.0000)
  31 Tl    14.111664    6.110037   18.676583    ( 0.0000,  0.0000,  0.0000)
  32 Tl    10.583449    6.110357   10.000000    ( 0.0000,  0.0000,  0.0000)
  33 Tl    14.111265    8.147143   12.880450    ( 0.0000,  0.0000,  0.0000)
  34 Tl    12.350760    7.130714   15.755224    ( 0.0000,  0.0000,  0.0000)
  35 Tl    15.875173    9.165536   18.652511    ( 0.0000,  0.0000,  0.0000)
  36 H     10.644963    3.574661   22.036275    ( 0.0000,  0.0000,  0.0000)
  37 O     10.632265    3.132437   21.286889    ( 0.0000,  0.0000,  0.0000)
  38 C     10.613572    3.967167   20.283448    ( 0.0000,  0.0000,  0.0000)
  39 C     10.555586    5.413583   20.691568    ( 0.0000,  0.0000,  0.0000)
  40 O     10.606720    6.205395   21.881240    ( 0.0000,  0.0000,  0.0000)

Unit cell:
           periodic     x           y           z      points  spacing
  1. axis:    yes   10.583449    0.000000    0.000000    52     0.1763
  2. axis:    yes    5.291724    9.165536    0.000000    52     0.1763
  3. axis:    no     0.000000    0.000000   28.641350   160     0.1790

  Lengths:  10.583449  10.583449  28.641350
  Angles:   90.000000  90.000000  60.000000

Effective grid spacing dv^(1/3) = 0.1859

     iter     time        total  log10-change:
                         energy  eigst   dens
iter:   1 01:29:00 -12589.333213  -1.86
iter:   2 01:29:43 -12589.251580  -2.69  -2.23
iter:   3 01:30:26 -12589.095303c -3.29  -2.21
iter:   4 01:31:10 -12589.067684c -3.61  -2.72
iter:   5 01:31:53 -12589.063887c -3.93  -3.14
iter:   6 01:32:36 -12589.060963c -3.89  -3.19
iter:   7 01:33:19 -12589.060681c -4.07  -3.32
iter:   8 01:34:03 -12589.060715c -4.35  -3.57
iter:   9 01:34:46 -12589.060051c -4.74  -3.61
iter:  10 01:35:30 -12589.060267c -5.15  -3.89
iter:  11 01:36:13 -12589.060247c -5.46  -3.75
iter:  12 01:36:56 -12589.060156c -5.76  -3.89
iter:  13 01:37:40 -12589.060106c -6.10  -4.07c
iter:  14 01:38:23 -12589.060112c -6.08  -4.21c
iter:  15 01:39:06 -12589.060098c -6.52  -4.50c
iter:  16 01:39:50 -12589.060057c -6.78  -4.56c
iter:  17 01:40:33 -12589.060069c -7.17  -4.68c
iter:  18 01:41:17 -12589.060084c -7.40c -4.80c

Converged after 18 iterations.

Dipole moment: (-26.772273, -15.605675, -0.868318) |e|*Ang

Energy contributions relative to reference atoms: (reference = -19807768.740774)

Kinetic:       +1318.518295
Potential:     -1244.829290
External:        +0.000000
XC:            -12663.509045
Entropy (-ST):   -0.884981
Local:           +1.202447
--------------------------
Free energy:   -12589.502574
Extrapolated:  -12589.060084

Showing only first 2 kpts
 Kpt  Band  Eigenvalues  Occupancy
  0   242     -4.44395    1.77477
  0   243     -4.30778    1.33752
  0   244     -4.28344    1.22563
  0   245     -4.16203    0.63950

  1   242     -4.32955    1.43021
  1   243     -4.29408    1.27547
  1   244     -4.26801    1.15126
  1   245     -4.25115    1.06801


Fermi level: -4.23752

No gap

Forces in eV/Ang:
  0 Tl   -0.00760   -0.00426   -0.03702
  1 Tl   -0.02971   -0.01143    0.00714
  2 Tl   -0.01005   -0.00764   -0.02035
  3 Tl    0.00804    0.04822    0.07319
  4 Tl   -0.01093    0.01132   -0.10364
  5 Tl   -0.00028    0.02515    0.01879
  6 Tl    0.00758    0.04526   -0.02446
  7 Tl   -0.00279    0.02234    0.03789
  8 Tl   -0.00595   -0.00790   -0.11118
  9 Tl   -0.02258    0.00286   -0.01863
 10 Tl    0.00149   -0.00593   -0.00928
 11 Tl    0.01517   -0.02892    0.08390
 12 Tl    0.01564   -0.00048   -0.10467
 13 Tl    0.03345   -0.01256    0.02185
 14 Tl   -0.00340    0.03413    0.02190
 15 Tl   -0.22683   -0.04624   -0.07695
 16 Tl   -0.00975   -0.00688   -0.10267
 17 Tl    0.02647   -0.00091    0.06122
 18 Tl   -0.00162    0.05115   -0.03392
 19 Tl    0.00090    1.35699   -2.06557
 20 Tl   -0.00583   -0.01328   -0.10882
 21 Tl    0.00024   -0.02930    0.04355
 22 Tl    0.01481   -0.00804    0.07150
 23 Tl   -0.00999   -0.02387    0.07905
 24 Tl   -0.01276   -0.00738   -0.10404
 25 Tl   -0.00842   -0.00876    0.01127
 26 Tl    0.01077   -0.00672   -0.02400
 27 Tl    0.28854   -0.06996   -0.13978
 28 Tl    0.01133    0.00911   -0.09730
 29 Tl   -0.02736    0.00224    0.05938
 30 Tl   -0.00331    0.00930    0.06259
 31 Tl    0.01335    0.02467    0.03572
 32 Tl    0.00323   -0.01357   -0.10264
 33 Tl    0.01394    0.00692   -0.01964
 34 Tl   -0.01237   -0.00217    0.06830
 35 Tl   -0.00079   -0.02637    0.01209
 36 H     0.10482    3.28943    6.24640
 37 O    -0.03342   -5.78404   -3.39223
 38 C    -0.25985    4.00241    0.01567
 39 C     0.36979    1.37223    4.59759
 40 O    -0.24351   -4.18675   -5.15128

BFGS:    3 01:41:30   -12589.060084        3.0690
System changes: positions 

Initializing position-dependent things.

Density initialized from wave functions
                                                             
                                                             
                                                             
                                                             
                                                             
                                                             
                                     O                       
                                    H                        
                                  TOC      Tl       Tl       
                                    C                        
                            Tl       Tl       Tl             
                                                             
                      Tl       Tl      Tl                    
                         Tl      Tl       Tl                 
                                                             
                  Tl       Tl       Tl                       
                     Tl      Tl       Tl       Tl            
            Tl                Tl                             
                       Tl       Tl       Tl                  
                 Tl       Tl      Tl                         
                                                             
                    Tl      Tl       Tl                      
             Tl       Tl       Tl                            
                                                             
       Tl       Tl       Tl                                  
                                                             
                                                             
                                                             
                                                             

Positions:
   0 Tl     0.000000    0.000000   10.000000    ( 0.0000,  0.0000,  0.0000)
   1 Tl     3.527816    2.036786   12.880450    ( 0.0000,  0.0000,  0.0000)
   2 Tl     1.764813    1.018915   15.753208    ( 0.0000,  0.0000,  0.0000)
   3 Tl     5.291724    3.055179   18.682936    ( 0.0000,  0.0000,  0.0000)
   4 Tl     1.763908    3.055179   10.000000    ( 0.0000,  0.0000,  0.0000)
   5 Tl     5.291724    5.091964   12.880450    ( 0.0000,  0.0000,  0.0000)
   6 Tl     3.536429    4.068599   15.756428    ( 0.0000,  0.0000,  0.0000)
   7 Tl     7.055234    6.110037   18.676583    ( 0.0000,  0.0000,  0.0000)
   8 Tl     3.527816    6.110357   10.000000    ( 0.0000,  0.0000,  0.0000)
   9 Tl     7.055633    8.147143   12.880450    ( 0.0000,  0.0000,  0.0000)
  10 Tl     5.291724    7.127705   15.753208    ( 0.0000,  0.0000,  0.0000)
  11 Tl     8.819619    9.166041   18.676583    ( 0.0000,  0.0000,  0.0000)
  12 Tl     3.527816    0.000000   10.000000    ( 0.0000,  0.0000,  0.0000)
  13 Tl     7.055633    2.036786   12.880450    ( 0.0000,  0.0000,  0.0000)
  14 Tl     5.291724    1.028338   15.756428    ( 0.0000,  0.0000,  0.0000)
  15 Tl     8.819065    3.054993   18.676583    ( 0.0000,  0.0000,  0.0000)
  16 Tl     5.291724    3.055179   10.000000    ( 0.0000,  0.0000,  0.0000)
  17 Tl     8.819541    5.091964   12.880450    ( 0.0000,  0.0000,  0.0000)
  18 Tl     7.047020    4.068599   15.756428    ( 0.0000,  0.0000,  0.0000)
  19 Tl    10.583449    6.110357   18.680650    ( 0.0000,  0.0000,  0.0000)
  20 Tl     7.055633    6.110357   10.000000    ( 0.0000,  0.0000,  0.0000)
  21 Tl    10.583449    8.147143   12.880450    ( 0.0000,  0.0000,  0.0000)
  22 Tl     8.816138    7.130714   15.755224    ( 0.0000,  0.0000,  0.0000)
  23 Tl    12.347279    9.166041   18.676583    ( 0.0000,  0.0000,  0.0000)
  24 Tl     7.055633    0.000000   10.000000    ( 0.0000,  0.0000,  0.0000)
  25 Tl    10.583449    2.036786   12.880450    ( 0.0000,  0.0000,  0.0000)
  26 Tl     8.818636    1.018915   15.753208    ( 0.0000,  0.0000,  0.0000)
  27 Tl    12.347833    3.054993   18.676583    ( 0.0000,  0.0000,  0.0000)
  28 Tl     8.819541    3.055179   10.000000    ( 0.0000,  0.0000,  0.0000)
  29 Tl    12.347357    5.091964   12.880450    ( 0.0000,  0.0000,  0.0000)
  30 Tl    10.583449    4.069643   15.755224    ( 0.0000,  0.0000,  0.0000)
  31 Tl    14.111664    6.110037   18.676583    ( 0.0000,  0.0000,  0.0000)
  32 Tl    10.583449    6.110357   10.000000    ( 0.0000,  0.0000,  0.0000)
  33 Tl    14.111265    8.147143   12.880450    ( 0.0000,  0.0000,  0.0000)
  34 Tl    12.350760    7.130714   15.755224    ( 0.0000,  0.0000,  0.0000)
  35 Tl    15.875173    9.165536   18.652511    ( 0.0000,  0.0000,  0.0000)
  36 H     10.644320    3.576670   22.053429    ( 0.0000,  0.0000,  0.0000)
  37 O     10.635089    3.097495   21.326062    ( 0.0000,  0.0000,  0.0000)
  38 C     10.605957    3.943127   20.330495    ( 0.0000,  0.0000,  0.0000)
  39 C     10.555923    5.389118   20.740738    ( 0.0000,  0.0000,  0.0000)
  40 O     10.605863    6.193879   21.921739    ( 0.0000,  0.0000,  0.0000)

Unit cell:
           periodic     x           y           z      points  spacing
  1. axis:    yes   10.583449    0.000000    0.000000    52     0.1763
  2. axis:    yes    5.291724    9.165536    0.000000    52     0.1763
  3. axis:    no     0.000000    0.000000   28.641350   160     0.1790

  Lengths:  10.583449  10.583449  28.641350
  Angles:   90.000000  90.000000  60.000000

Effective grid spacing dv^(1/3) = 0.1859

     iter     time        total  log10-change:
                         energy  eigst   dens
iter:   1 01:42:45 -12589.365893  -1.75
iter:   2 01:43:28 -12589.320628  -2.65  -2.28
iter:   3 01:44:11 -12589.181203c -3.33  -2.24
iter:   4 01:44:55 -12589.162154c -3.72  -2.79
iter:   5 01:45:38 -12589.158008c -3.89  -3.16
iter:   6 01:46:21 -12589.156201c -3.88  -3.18
iter:   7 01:47:05 -12589.156154c -4.10  -3.31
iter:   8 01:47:48 -12589.156164c -4.43  -3.56
iter:   9 01:48:31 -12589.155540c -4.86  -3.60
iter:  10 01:49:15 -12589.155888c -5.17  -3.86
iter:  11 01:49:58 -12589.155653c -5.32  -3.77
iter:  12 01:50:41 -12589.155730c -5.80  -3.86
iter:  13 01:51:25 -12589.155625c -5.89  -4.01c
iter:  14 01:52:08 -12589.155660c -5.94  -4.07c
iter:  15 01:52:51 -12589.155641c -6.48  -4.48c
iter:  16 01:53:34 -12589.155607c -6.92  -4.56c
iter:  17 01:54:18 -12589.155641c -7.11  -4.69c
iter:  18 01:55:01 -12589.155642c -7.39  -4.79c
iter:  19 01:55:44 -12589.155624c -7.42c -4.94c

Converged after 19 iterations.

Dipole moment: (-26.786483, -15.592193, -0.897478) |e|*Ang

Energy contributions relative to reference atoms: (reference = -19807768.740774)

Kinetic:       +1316.041657
Potential:     -1242.910012
External:        +0.000000
XC:            -12663.041383
Entropy (-ST):   -0.887897
Local:           +1.198063
--------------------------
Free energy:   -12589.599573
Extrapolated:  -12589.155624

Showing only first 2 kpts
 Kpt  Band  Eigenvalues  Occupancy
  0   242     -4.45913    1.77209
  0   243     -4.32417    1.33698
  0   244     -4.29785    1.21564
  0   245     -4.18055    0.64829

  1   242     -4.34492    1.42553
  1   243     -4.31041    1.27463
  1   244     -4.28442    1.15077
  1   245     -4.26667    1.06309


Fermi level: -4.25403

No gap

Forces in eV/Ang:
  0 Tl   -0.00777   -0.00331   -0.03754
  1 Tl   -0.03000   -0.01075    0.00702
  2 Tl   -0.00910   -0.00859   -0.02075
  3 Tl    0.00826    0.04518    0.07314
  4 Tl   -0.01138    0.01175   -0.10445
  5 Tl   -0.00067    0.02436    0.01711
  6 Tl    0.00756    0.04488   -0.02654
  7 Tl    0.00417    0.02051    0.04139
  8 Tl   -0.00566   -0.00871   -0.11088
  9 Tl   -0.02192    0.00271   -0.01818
 10 Tl    0.00128   -0.00584   -0.00935
 11 Tl    0.01710   -0.03118    0.08587
 12 Tl    0.01396    0.00012   -0.10423
 13 Tl    0.03385   -0.01176    0.02129
 14 Tl   -0.00342    0.03265    0.02010
 15 Tl   -0.17573   -0.01838   -0.02679
 16 Tl   -0.00954   -0.00561   -0.10302
 17 Tl    0.02682   -0.00077    0.06143
 18 Tl   -0.00162    0.05084   -0.03505
 19 Tl   -0.00202    1.07273   -1.46132
 20 Tl   -0.00601   -0.01388   -0.10901
 21 Tl    0.00038   -0.03050    0.04583
 22 Tl    0.01321   -0.00629    0.06512
 23 Tl   -0.01155   -0.02615    0.08103
 24 Tl   -0.01155   -0.00692   -0.10389
 25 Tl   -0.00812   -0.00818    0.01038
 26 Tl    0.00982   -0.00825   -0.02401
 27 Tl    0.22538   -0.03591   -0.08227
 28 Tl    0.01141    0.00940   -0.09751
 29 Tl   -0.02770    0.00194    0.05997
 30 Tl   -0.00215    0.00859    0.06402
 31 Tl    0.00724    0.02377    0.03811
 32 Tl    0.00304   -0.01544   -0.10385
 33 Tl    0.01290    0.00662   -0.01888
 34 Tl   -0.01025   -0.00100    0.06220
 35 Tl   -0.00063   -0.02620    0.01280
 36 H     0.09455    3.26896    6.24544
 37 O     0.02122   -5.59220   -3.24078
 38 C    -0.24218    3.97243   -0.43605
 39 C     0.32433    1.58382    4.07774
 40 O    -0.23856   -4.35308   -5.16000

BFGS:    4 01:55:57   -12589.155624        2.8229
System changes: positions 

Initializing position-dependent things.

Density initialized from wave functions
                                                             
                                                             
                                                             
                                                             
                                                             
                                                             
                                     O                       
                                    H                        
                                  TOC      Tl       Tl       
                                    C                        
                            Tl       Tl       Tl             
                                                             
                      Tl       Tl      Tl                    
                         Tl      Tl       Tl                 
                                                             
                  Tl       Tl       Tl                       
                             Tl       Tl       Tl            
            Tl       Tl       Tl                             
                       Tl       Tl       Tl                  
                 Tl       Tl      Tl                         
                                                             
                    Tl      Tl       Tl                      
             Tl       Tl       Tl                            
                                                             
       Tl       Tl       Tl                                  
                                                             
                                                             
                                                             
                                                             

Positions:
   0 Tl     0.000000    0.000000   10.000000    ( 0.0000,  0.0000,  0.0000)
   1 Tl     3.527816    2.036786   12.880450    ( 0.0000,  0.0000,  0.0000)
   2 Tl     1.764813    1.018915   15.753208    ( 0.0000,  0.0000,  0.0000)
   3 Tl     5.291724    3.055179   18.682936    ( 0.0000,  0.0000,  0.0000)
   4 Tl     1.763908    3.055179   10.000000    ( 0.0000,  0.0000,  0.0000)
   5 Tl     5.291724    5.091964   12.880450    ( 0.0000,  0.0000,  0.0000)
   6 Tl     3.536429    4.068599   15.756428    ( 0.0000,  0.0000,  0.0000)
   7 Tl     7.055234    6.110037   18.676583    ( 0.0000,  0.0000,  0.0000)
   8 Tl     3.527816    6.110357   10.000000    ( 0.0000,  0.0000,  0.0000)
   9 Tl     7.055633    8.147143   12.880450    ( 0.0000,  0.0000,  0.0000)
  10 Tl     5.291724    7.127705   15.753208    ( 0.0000,  0.0000,  0.0000)
  11 Tl     8.819619    9.166041   18.676583    ( 0.0000,  0.0000,  0.0000)
  12 Tl     3.527816    0.000000   10.000000    ( 0.0000,  0.0000,  0.0000)
  13 Tl     7.055633    2.036786   12.880450    ( 0.0000,  0.0000,  0.0000)
  14 Tl     5.291724    1.028338   15.756428    ( 0.0000,  0.0000,  0.0000)
  15 Tl     8.819065    3.054993   18.676583    ( 0.0000,  0.0000,  0.0000)
  16 Tl     5.291724    3.055179   10.000000    ( 0.0000,  0.0000,  0.0000)
  17 Tl     8.819541    5.091964   12.880450    ( 0.0000,  0.0000,  0.0000)
  18 Tl     7.047020    4.068599   15.756428    ( 0.0000,  0.0000,  0.0000)
  19 Tl    10.583449    6.110357   18.680650    ( 0.0000,  0.0000,  0.0000)
  20 Tl     7.055633    6.110357   10.000000    ( 0.0000,  0.0000,  0.0000)
  21 Tl    10.583449    8.147143   12.880450    ( 0.0000,  0.0000,  0.0000)
  22 Tl     8.816138    7.130714   15.755224    ( 0.0000,  0.0000,  0.0000)
  23 Tl    12.347279    9.166041   18.676583    ( 0.0000,  0.0000,  0.0000)
  24 Tl     7.055633    0.000000   10.000000    ( 0.0000,  0.0000,  0.0000)
  25 Tl    10.583449    2.036786   12.880450    ( 0.0000,  0.0000,  0.0000)
  26 Tl     8.818636    1.018915   15.753208    ( 0.0000,  0.0000,  0.0000)
  27 Tl    12.347833    3.054993   18.676583    ( 0.0000,  0.0000,  0.0000)
  28 Tl     8.819541    3.055179   10.000000    ( 0.0000,  0.0000,  0.0000)
  29 Tl    12.347357    5.091964   12.880450    ( 0.0000,  0.0000,  0.0000)
  30 Tl    10.583449    4.069643   15.755224    ( 0.0000,  0.0000,  0.0000)
  31 Tl    14.111664    6.110037   18.676583    ( 0.0000,  0.0000,  0.0000)
  32 Tl    10.583449    6.110357   10.000000    ( 0.0000,  0.0000,  0.0000)
  33 Tl    14.111265    8.147143   12.880450    ( 0.0000,  0.0000,  0.0000)
  34 Tl    12.350760    7.130714   15.755224    ( 0.0000,  0.0000,  0.0000)
  35 Tl    15.875173    9.165536   18.652511    ( 0.0000,  0.0000,  0.0000)
  36 H     10.644260    3.569637   22.084112    ( 0.0000,  0.0000,  0.0000)
  37 O     10.638557    3.066918   21.372881    ( 0.0000,  0.0000,  0.0000)
  38 C     10.597132    3.919228   20.383564    ( 0.0000,  0.0000,  0.0000)
  39 C     10.556044    5.370313   20.774857    ( 0.0000,  0.0000,  0.0000)
  40 O     10.604764    6.167635   21.960944    ( 0.0000,  0.0000,  0.0000)

Unit cell:
           periodic     x           y           z      points  spacing
  1. axis:    yes   10.583449    0.000000    0.000000    52     0.1763
  2. axis:    yes    5.291724    9.165536    0.000000    52     0.1763
  3. axis:    no     0.000000    0.000000   28.641350   160     0.1790

  Lengths:  10.583449  10.583449  28.641350
  Angles:   90.000000  90.000000  60.000000

Effective grid spacing dv^(1/3) = 0.1859

     iter     time        total  log10-change:
                         energy  eigst   dens
iter:   1 01:57:12 -12589.299513  -1.75
iter:   2 01:57:55 -12589.294499  -2.74  -2.52
iter:   3 01:58:38 -12589.246591c -3.46  -2.46
iter:   4 01:59:22 -12589.239176c -3.84  -2.98
iter:   5 02:00:05 -12589.234756c -3.67  -3.17
iter:   6 02:00:48 -12589.234951c -4.02  -3.30
iter:   7 02:01:32 -12589.234515c -4.25  -3.36
iter:   8 02:02:15 -12589.234492c -4.64  -3.60
iter:   9 02:02:58 -12589.234133c -5.03  -3.63
iter:  10 02:03:43 -12589.234039c -5.64  -3.68
iter:  11 02:04:26 -12589.234192c -5.36  -3.88
iter:  12 02:05:09 -12589.234245c -5.66  -3.84
iter:  13 02:05:53 -12589.234180c -5.76  -3.98
iter:  14 02:06:36 -12589.234192c -6.25  -4.33c
iter:  15 02:07:19 -12589.234211c -6.56  -4.46c
iter:  16 02:08:03 -12589.234200c -6.70  -4.52c
iter:  17 02:08:46 -12589.234180c -7.03  -4.70c
iter:  18 02:09:29 -12589.234177c -7.45c -4.78c

Converged after 18 iterations.

Dipole moment: (-26.801666, -15.583122, -0.930054) |e|*Ang

Energy contributions relative to reference atoms: (reference = -19807768.740774)

Kinetic:       +1314.076371
Potential:     -1241.383423
External:        +0.000000
XC:            -12662.674392
Entropy (-ST):   -0.890424
Local:           +1.192478
--------------------------
Free energy:   -12589.679389
Extrapolated:  -12589.234177

Showing only first 2 kpts
 Kpt  Band  Eigenvalues  Occupancy
  0   242     -4.47859    1.77346
  0   243     -4.34292    1.33685
  0   244     -4.31681    1.21648
  0   245     -4.20266    0.66295

  1   242     -4.36251    1.42063
  1   243     -4.32929    1.27509
  1   244     -4.30312    1.15037
  1   245     -4.28437    1.05771


Fermi level: -4.27281

No gap

Forces in eV/Ang:
  0 Tl   -0.00810   -0.00201   -0.03567
  1 Tl   -0.02909   -0.01110    0.00757
  2 Tl   -0.00976   -0.01021   -0.01844
  3 Tl    0.00684    0.04108    0.06896
  4 Tl   -0.01289    0.01417   -0.10434
  5 Tl   -0.00071    0.02430    0.01623
  6 Tl    0.01152    0.04216   -0.02492
  7 Tl    0.01401    0.01888    0.04262
  8 Tl   -0.00799   -0.00971   -0.10906
  9 Tl   -0.02288    0.00319   -0.01808
 10 Tl    0.00194   -0.00391   -0.00988
 11 Tl    0.01992   -0.03354    0.08648
 12 Tl    0.01350   -0.00080   -0.10244
 13 Tl    0.03317   -0.01169    0.02205
 14 Tl   -0.00306    0.03464    0.01893
 15 Tl   -0.10964    0.01407    0.02977
 16 Tl   -0.00945   -0.00459   -0.10169
 17 Tl    0.02396   -0.00065    0.05499
 18 Tl   -0.00536    0.04853   -0.03374
 19 Tl   -0.00087    0.86888   -1.06064
 20 Tl   -0.00381   -0.01469   -0.10774
 21 Tl    0.00032   -0.02867    0.04247
 22 Tl    0.00833   -0.00315    0.06617
 23 Tl   -0.01467   -0.03063    0.08153
 24 Tl   -0.01138   -0.00829   -0.10234
 25 Tl   -0.00782   -0.01069    0.00737
 26 Tl    0.01002   -0.00983   -0.02175
 27 Tl    0.14849    0.00327   -0.01718
 28 Tl    0.01263    0.01149   -0.09685
 29 Tl   -0.02520    0.00137    0.05268
 30 Tl   -0.00160    0.00380    0.07365
 31 Tl   -0.00266    0.02201    0.03945
 32 Tl    0.00315   -0.01749   -0.10391
 33 Tl    0.01355    0.00735   -0.01894
 34 Tl   -0.00562    0.00238    0.06468
 35 Tl   -0.00020   -0.02583    0.00831
 36 H     0.08682    3.30238    6.33645
 37 O     0.00749   -5.40975   -3.09331
 38 C    -0.20577    3.86739   -0.94286
 39 C     0.29643    1.60022    3.96641
 40 O    -0.23266   -4.27011   -5.23000

BFGS:    5 02:09:43   -12589.234177        2.5154
System changes: positions 

Initializing position-dependent things.

Density initialized from wave functions
                                                             
                                                             
                                                             
                                                             
                                                             
                                                             
                                     O                       
                                    H                        
                                  TOC      Tl       Tl       
                                    C                        
                            Tl       Tl       Tl             
                                                             
                      Tl       Tl      Tl                    
                         Tl      Tl       Tl                 
                                                             
                  Tl       Tl       Tl                       
                             Tl       Tl       Tl            
            Tl       Tl       Tl                             
                       Tl       Tl       Tl                  
                                                             
                 Tl       Tl      Tl                         
                    Tl      Tl       Tl                      
             Tl       Tl       Tl                            
                                                             
       Tl       Tl       Tl                                  
                                                             
                                                             
                                                             
                                                             

Positions:
   0 Tl     0.000000    0.000000   10.000000    ( 0.0000,  0.0000,  0.0000)
   1 Tl     3.527816    2.036786   12.880450    ( 0.0000,  0.0000,  0.0000)
   2 Tl     1.764813    1.018915   15.753208    ( 0.0000,  0.0000,  0.0000)
   3 Tl     5.291724    3.055179   18.682936    ( 0.0000,  0.0000,  0.0000)
   4 Tl     1.763908    3.055179   10.000000    ( 0.0000,  0.0000,  0.0000)
   5 Tl     5.291724    5.091964   12.880450    ( 0.0000,  0.0000,  0.0000)
   6 Tl     3.536429    4.068599   15.756428    ( 0.0000,  0.0000,  0.0000)
   7 Tl     7.055234    6.110037   18.676583    ( 0.0000,  0.0000,  0.0000)
   8 Tl     3.527816    6.110357   10.000000    ( 0.0000,  0.0000,  0.0000)
   9 Tl     7.055633    8.147143   12.880450    ( 0.0000,  0.0000,  0.0000)
  10 Tl     5.291724    7.127705   15.753208    ( 0.0000,  0.0000,  0.0000)
  11 Tl     8.819619    9.166041   18.676583    ( 0.0000,  0.0000,  0.0000)
  12 Tl     3.527816    0.000000   10.000000    ( 0.0000,  0.0000,  0.0000)
  13 Tl     7.055633    2.036786   12.880450    ( 0.0000,  0.0000,  0.0000)
  14 Tl     5.291724    1.028338   15.756428    ( 0.0000,  0.0000,  0.0000)
  15 Tl     8.819065    3.054993   18.676583    ( 0.0000,  0.0000,  0.0000)
  16 Tl     5.291724    3.055179   10.000000    ( 0.0000,  0.0000,  0.0000)
  17 Tl     8.819541    5.091964   12.880450    ( 0.0000,  0.0000,  0.0000)
  18 Tl     7.047020    4.068599   15.756428    ( 0.0000,  0.0000,  0.0000)
  19 Tl    10.583449    6.110357   18.680650    ( 0.0000,  0.0000,  0.0000)
  20 Tl     7.055633    6.110357   10.000000    ( 0.0000,  0.0000,  0.0000)
  21 Tl    10.583449    8.147143   12.880450    ( 0.0000,  0.0000,  0.0000)
  22 Tl     8.816138    7.130714   15.755224    ( 0.0000,  0.0000,  0.0000)
  23 Tl    12.347279    9.166041   18.676583    ( 0.0000,  0.0000,  0.0000)
  24 Tl     7.055633    0.000000   10.000000    ( 0.0000,  0.0000,  0.0000)
  25 Tl    10.583449    2.036786   12.880450    ( 0.0000,  0.0000,  0.0000)
  26 Tl     8.818636    1.018915   15.753208    ( 0.0000,  0.0000,  0.0000)
  27 Tl    12.347833    3.054993   18.676583    ( 0.0000,  0.0000,  0.0000)
  28 Tl     8.819541    3.055179   10.000000    ( 0.0000,  0.0000,  0.0000)
  29 Tl    12.347357    5.091964   12.880450    ( 0.0000,  0.0000,  0.0000)
  30 Tl    10.583449    4.069643   15.755224    ( 0.0000,  0.0000,  0.0000)
  31 Tl    14.111664    6.110037   18.676583    ( 0.0000,  0.0000,  0.0000)
  32 Tl    10.583449    6.110357   10.000000    ( 0.0000,  0.0000,  0.0000)
  33 Tl    14.111265    8.147143   12.880450    ( 0.0000,  0.0000,  0.0000)
  34 Tl    12.350760    7.130714   15.755224    ( 0.0000,  0.0000,  0.0000)
  35 Tl    15.875173    9.165536   18.652511    ( 0.0000,  0.0000,  0.0000)
  36 H     10.645463    3.545803   22.172184    ( 0.0000,  0.0000,  0.0000)
  37 O     10.643469    3.021103   21.476843    ( 0.0000,  0.0000,  0.0000)
  38 C     10.579604    3.872361   20.487850    ( 0.0000,  0.0000,  0.0000)
  39 C     10.556281    5.339514   20.820969    ( 0.0000,  0.0000,  0.0000)
  40 O     10.602260    6.098337   22.032155    ( 0.0000,  0.0000,  0.0000)

Unit cell:
           periodic     x           y           z      points  spacing
  1. axis:    yes   10.583449    0.000000    0.000000    52     0.1763
  2. axis:    yes    5.291724    9.165536    0.000000    52     0.1763
  3. axis:    no     0.000000    0.000000   28.641350   160     0.1790

  Lengths:  10.583449  10.583449  28.641350
  Angles:   90.000000  90.000000  60.000000

Effective grid spacing dv^(1/3) = 0.1859

     iter     time        total  log10-change:
                         energy  eigst   dens
iter:   1 02:10:57 -12589.458454  -1.18
iter:   2 02:11:41 -12589.425755  -2.17  -2.55
iter:   3 02:12:24 -12589.411843c -2.85  -2.70
iter:   4 02:13:07 -12589.400725c -3.08  -2.69
iter:   5 02:13:51 -12589.372083c -2.97  -2.66
iter:   6 02:14:34 -12589.366570c -3.54  -3.04
iter:   7 02:15:17 -12589.367114c -3.42  -3.29
iter:   8 02:16:00 -12589.366919c -4.04  -3.28
iter:   9 02:16:43 -12589.366583c -4.17  -3.34
iter:  10 02:17:27 -12589.366610c -4.91  -3.51
iter:  11 02:18:10 -12589.366347c -5.03  -3.55
iter:  12 02:18:54 -12589.366291c -5.09  -3.77
iter:  13 02:19:37 -12589.366270c -5.42  -3.87
iter:  14 02:20:20 -12589.366258c -5.89  -4.03c
iter:  15 02:21:03 -12589.366250c -5.81  -4.15c
iter:  16 02:21:47 -12589.366249c -6.62  -4.36c
iter:  17 02:22:30 -12589.366245c -6.96  -4.40c
iter:  18 02:23:13 -12589.366247c -7.05  -4.55c
iter:  19 02:23:57 -12589.366250c -7.09  -4.71c
iter:  20 02:24:40 -12589.366256c -7.17  -4.84c
iter:  21 02:25:23 -12589.366254c -7.83c -4.93c

Converged after 21 iterations.

Dipole moment: (-26.826461, -15.567521, -0.986275) |e|*Ang

Energy contributions relative to reference atoms: (reference = -19807768.740774)

Kinetic:       +1310.917021
Potential:     -1238.960257
External:        +0.000000
XC:            -12662.056806
Entropy (-ST):   -0.895003
Local:           +1.181290
--------------------------
Free energy:   -12589.813755
Extrapolated:  -12589.366254

Showing only first 2 kpts
 Kpt  Band  Eigenvalues  Occupancy
  0   242     -4.51684    1.78140
  0   243     -4.37715    1.33681
  0   244     -4.35531    1.23675
  0   245     -4.24534    0.70089

  1   242     -4.39457    1.41168
  1   243     -4.36411    1.27783
  1   244     -4.33723    1.14977
  1   245     -4.31630    1.04625


Fermi level: -4.30705

No gap

Forces in eV/Ang:
  0 Tl   -0.00907   -0.00238   -0.03758
  1 Tl   -0.03041   -0.01006    0.00985
  2 Tl   -0.00580   -0.00918   -0.01511
  3 Tl    0.00657    0.03220    0.07289
  4 Tl   -0.01360    0.01598   -0.10854
  5 Tl   -0.00147    0.02412    0.01230
  6 Tl    0.00895    0.04009   -0.02574
  7 Tl    0.01965    0.01655    0.05129
  8 Tl   -0.00905   -0.00916   -0.11161
  9 Tl   -0.02111    0.00333   -0.02047
 10 Tl    0.00116   -0.00357   -0.00592
 11 Tl    0.02186   -0.03112    0.08967
 12 Tl    0.01150   -0.00207   -0.10563
 13 Tl    0.03443   -0.01029    0.02245
 14 Tl   -0.00358    0.02905    0.01806
 15 Tl   -0.00396    0.05087    0.15369
 16 Tl   -0.00872   -0.00296   -0.10422
 17 Tl    0.02499   -0.00026    0.05703
 18 Tl   -0.00449    0.04741   -0.03409
 19 Tl   -0.00057    0.60938   -0.56859
 20 Tl   -0.00265   -0.01420   -0.11143
 21 Tl    0.00056   -0.03260    0.04641
 22 Tl    0.00952   -0.00254    0.05977
 23 Tl   -0.01646   -0.02947    0.08513
 24 Tl   -0.00978   -0.00988   -0.10588
 25 Tl   -0.00671   -0.00836    0.00647
 26 Tl    0.00657   -0.01104   -0.01825
 27 Tl    0.02918    0.04426    0.10998
 28 Tl    0.01224    0.01268   -0.10037
 29 Tl   -0.02665    0.00057    0.05539
 30 Tl    0.00127    0.00444    0.06979
 31 Tl   -0.00510    0.02152    0.04433
 32 Tl    0.00334   -0.01857   -0.10860
 33 Tl    0.01082    0.00732   -0.02064
 34 Tl   -0.00547    0.00194    0.05879
 35 Tl   -0.00016   -0.03078    0.01152
 36 H     0.08633    3.43981    6.41478
 37 O     0.07633   -5.04940   -3.18438
 38 C    -0.16994    3.51822   -1.76781
 39 C     0.22802    1.32182    4.22845
 40 O    -0.19365   -3.99703   -5.32782

BFGS:    6 02:25:36   -12589.366254        1.9193
System changes: positions 

Initializing position-dependent things.

Density initialized from wave functions
                                                             
                                                             
                                                             
                                                             
                                                             
                                                             
                                     O                       
                                    H                        
                                  TOC      Tl       Tl       
                                    C                        
                            Tl       Tl       Tl             
                                                             
                      Tl       Tl      Tl                    
                         Tl      Tl       Tl                 
                                                             
                  Tl       Tl       Tl                       
                             Tl       Tl       Tl            
            Tl       Tl       Tl                             
                       Tl       Tl       Tl                  
                                                             
                 Tl       Tl      Tl                         
                    Tl      Tl       Tl                      
             Tl       Tl       Tl                            
                                                             
       Tl       Tl       Tl                                  
                                                             
                                                             
                                                             
                                                             

Positions:
   0 Tl     0.000000    0.000000   10.000000    ( 0.0000,  0.0000,  0.0000)
   1 Tl     3.527816    2.036786   12.880450    ( 0.0000,  0.0000,  0.0000)
   2 Tl     1.764813    1.018915   15.753208    ( 0.0000,  0.0000,  0.0000)
   3 Tl     5.291724    3.055179   18.682936    ( 0.0000,  0.0000,  0.0000)
   4 Tl     1.763908    3.055179   10.000000    ( 0.0000,  0.0000,  0.0000)
   5 Tl     5.291724    5.091964   12.880450    ( 0.0000,  0.0000,  0.0000)
   6 Tl     3.536429    4.068599   15.756428    ( 0.0000,  0.0000,  0.0000)
   7 Tl     7.055234    6.110037   18.676583    ( 0.0000,  0.0000,  0.0000)
   8 Tl     3.527816    6.110357   10.000000    ( 0.0000,  0.0000,  0.0000)
   9 Tl     7.055633    8.147143   12.880450    ( 0.0000,  0.0000,  0.0000)
  10 Tl     5.291724    7.127705   15.753208    ( 0.0000,  0.0000,  0.0000)
  11 Tl     8.819619    9.166041   18.676583    ( 0.0000,  0.0000,  0.0000)
  12 Tl     3.527816    0.000000   10.000000    ( 0.0000,  0.0000,  0.0000)
  13 Tl     7.055633    2.036786   12.880450    ( 0.0000,  0.0000,  0.0000)
  14 Tl     5.291724    1.028338   15.756428    ( 0.0000,  0.0000,  0.0000)
  15 Tl     8.819065    3.054993   18.676583    ( 0.0000,  0.0000,  0.0000)
  16 Tl     5.291724    3.055179   10.000000    ( 0.0000,  0.0000,  0.0000)
  17 Tl     8.819541    5.091964   12.880450    ( 0.0000,  0.0000,  0.0000)
  18 Tl     7.047020    4.068599   15.756428    ( 0.0000,  0.0000,  0.0000)
  19 Tl    10.583449    6.110357   18.680650    ( 0.0000,  0.0000,  0.0000)
  20 Tl     7.055633    6.110357   10.000000    ( 0.0000,  0.0000,  0.0000)
  21 Tl    10.583449    8.147143   12.880450    ( 0.0000,  0.0000,  0.0000)
  22 Tl     8.816138    7.130714   15.755224    ( 0.0000,  0.0000,  0.0000)
  23 Tl    12.347279    9.166041   18.676583    ( 0.0000,  0.0000,  0.0000)
  24 Tl     7.055633    0.000000   10.000000    ( 0.0000,  0.0000,  0.0000)
  25 Tl    10.583449    2.036786   12.880450    ( 0.0000,  0.0000,  0.0000)
  26 Tl     8.818636    1.018915   15.753208    ( 0.0000,  0.0000,  0.0000)
  27 Tl    12.347833    3.054993   18.676583    ( 0.0000,  0.0000,  0.0000)
  28 Tl     8.819541    3.055179   10.000000    ( 0.0000,  0.0000,  0.0000)
  29 Tl    12.347357    5.091964   12.880450    ( 0.0000,  0.0000,  0.0000)
  30 Tl    10.583449    4.069643   15.755224    ( 0.0000,  0.0000,  0.0000)
  31 Tl    14.111664    6.110037   18.676583    ( 0.0000,  0.0000,  0.0000)
  32 Tl    10.583449    6.110357   10.000000    ( 0.0000,  0.0000,  0.0000)
  33 Tl    14.111265    8.147143   12.880450    ( 0.0000,  0.0000,  0.0000)
  34 Tl    12.350760    7.130714   15.755224    ( 0.0000,  0.0000,  0.0000)
  35 Tl    15.875173    9.165536   18.652511    ( 0.0000,  0.0000,  0.0000)
  36 H     10.648287    3.513997   22.287425    ( 0.0000,  0.0000,  0.0000)
  37 O     10.647960    2.994827   21.588003    ( 0.0000,  0.0000,  0.0000)
  38 C     10.562162    3.825971   20.582064    ( 0.0000,  0.0000,  0.0000)
  39 C     10.556140    5.309732   20.850383    ( 0.0000,  0.0000,  0.0000)
  40 O     10.600055    6.011743   22.095434    ( 0.0000,  0.0000,  0.0000)

Unit cell:
           periodic     x           y           z      points  spacing
  1. axis:    yes   10.583449    0.000000    0.000000    52     0.1763
  2. axis:    yes    5.291724    9.165536    0.000000    52     0.1763
  3. axis:    no     0.000000    0.000000   28.641350   160     0.1790

  Lengths:  10.583449  10.583449  28.641350
  Angles:   90.000000  90.000000  60.000000

Effective grid spacing dv^(1/3) = 0.1859

     iter     time        total  log10-change:
                         energy  eigst   dens
iter:   1 02:26:51 -12589.756386  -1.16
iter:   2 02:27:34 -12589.669406  -2.05  -2.30
iter:   3 02:28:17 -12589.567665c -2.74  -2.28
iter:   4 02:29:01 -12589.528268c -3.15  -2.49
iter:   5 02:29:44 -12589.494059c -2.82  -2.81
iter:   6 02:30:27 -12589.489735c -3.33  -3.03
iter:   7 02:31:10 -12589.487735c -3.52  -3.14
iter:   8 02:31:54 -12589.486893c -3.54  -3.12
iter:   9 02:32:37 -12589.486726c -4.32  -3.32
iter:  10 02:33:20 -12589.486100c -4.30  -3.38
iter:  11 02:34:03 -12589.486425c -4.90  -3.58
iter:  12 02:34:47 -12589.486165c -5.06  -3.61
iter:  13 02:35:30 -12589.486123c -5.45  -3.86
iter:  14 02:36:13 -12589.485990c -5.28  -3.94
iter:  15 02:36:56 -12589.485971c -5.47  -4.17c
iter:  16 02:37:40 -12589.485966c -6.06  -4.22c
iter:  17 02:38:23 -12589.485968c -6.30  -4.40c
iter:  18 02:39:06 -12589.485956c -7.09  -4.53c
iter:  19 02:39:49 -12589.485958c -7.17  -4.48c
iter:  20 02:40:33 -12589.485952c -7.19  -4.67c
iter:  21 02:41:16 -12589.485952c -7.40c -4.84c

Converged after 21 iterations.

Dipole moment: (-26.843948, -15.548575, -1.023290) |e|*Ang

Energy contributions relative to reference atoms: (reference = -19807768.740774)

Kinetic:       +1308.554088
Potential:     -1237.224348
External:        +0.000000
XC:            -12661.539813
Entropy (-ST):   -0.899031
Local:           +1.173636
--------------------------
Free energy:   -12589.935468
Extrapolated:  -12589.485952

Showing only first 2 kpts
 Kpt  Band  Eigenvalues  Occupancy
  0   242     -4.54618    1.79194
  0   243     -4.40120    1.33787
  0   244     -4.38631    1.27035
  0   245     -4.27784    0.74094

  1   242     -4.41655    1.40402
  1   243     -4.38887    1.28217
  1   244     -4.36063    1.14774
  1   245     -4.33832    1.03728


Fermi level: -4.33086

No gap

Forces in eV/Ang:
  0 Tl   -0.01029   -0.00244   -0.03519
  1 Tl   -0.02972   -0.01032    0.01268
  2 Tl   -0.00495   -0.01135   -0.01137
  3 Tl    0.00505    0.02358    0.06603
  4 Tl   -0.01436    0.01705   -0.10888
  5 Tl   -0.00153    0.02434    0.01006
  6 Tl    0.01543    0.03481   -0.02527
  7 Tl    0.02548    0.01325    0.05334
  8 Tl   -0.00981   -0.00859   -0.11022
  9 Tl   -0.02194    0.00473   -0.02098
 10 Tl    0.00180   -0.00043   -0.00510
 11 Tl    0.02345   -0.02856    0.08983
 12 Tl    0.00948   -0.00281   -0.10514
 13 Tl    0.03357   -0.00976    0.02359
 14 Tl   -0.00322    0.03047    0.01568
 15 Tl    0.08727    0.06987    0.25428
 16 Tl   -0.00742   -0.00145   -0.10263
 17 Tl    0.02062   -0.00038    0.05181
 18 Tl   -0.01190    0.04299   -0.03358
 19 Tl    0.00169    0.44360   -0.27044
[...]
  10 Tl     5.291724    7.127705   15.753208    ( 0.0000,  0.0000,  0.0000)
  11 Tl     8.819619    9.166041   18.676583    ( 0.0000,  0.0000,  0.0000)
  12 Tl     3.527816    0.000000   10.000000    ( 0.0000,  0.0000,  0.0000)
  13 Tl     7.055633    2.036786   12.880450    ( 0.0000,  0.0000,  0.0000)
  14 Tl     5.291724    1.028338   15.756428    ( 0.0000,  0.0000,  0.0000)
  15 Tl     8.819065    3.054993   18.676583    ( 0.0000,  0.0000,  0.0000)
  16 Tl     5.291724    3.055179   10.000000    ( 0.0000,  0.0000,  0.0000)
  17 Tl     8.819541    5.091964   12.880450    ( 0.0000,  0.0000,  0.0000)
  18 Tl     7.047020    4.068599   15.756428    ( 0.0000,  0.0000,  0.0000)
  19 Tl    10.583449    6.110357   18.680650    ( 0.0000,  0.0000,  0.0000)
  20 Tl     7.055633    6.110357   10.000000    ( 0.0000,  0.0000,  0.0000)
  21 Tl    10.583449    8.147143   12.880450    ( 0.0000,  0.0000,  0.0000)
  22 Tl     8.816138    7.130714   15.755224    ( 0.0000,  0.0000,  0.0000)
  23 Tl    12.347279    9.166041   18.676583    ( 0.0000,  0.0000,  0.0000)
  24 Tl     7.055633    0.000000   10.000000    ( 0.0000,  0.0000,  0.0000)
  25 Tl    10.583449    2.036786   12.880450    ( 0.0000,  0.0000,  0.0000)
  26 Tl     8.818636    1.018915   15.753208    ( 0.0000,  0.0000,  0.0000)
  27 Tl    12.347833    3.054993   18.676583    ( 0.0000,  0.0000,  0.0000)
  28 Tl     8.819541    3.055179   10.000000    ( 0.0000,  0.0000,  0.0000)
  29 Tl    12.347357    5.091964   12.880450    ( 0.0000,  0.0000,  0.0000)
  30 Tl    10.583449    4.069643   15.755224    ( 0.0000,  0.0000,  0.0000)
  31 Tl    14.111664    6.110037   18.676583    ( 0.0000,  0.0000,  0.0000)
  32 Tl    10.583449    6.110357   10.000000    ( 0.0000,  0.0000,  0.0000)
  33 Tl    14.111265    8.147143   12.880450    ( 0.0000,  0.0000,  0.0000)
  34 Tl    12.350760    7.130714   15.755224    ( 0.0000,  0.0000,  0.0000)
  35 Tl    15.875173    9.165536   18.652511    ( 0.0000,  0.0000,  0.0000)
  36 H     10.780296    2.672795   22.178863    ( 0.0000,  0.0000,  0.0000)
  37 O     10.471586    2.365936   21.536067    ( 0.0000,  0.0000,  0.0000)
  38 C     10.319041    3.086756   20.473656    ( 0.0000,  0.0000,  0.0000)
  39 C     10.611422    4.580130   20.535949    ( 0.0000,  0.0000,  0.0000)
  40 O     10.875654    5.135646   21.826872    ( 0.0000,  0.0000,  0.0000)

Unit cell:
           periodic     x           y           z      points  spacing
  1. axis:    yes   10.583449    0.000000    0.000000    52     0.1763
  2. axis:    yes    5.291724    9.165536    0.000000    52     0.1763
  3. axis:    no     0.000000    0.000000   28.641350   160     0.1790

  Lengths:  10.583449  10.583449  28.641350
  Angles:   90.000000  90.000000  60.000000

Effective grid spacing dv^(1/3) = 0.1859

     iter     time        total  log10-change:
                         energy  eigst   dens
iter:   1 00:22:35 -12588.378793  -4.48
iter:   2 00:23:18 -12588.378680  -5.23  -4.01c
iter:   3 00:24:01 -12588.378672c -5.73  -4.02c
iter:   4 00:24:45 -12588.378637c -6.10  -4.48c
iter:   5 00:25:28 -12588.378624c -6.38  -4.66c
iter:   6 00:26:11 -12588.378651c -6.68  -4.65c
iter:   7 00:26:54 -12588.378647c -7.04  -4.83c
iter:   8 00:27:37 -12588.378632c -7.39  -4.88c
iter:   9 00:28:20 -12588.378634c -8.02c -5.19c

Converged after 9 iterations.

Dipole moment: (-26.492886, -15.303143, -0.883445) |e|*Ang

Energy contributions relative to reference atoms: (reference = -19807768.740774)

Kinetic:       +1320.404468
Potential:     -1245.259895
External:        +0.000000
XC:            -12664.284965
Entropy (-ST):   -0.878911
Local:           +1.201214
--------------------------
Free energy:   -12588.818089
Extrapolated:  -12588.378634

Showing only first 2 kpts
 Kpt  Band  Eigenvalues  Occupancy
  0   242     -4.44363    1.74084
  0   243     -4.33078    1.36969
  0   244     -4.31199    1.28594
  0   245     -4.22226    0.84671

  1   242     -4.33756    1.39858
  1   243     -4.30484    1.25278
  1   244     -4.29614    1.21162
  1   245     -4.26531    1.06063


Fermi level: -4.25316

No gap

Forces in eV/Ang:
  0 Tl   -0.01303   -0.00068   -0.03729
  1 Tl   -0.02614    0.00233    0.02918
  2 Tl   -0.01093   -0.00923    0.01040
  3 Tl    0.00343   -0.02137    0.07317
  4 Tl   -0.02266    0.02884   -0.11236
  5 Tl   -0.00661    0.02927   -0.02420
  6 Tl   -0.00996    0.00393   -0.01182
  7 Tl    0.01424    0.01197    0.06047
  8 Tl   -0.00385   -0.01182   -0.10069
  9 Tl   -0.01421   -0.00598   -0.01571
 10 Tl   -0.00224   -0.01460   -0.00821
 11 Tl    0.01936   -0.02726    0.09507
 12 Tl    0.01784   -0.01016   -0.09132
 13 Tl    0.02212   -0.00742    0.02440
 14 Tl   -0.00457   -0.01241    0.01821
 15 Tl   -0.53515   -0.18481   -0.29665
 16 Tl    0.00264    0.00711   -0.11686
 17 Tl    0.03481    0.00541    0.04250
 18 Tl    0.00036    0.00235   -0.01880
 19 Tl   -0.02329    0.19571   -0.02056
 20 Tl    0.00094   -0.01409   -0.10866
 21 Tl    0.00416   -0.03250    0.04174
 22 Tl   -0.01666   -0.01412    0.03473
 23 Tl   -0.01340   -0.01454    0.09026
 24 Tl   -0.01258   -0.00586   -0.10520
 25 Tl    0.00388   -0.00372    0.00756
 26 Tl    0.01036   -0.01570    0.02118
 27 Tl    0.19962   -0.06791   -0.01062
 28 Tl    0.01058    0.01997   -0.09703
 29 Tl   -0.04061    0.00566    0.04154
 30 Tl    0.01356    0.00127    0.05224
 31 Tl    0.01356    0.01274    0.04260
 32 Tl    0.00476   -0.02395   -0.11785
 33 Tl   -0.00251    0.00349   -0.02191
 34 Tl    0.01313   -0.00515    0.02507
 35 Tl    0.00679   -0.06449   -0.01400
 36 H     7.75945    8.47426   16.07011
 37 O    -7.82718   -9.92611  -14.31672
 38 C     0.70072    3.73225   -1.85284
 39 C     0.65869    0.18713    5.96144
 40 O    -0.92039   -2.27219   -5.54945

BFGS:  265 00:28:34   -12588.378634        1.6700
System changes: positions 

Initializing position-dependent things.

Density initialized from wave functions
                                                             
                                                             
                                                             
                                                             
                                                             
                                                             
                                                             
                                     O                       
                                  TH       Tl       Tl       
                                  O C                        
                            Tl       Tl       Tl             
                                                             
                      Tl       Tl      Tl                    
                         Tl      Tl       Tl                 
                                                             
                  Tl       Tl       Tl                       
                             Tl       Tl       Tl            
            Tl       Tl       Tl                             
                       Tl       Tl       Tl                  
                                                             
                 Tl       Tl      Tl                         
                    Tl      Tl       Tl                      
             Tl       Tl       Tl                            
                                                             
       Tl       Tl       Tl                                  
                                                             
                                                             
                                                             
                                                             

Positions:
   0 Tl     0.000000    0.000000   10.000000    ( 0.0000,  0.0000,  0.0000)
   1 Tl     3.527816    2.036786   12.880450    ( 0.0000,  0.0000,  0.0000)
   2 Tl     1.764813    1.018915   15.753208    ( 0.0000,  0.0000,  0.0000)
   3 Tl     5.291724    3.055179   18.682936    ( 0.0000,  0.0000,  0.0000)
   4 Tl     1.763908    3.055179   10.000000    ( 0.0000,  0.0000,  0.0000)
   5 Tl     5.291724    5.091964   12.880450    ( 0.0000,  0.0000,  0.0000)
   6 Tl     3.536429    4.068599   15.756428    ( 0.0000,  0.0000,  0.0000)
   7 Tl     7.055234    6.110037   18.676583    ( 0.0000,  0.0000,  0.0000)
   8 Tl     3.527816    6.110357   10.000000    ( 0.0000,  0.0000,  0.0000)
   9 Tl     7.055633    8.147143   12.880450    ( 0.0000,  0.0000,  0.0000)
  10 Tl     5.291724    7.127705   15.753208    ( 0.0000,  0.0000,  0.0000)
  11 Tl     8.819619    9.166041   18.676583    ( 0.0000,  0.0000,  0.0000)
  12 Tl     3.527816    0.000000   10.000000    ( 0.0000,  0.0000,  0.0000)
  13 Tl     7.055633    2.036786   12.880450    ( 0.0000,  0.0000,  0.0000)
  14 Tl     5.291724    1.028338   15.756428    ( 0.0000,  0.0000,  0.0000)
  15 Tl     8.819065    3.054993   18.676583    ( 0.0000,  0.0000,  0.0000)
  16 Tl     5.291724    3.055179   10.000000    ( 0.0000,  0.0000,  0.0000)
  17 Tl     8.819541    5.091964   12.880450    ( 0.0000,  0.0000,  0.0000)
  18 Tl     7.047020    4.068599   15.756428    ( 0.0000,  0.0000,  0.0000)
  19 Tl    10.583449    6.110357   18.680650    ( 0.0000,  0.0000,  0.0000)
  20 Tl     7.055633    6.110357   10.000000    ( 0.0000,  0.0000,  0.0000)
  21 Tl    10.583449    8.147143   12.880450    ( 0.0000,  0.0000,  0.0000)
  22 Tl     8.816138    7.130714   15.755224    ( 0.0000,  0.0000,  0.0000)
  23 Tl    12.347279    9.166041   18.676583    ( 0.0000,  0.0000,  0.0000)
  24 Tl     7.055633    0.000000   10.000000    ( 0.0000,  0.0000,  0.0000)
  25 Tl    10.583449    2.036786   12.880450    ( 0.0000,  0.0000,  0.0000)
  26 Tl     8.818636    1.018915   15.753208    ( 0.0000,  0.0000,  0.0000)
  27 Tl    12.347833    3.054993   18.676583    ( 0.0000,  0.0000,  0.0000)
  28 Tl     8.819541    3.055179   10.000000    ( 0.0000,  0.0000,  0.0000)
  29 Tl    12.347357    5.091964   12.880450    ( 0.0000,  0.0000,  0.0000)
  30 Tl    10.583449    4.069643   15.755224    ( 0.0000,  0.0000,  0.0000)
  31 Tl    14.111664    6.110037   18.676583    ( 0.0000,  0.0000,  0.0000)
  32 Tl    10.583449    6.110357   10.000000    ( 0.0000,  0.0000,  0.0000)
  33 Tl    14.111265    8.147143   12.880450    ( 0.0000,  0.0000,  0.0000)
  34 Tl    12.350760    7.130714   15.755224    ( 0.0000,  0.0000,  0.0000)
  35 Tl    15.875173    9.165536   18.652511    ( 0.0000,  0.0000,  0.0000)
  36 H     10.780360    2.672864   22.178826    ( 0.0000,  0.0000,  0.0000)
  37 O     10.471161    2.366116   21.536238    ( 0.0000,  0.0000,  0.0000)
  38 C     10.319732    3.086724   20.473517    ( 0.0000,  0.0000,  0.0000)
  39 C     10.611364    4.580240   20.535992    ( 0.0000,  0.0000,  0.0000)
  40 O     10.875627    5.135745   21.826913    ( 0.0000,  0.0000,  0.0000)

Unit cell:
           periodic     x           y           z      points  spacing
  1. axis:    yes   10.583449    0.000000    0.000000    52     0.1763
  2. axis:    yes    5.291724    9.165536    0.000000    52     0.1763
  3. axis:    no     0.000000    0.000000   28.641350   160     0.1790

  Lengths:  10.583449  10.583449  28.641350
  Angles:   90.000000  90.000000  60.000000

Effective grid spacing dv^(1/3) = 0.1859

     iter     time        total  log10-change:
                         energy  eigst   dens
iter:   1 00:29:49 -12588.378663  -5.61
iter:   2 00:30:32 -12588.378651  -6.36  -4.68c
iter:   3 00:31:15 -12588.378654c -6.85  -4.75c
iter:   4 00:31:58 -12588.378642c -7.11  -4.85c
iter:   5 00:32:41 -12588.378647c -7.64c -5.26c

Converged after 5 iterations.

Dipole moment: (-26.492841, -15.303090, -0.883626) |e|*Ang

Energy contributions relative to reference atoms: (reference = -19807768.740774)

Kinetic:       +1320.408893
Potential:     -1245.263903
External:        +0.000000
XC:            -12664.285175
Entropy (-ST):   -0.878914
Local:           +1.200995
--------------------------
Free energy:   -12588.818104
Extrapolated:  -12588.378647

Showing only first 2 kpts
 Kpt  Band  Eigenvalues  Occupancy
  0   242     -4.44380    1.74084
  0   243     -4.33095    1.36968
  0   244     -4.31227    1.28643
  0   245     -4.22251    0.84708

  1   242     -4.33772    1.39854
  1   243     -4.30497    1.25259
  1   244     -4.29632    1.21166
  1   245     -4.26546    1.06053


Fermi level: -4.25334

No gap

Forces in eV/Ang:
  0 Tl   -0.01316   -0.00097   -0.03758
  1 Tl   -0.02591    0.00216    0.02895
  2 Tl   -0.01130   -0.00834    0.01209
  3 Tl    0.00031   -0.02168    0.07268
  4 Tl   -0.02266    0.02877   -0.11261
  5 Tl   -0.00610    0.02928   -0.02470
  6 Tl   -0.01142    0.00343   -0.00969
  7 Tl    0.01370    0.01323    0.05993
  8 Tl   -0.00356   -0.01162   -0.10103
  9 Tl   -0.01422   -0.00611   -0.01608
 10 Tl   -0.00222   -0.01412   -0.00785
 11 Tl    0.01839   -0.02597    0.09502
 12 Tl    0.01803   -0.01033   -0.09184
 13 Tl    0.02216   -0.00731    0.02427
 14 Tl   -0.00466   -0.01242    0.01827
 15 Tl   -0.53544   -0.18270   -0.29229
 16 Tl    0.00312    0.00715   -0.11721
 17 Tl    0.03458    0.00525    0.04226
 18 Tl    0.00037    0.00246   -0.02024
 19 Tl   -0.02173    0.19504   -0.02068
 20 Tl    0.00086   -0.01420   -0.10888
 21 Tl    0.00408   -0.03237    0.04140
 22 Tl   -0.01651   -0.01416    0.03484
 23 Tl   -0.01326   -0.01538    0.08939
 24 Tl   -0.01257   -0.00564   -0.10550
 25 Tl    0.00352   -0.00375    0.00786
 26 Tl    0.01113   -0.01570    0.02073
 27 Tl    0.20546   -0.06774   -0.01518
 28 Tl    0.01014    0.01996   -0.09727
 29 Tl   -0.04078    0.00576    0.04145
 30 Tl    0.01443    0.00098    0.05305
 31 Tl    0.01201    0.01165    0.04233
 32 Tl    0.00448   -0.02378   -0.11811
 33 Tl   -0.00242    0.00371   -0.02221
 34 Tl    0.01313   -0.00583    0.02593
 35 Tl    0.00752   -0.06586   -0.01428
 36 H     7.77194    8.47420   16.06904
 37 O    -7.84986   -9.91961  -14.30899
 38 C     0.68708    3.73620   -1.84879
 39 C     0.66022    0.18862    5.96035
 40 O    -0.92408   -2.26947   -5.54985

BFGS:  266 00:32:55   -12588.378647        1.6670
System changes: positions 

Initializing position-dependent things.

Density initialized from wave functions
                                                             
                                                             
                                                             
                                                             
                                                             
                                                             
                                                             
                                     O                       
                                  TH       Tl       Tl       
                                  O C                        
                            Tl       Tl       Tl             
                                                             
                      Tl       Tl      Tl                    
                         Tl      Tl       Tl                 
                                                             
                  Tl       Tl       Tl                       
                             Tl       Tl       Tl            
            Tl       Tl       Tl                             
                       Tl       Tl       Tl                  
                                                             
                 Tl       Tl      Tl                         
                    Tl      Tl       Tl                      
             Tl       Tl       Tl                            
                                                             
       Tl       Tl       Tl                                  
                                                             
                                                             
                                                             
                                                             

Positions:
   0 Tl     0.000000    0.000000   10.000000    ( 0.0000,  0.0000,  0.0000)
   1 Tl     3.527816    2.036786   12.880450    ( 0.0000,  0.0000,  0.0000)
   2 Tl     1.764813    1.018915   15.753208    ( 0.0000,  0.0000,  0.0000)
   3 Tl     5.291724    3.055179   18.682936    ( 0.0000,  0.0000,  0.0000)
   4 Tl     1.763908    3.055179   10.000000    ( 0.0000,  0.0000,  0.0000)
   5 Tl     5.291724    5.091964   12.880450    ( 0.0000,  0.0000,  0.0000)
   6 Tl     3.536429    4.068599   15.756428    ( 0.0000,  0.0000,  0.0000)
   7 Tl     7.055234    6.110037   18.676583    ( 0.0000,  0.0000,  0.0000)
   8 Tl     3.527816    6.110357   10.000000    ( 0.0000,  0.0000,  0.0000)
   9 Tl     7.055633    8.147143   12.880450    ( 0.0000,  0.0000,  0.0000)
  10 Tl     5.291724    7.127705   15.753208    ( 0.0000,  0.0000,  0.0000)
  11 Tl     8.819619    9.166041   18.676583    ( 0.0000,  0.0000,  0.0000)
  12 Tl     3.527816    0.000000   10.000000    ( 0.0000,  0.0000,  0.0000)
  13 Tl     7.055633    2.036786   12.880450    ( 0.0000,  0.0000,  0.0000)
  14 Tl     5.291724    1.028338   15.756428    ( 0.0000,  0.0000,  0.0000)
  15 Tl     8.819065    3.054993   18.676583    ( 0.0000,  0.0000,  0.0000)
  16 Tl     5.291724    3.055179   10.000000    ( 0.0000,  0.0000,  0.0000)
  17 Tl     8.819541    5.091964   12.880450    ( 0.0000,  0.0000,  0.0000)
  18 Tl     7.047020    4.068599   15.756428    ( 0.0000,  0.0000,  0.0000)
  19 Tl    10.583449    6.110357   18.680650    ( 0.0000,  0.0000,  0.0000)
  20 Tl     7.055633    6.110357   10.000000    ( 0.0000,  0.0000,  0.0000)
  21 Tl    10.583449    8.147143   12.880450    ( 0.0000,  0.0000,  0.0000)
  22 Tl     8.816138    7.130714   15.755224    ( 0.0000,  0.0000,  0.0000)
  23 Tl    12.347279    9.166041   18.676583    ( 0.0000,  0.0000,  0.0000)
  24 Tl     7.055633    0.000000   10.000000    ( 0.0000,  0.0000,  0.0000)
  25 Tl    10.583449    2.036786   12.880450    ( 0.0000,  0.0000,  0.0000)
  26 Tl     8.818636    1.018915   15.753208    ( 0.0000,  0.0000,  0.0000)
  27 Tl    12.347833    3.054993   18.676583    ( 0.0000,  0.0000,  0.0000)
  28 Tl     8.819541    3.055179   10.000000    ( 0.0000,  0.0000,  0.0000)
  29 Tl    12.347357    5.091964   12.880450    ( 0.0000,  0.0000,  0.0000)
  30 Tl    10.583449    4.069643   15.755224    ( 0.0000,  0.0000,  0.0000)
  31 Tl    14.111664    6.110037   18.676583    ( 0.0000,  0.0000,  0.0000)
  32 Tl    10.583449    6.110357   10.000000    ( 0.0000,  0.0000,  0.0000)
  33 Tl    14.111265    8.147143   12.880450    ( 0.0000,  0.0000,  0.0000)
  34 Tl    12.350760    7.130714   15.755224    ( 0.0000,  0.0000,  0.0000)
  35 Tl    15.875173    9.165536   18.652511    ( 0.0000,  0.0000,  0.0000)
  36 H     10.781012    2.673796   22.178777    ( 0.0000,  0.0000,  0.0000)
  37 O     10.467272    2.367841   21.537779    ( 0.0000,  0.0000,  0.0000)
  38 C     10.325932    3.086563   20.472284    ( 0.0000,  0.0000,  0.0000)
  39 C     10.610809    4.581321   20.536422    ( 0.0000,  0.0000,  0.0000)
  40 O     10.875450    5.136723   21.827310    ( 0.0000,  0.0000,  0.0000)

Unit cell:
           periodic     x           y           z      points  spacing
  1. axis:    yes   10.583449    0.000000    0.000000    52     0.1763
  2. axis:    yes    5.291724    9.165536    0.000000    52     0.1763
  3. axis:    no     0.000000    0.000000   28.641350   160     0.1790

  Lengths:  10.583449  10.583449  28.641350
  Angles:   90.000000  90.000000  60.000000

Effective grid spacing dv^(1/3) = 0.1859

     iter     time        total  log10-change:
                         energy  eigst   dens
iter:   1 00:34:09 -12588.386423  -3.72
slurmstepd: error: *** JOB 6733454 ON c121 CANCELLED AT 2023-10-07T00:34:16 DUE TO TIME LIMIT ***
slurmstepd: error: *** STEP 6733454.0 ON c121 CANCELLED AT 2023-10-07T00:34:16 DUE TO TIME LIMIT ***
srun: Job step aborted: Waiting up to 32 seconds for job step to finish.
