
  ___ ___ ___ _ _ _  
 |   |   |_  | | | | 
 | | | | | . | | | | 
 |__ |  _|___|_____|  22.8.0
 |___|_|             

User:   s204775@c042.nifl.fysik.dtu.dk
Date:   Fri Sep 29 06:32:59 2023
Arch:   x86_64
Pid:    79385
CWD:    /home/cat/s204775/projects/Bachelor_project/OCCOH_missing_features
Python: 3.10.4
gpaw:   /home/modules/software/GPAW/22.8.0-intel-2022a/lib/python3.10/site-packages/gpaw
_gpaw:  /home/modules/software/GPAW/22.8.0-intel-2022a/lib/python3.10/site-packages/
        _gpaw.cpython-310-x86_64-linux-gnu.so
ase:    /home/modules/software/ASE/3.22.1-intel-2022a/lib/python3.10/site-packages/ase (version 3.22.1)
numpy:  /home/modules/software/SciPy-bundle/2022.05-intel-2022a/lib/python3.10/site-packages/numpy (version 1.22.3)
scipy:  /home/modules/software/SciPy-bundle/2022.05-intel-2022a/lib/python3.10/site-packages/scipy (version 1.8.1)
libxc:  5.2.3
units:  Angstrom and eV
cores: 40
OpenMP: False
OMP_NUM_THREADS: 1

Input parameters:
  basis: dzp
  h: 0.18
  kpts: {size: (4, 4, 1)}
  xc: BEEF-vdW

System changes: positions, numbers, cell, pbc, initial_charges, initial_magmoms 

Initialize ...

species:
  Zn:
    name: Zinc
    id: 9da902d12d12265ad8e0029a903fe3c0
    Z: 30.0
    valence: 12
    core: 18
    charge: 0.0
    file: /home/modules/software/GPAW-setups/0.9.20000/Zn.PBE.gz
    compensation charges: {type: gauss,
                           rc: 0.37,
                           lmax: 2}
    cutoffs: {filter: 2.14,
              core: 2.28}
    valence states:
      #              energy  rcut
      - 4s(2.00)    -5.977   1.286
      - 4p(0.00)    -1.117   1.270
      - 3d(10.00)   -10.142   1.180
      -  s          21.234   1.286
      -  p          26.095   1.270
      -  d          17.070   1.180
  
    # LCAO basis set for Zn:
    #   Name: dzp
    #   File: /home/modules/software/GPAW-setups/0.9.20000/Zn.dzp.basis.gz
    #   Number of radial functions: 7
    #   Number of spherical harmonics: 21
    #     l=0, rc=8.1562 Bohr: 4s-sz confined orbital
    #     l=1, rc=12.4062 Bohr: 4p-sz confined orbital
    #     l=2, rc=4.3594 Bohr: 3d-sz confined orbital
    #     l=0, rc=4.7188 Bohr: 4s-dz split-valence wave
    #     l=1, rc=7.4844 Bohr: 4p-dz split-valence wave
    #     l=2, rc=2.8125 Bohr: 3d-dz split-valence wave
    #     l=1, rc=8.1562 Bohr: p-type Gaussian polarization
    #   Number of RI-basis functions 0

  H:
    name: Hydrogen
    id: d65de229564ff8ea4db303e23b6d1ecf
    Z: 1.0
    valence: 1
    core: 0
    charge: 0.0
    file: /home/modules/software/GPAW-setups/0.9.20000/H.PBE.gz
    compensation charges: {type: gauss,
                           rc: 0.15,
                           lmax: 2}
    cutoffs: {filter: 0.85,
              core: 0.53}
    valence states:
      #              energy  rcut
      - 1s(1.00)    -6.494   0.476
      -  s          20.717   0.476
      -  p           0.000   0.476
  
    # LCAO basis set for H:
    #   Name: dzp
    #   File: /home/modules/software/GPAW-setups/0.9.20000/H.dzp.basis.gz
    #   Number of radial functions: 3
    #   Number of spherical harmonics: 5
    #     l=0, rc=6.4219 Bohr: 1s-sz confined orbital
    #     l=0, rc=3.6094 Bohr: 1s-dz split-valence wave
    #     l=1, rc=6.4219 Bohr: p-type Gaussian polarization
    #   Number of RI-basis functions 0

  O:
    name: Oxygen
    id: 32ecd46bf208036f09c70b0ec9a88b78
    Z: 8.0
    valence: 6
    core: 2
    charge: 0.0
    file: /home/modules/software/GPAW-setups/0.9.20000/O.PBE.gz
    compensation charges: {type: gauss,
                           rc: 0.21,
                           lmax: 2}
    cutoffs: {filter: 1.17,
              core: 0.83}
    valence states:
      #              energy  rcut
      - 2s(2.00)   -23.961   0.688
      - 2p(4.00)    -9.029   0.598
      -  s           3.251   0.688
      -  p          18.182   0.598
      -  d           0.000   0.619
  
    # LCAO basis set for O:
    #   Name: dzp
    #   File: /home/modules/software/GPAW-setups/0.9.20000/O.dzp.basis.gz
    #   Number of radial functions: 5
    #   Number of spherical harmonics: 13
    #     l=0, rc=4.3438 Bohr: 2s-sz confined orbital
    #     l=1, rc=5.3906 Bohr: 2p-sz confined orbital
    #     l=0, rc=2.2969 Bohr: 2s-dz split-valence wave
    #     l=1, rc=2.8906 Bohr: 2p-dz split-valence wave
    #     l=2, rc=5.3906 Bohr: d-type Gaussian polarization
    #   Number of RI-basis functions 0

  C:
    name: Carbon
    id: 4aa54d4b901d75f77cc0ea3eec22967b
    Z: 6.0
    valence: 4
    core: 2
    charge: 0.0
    file: /home/modules/software/GPAW-setups/0.9.20000/C.PBE.gz
    compensation charges: {type: gauss,
                           rc: 0.20,
                           lmax: 2}
    cutoffs: {filter: 1.14,
              core: 1.14}
    valence states:
      #              energy  rcut
      - 2s(2.00)   -13.751   0.635
      - 2p(2.00)    -5.284   0.635
      -  s          13.461   0.635
      -  p          21.927   0.635
      -  d           0.000   0.635
  
    # LCAO basis set for C:
    #   Name: dzp
    #   File: /home/modules/software/GPAW-setups/0.9.20000/C.dzp.basis.gz
    #   Number of radial functions: 5
    #   Number of spherical harmonics: 13
    #     l=0, rc=5.5469 Bohr: 2s-sz confined orbital
    #     l=1, rc=6.6719 Bohr: 2p-sz confined orbital
    #     l=0, rc=3.0312 Bohr: 2s-dz split-valence wave
    #     l=1, rc=3.7500 Bohr: 2p-dz split-valence wave
    #     l=2, rc=6.6719 Bohr: d-type Gaussian polarization
    #   Number of RI-basis functions 0

Reference energy: -1765157.210501  # eV

Spin-paired calculation

Convergence criteria:
 Maximum [total energy] change in last 3 cyles: 0.0005 eV / electron
 Maximum integral of absolute [dens]ity change: 0.0001 electrons / valence electron
 Maximum integral of absolute [eigenst]ate change: 4e-08 eV^2 / valence electron
 Maximum number of scf [iter]ations: 333
 (Square brackets indicate name in SCF output, whereas a 'c' in
 the SCF output indicates the quantity has converged.)

Symmetries present (total): 1

  ( 1  0  0)
  ( 0  1  0)
  ( 0  0  1)

16 k-points: 4 x 4 x 1 Monkhorst-Pack grid
8 k-points in the irreducible part of the Brillouin zone
       k-points in crystal coordinates                weights
   0:     0.12500000   -0.37500000    0.00000000          2/16
   1:     0.12500000   -0.12500000    0.00000000          2/16
   2:     0.12500000    0.12500000    0.00000000          2/16
   3:     0.12500000    0.37500000    0.00000000          2/16
   4:     0.37500000   -0.37500000    0.00000000          2/16
   5:     0.37500000   -0.12500000    0.00000000          2/16
   6:     0.37500000    0.12500000    0.00000000          2/16
   7:     0.37500000    0.37500000    0.00000000          2/16

Wave functions: Uniform real-space grid
  Kinetic energy operator: 8*3+1=25 point O(h^6) finite-difference Laplacian
  ScaLapack parameters: grid=1x1, blocksize=None
  Wavefunction extrapolation:
    Improved wavefunction reuse through dual PAW basis 

Occupation numbers: Fermi-Dirac:
  width: 0.1000  # eV
 

Eigensolver
   Davidson(niter=2) 

Densities:
  Coarse grid: 40*40*148 grid
  Fine grid: 80*80*296 grid
  Total Charge: 0.000000 

Density mixing:
  Method: separate
  Backend: pulay
  Linear mixing parameter: 0.05
  old densities: 5
  Damping of long wavelength oscillations: 50 

Hamiltonian:
  XC and Coulomb potentials evaluated on a 80*80*296 grid
  Using the BEEF-vdW Exchange-Correlation functional
  Interpolation: tri-quintic (5. degree polynomial)
  Poisson solver: FastPoissonSolver using
    Stencil: 8*3+1=25 point O(h^6) finite-difference Laplacian
    FFT axes: [0, 1]
    FST axes: [2]
 

XC parameters: BEEF-vdW with 2 nearest neighbor stencil

Memory estimate:
  Process memory now: 214.50 MiB
  Calculator: 474.78 MiB
    Density: 53.68 MiB
      Arrays: 9.35 MiB
      Localized functions: 40.79 MiB
      Mixer: 3.54 MiB
    Hamiltonian: 8.71 MiB
      Arrays: 6.12 MiB
      XC: 0.00 MiB
      Poisson: 0.00 MiB
      vbar: 2.59 MiB
    Wavefunctions: 412.39 MiB
      Arrays psit_nG: 195.41 MiB
      Eigensolver: 210.58 MiB
      Projections: 0.59 MiB
      Projectors: 5.80 MiB

Total number of cores used: 40
Parallelization over k-points: 8
Domain decomposition: 1 x 1 x 5

Number of atoms: 41
Number of atomic orbitals: 813
Number of bands in calculation: 276
Number of valence electrons: 453
Bands to converge: occupied

... initialized

Initializing position-dependent things.

Density initialized from atomic densities
Creating initial wave functions:
  276 bands from LCAO basis set

                                             
                                             
                                             
                                             
                                             
                                             
                        O                    
                       H                     
               Zn     OnC    Zn              
                 Zn    CZn     Zn            
                                             
           Zn     ZZn    ZZn     Zn          
                                             
             Zn     Zn     Zn                
               Zn     Zn     Zn              
              Zn     Zn     Zn               
                Zn     Zn     Zn             
                                             
          Zn     ZZn    ZZn     Zn           
                                             
            Zn     Zn     Zn                 
              Zn     Zn     Zn               
                                             
                                             
                                             
                                             

Positions:
   0 Zn     0.000000    0.000000   10.000000    ( 0.0000,  0.0000,  0.0000)
   1 Zn     1.414214    0.816497   12.309401    ( 0.0000,  0.0000,  0.0000)
   2 Zn     0.000000    1.628527   14.652990    ( 0.0000,  0.0000,  0.0000)
   3 Zn     1.412823    2.446904   17.071372    ( 0.0000,  0.0000,  0.0000)
   4 Zn    -1.414214    2.449490   10.000000    ( 0.0000,  0.0000,  0.0000)
   5 Zn     0.000000    3.265986   12.309401    ( 0.0000,  0.0000,  0.0000)
   6 Zn    -1.415902    4.081508   14.653527    ( 0.0000,  0.0000,  0.0000)
   7 Zn     0.000000    4.898979   17.084620    ( 0.0000,  0.0000,  0.0000)
   8 Zn    -2.828427    4.898979   10.000000    ( 0.0000,  0.0000,  0.0000)
   9 Zn    -1.414214    5.715476   12.309401    ( 0.0000,  0.0000,  0.0000)
  10 Zn    -2.832295    6.534206   14.652990    ( 0.0000,  0.0000,  0.0000)
  11 Zn    -1.417148    7.348558   17.071372    ( 0.0000,  0.0000,  0.0000)
  12 Zn     2.828427    0.000000   10.000000    ( 0.0000,  0.0000,  0.0000)
  13 Zn     4.242641    0.816497   12.309401    ( 0.0000,  0.0000,  0.0000)
  14 Zn     2.825133    1.631091   14.647504    ( 0.0000,  0.0000,  0.0000)
  15 Zn     4.242641    2.449490   17.082020    ( 0.0000,  0.0000,  0.0000)
  16 Zn     1.414214    2.449490   10.000000    ( 0.0000,  0.0000,  0.0000)
  17 Zn     2.828427    3.265986   12.309401    ( 0.0000,  0.0000,  0.0000)
  18 Zn     1.415902    4.081508   14.653527    ( 0.0000,  0.0000,  0.0000)
  19 Zn     2.829972    4.901477   17.071372    ( 0.0000,  0.0000,  0.0000)
  20 Zn     0.000000    4.898979   10.000000    ( 0.0000,  0.0000,  0.0000)
  21 Zn     1.414214    5.715476   12.309401    ( 0.0000,  0.0000,  0.0000)
  22 Zn     0.000000    6.533922   14.653527    ( 0.0000,  0.0000,  0.0000)
  23 Zn     1.417148    7.348558   17.071372    ( 0.0000,  0.0000,  0.0000)
  24 Zn     5.656854    0.000000   10.000000    ( 0.0000,  0.0000,  0.0000)
  25 Zn     7.071068    0.816497   12.309401    ( 0.0000,  0.0000,  0.0000)
  26 Zn     5.660149    1.631091   14.647504    ( 0.0000,  0.0000,  0.0000)
  27 Zn     7.072458    2.446904   17.071372    ( 0.0000,  0.0000,  0.0000)
  28 Zn     4.242641    2.449490   10.000000    ( 0.0000,  0.0000,  0.0000)
  29 Zn     5.656854    3.265986   12.309401    ( 0.0000,  0.0000,  0.0000)
  30 Zn     4.242641    4.086287   14.647504    ( 0.0000,  0.0000,  0.0000)
  31 Zn     5.655310    4.901477   17.071372    ( 0.0000,  0.0000,  0.0000)
  32 Zn     2.828427    4.898979   10.000000    ( 0.0000,  0.0000,  0.0000)
  33 Zn     4.242641    5.715476   12.309401    ( 0.0000,  0.0000,  0.0000)
  34 Zn     2.832295    6.534206   14.652990    ( 0.0000,  0.0000,  0.0000)
  35 Zn     4.242641    7.348469   17.091774    ( 0.0000,  0.0000,  0.0000)
  36 H      2.894639    2.338896   20.408618    ( 0.0000,  0.0000,  0.0000)
  37 O      2.872122    1.973260   19.616545    ( 0.0000,  0.0000,  0.0000)
  38 C      2.875875    2.839715   18.617452    ( 0.0000,  0.0000,  0.0000)
  39 C      2.802561    4.335683   18.859559    ( 0.0000,  0.0000,  0.0000)
  40 O      2.855114    4.964231   20.142939    ( 0.0000,  0.0000,  0.0000)

Unit cell:
           periodic     x           y           z      points  spacing
  1. axis:    yes    8.485281    0.000000    0.000000    40     0.1837
  2. axis:    yes   -4.242641    7.348469    0.000000    40     0.1837
  3. axis:    no     0.000000    0.000000   26.928203   148     0.1819

  Lengths:   8.485281   8.485281  26.928203
  Angles:   90.000000  90.000000 120.000000

Effective grid spacing dv^(1/3) = 0.1921

     iter     time        total  log10-change:
                         energy  eigst   dens
iter:   1 06:34:03 -2858.411886
iter:   2 06:34:30 -2850.184309  +0.17  -1.27
iter:   3 06:34:57 -2848.090170  -0.15  -1.38
iter:   4 06:35:24 -2848.304359  -0.44  -1.41
iter:   5 06:35:52 -2850.111074  -0.64  -1.43
iter:   6 06:36:19 -2849.424605  -1.10  -1.65
iter:   7 06:36:46 -2850.814339  -1.06  -1.72
iter:   8 06:37:14 -2850.544731  -1.49  -1.91
iter:   9 06:37:41 -2849.537917  -1.61  -2.01
iter:  10 06:38:08 -2849.566997  -2.11  -2.27
iter:  11 06:38:35 -2849.279569  -1.96  -2.27
iter:  12 06:39:03 -2849.319721  -2.61  -2.51
iter:  13 06:39:30 -2849.246563c -2.64  -2.64
iter:  14 06:39:57 -2849.248679c -3.08  -2.81
iter:  15 06:40:24 -2849.252118c -3.33  -2.92
iter:  16 06:40:52 -2849.246836c -3.53  -3.14
iter:  17 06:41:19 -2849.245338c -3.89  -3.16
iter:  18 06:41:46 -2849.245562c -4.14  -3.29
iter:  19 06:42:14 -2849.245281c -4.45  -3.36
iter:  20 06:42:41 -2849.245266c -5.01  -3.45
iter:  21 06:43:08 -2849.245132c -5.20  -3.51
iter:  22 06:43:35 -2849.244815c -5.07  -3.57
iter:  23 06:44:03 -2849.244775c -5.35  -3.71
iter:  24 06:44:30 -2849.244800c -5.59  -3.79
iter:  25 06:44:57 -2849.244788c -6.06  -3.95
iter:  26 06:45:25 -2849.244766c -6.12  -4.08c
iter:  27 06:45:52 -2849.244780c -6.67  -4.38c
iter:  28 06:46:19 -2849.244795c -6.80  -4.46c
iter:  29 06:46:46 -2849.244803c -6.93  -4.69c
iter:  30 06:47:14 -2849.244798c -7.36  -4.77c
iter:  31 06:47:41 -2849.244796c -7.54c -4.83c

Converged after 31 iterations.

Dipole moment: (-3.307595, -5.486029, -0.578890) |e|*Ang

Energy contributions relative to reference atoms: (reference = -1765157.210501)

Kinetic:       +668.149397
Potential:     -564.836605
External:        +0.000000
XC:            -2952.112778
Entropy (-ST):   -0.438939
Local:           -0.225341
--------------------------
Free energy:   -2849.464265
Extrapolated:  -2849.244796

Showing only first 2 kpts
 Kpt  Band  Eigenvalues  Occupancy
  0   224     -5.28193    1.90212
  0   225     -5.09672    1.50609
  0   226     -4.86593    0.46547
  0   227     -4.79012    0.24888

  1   224     -5.01785    1.16169
  1   225     -4.91407    0.65852
  1   226     -4.44880    0.00932
  1   227     -4.21876    0.00094


Fermi level: -4.98523

No gap

Forces in eV/Ang:
  0 Zn    0.00364   -0.01124   -0.18529
  1 Zn    0.02930    0.02099    0.18147
  2 Zn    0.02318    0.05082    0.05961
  3 Zn   -0.43529   -0.19388   -0.05601
  4 Zn   -0.01349    0.02864   -0.22821
  5 Zn    0.03138    0.00168    0.20612
  6 Zn    0.01279   -0.00076   -0.08319
  7 Zn   -0.15132    0.03272   -0.03178
  8 Zn   -0.02401   -0.04585   -0.18516
  9 Zn   -0.00137   -0.00422    0.10632
 10 Zn   -0.00643   -0.01995   -0.09387
 11 Zn    0.02840   -0.32761   -0.10585
 12 Zn    0.01100    0.04412   -0.16687
 13 Zn   -0.04022    0.02048    0.17872
 14 Zn    0.03590    0.01736    0.10536
 15 Zn    0.61766   -0.24071   -0.28347
 16 Zn   -0.00480   -0.01124   -0.14417
 17 Zn   -0.00176   -0.01201    0.13866
 18 Zn    0.01061   -0.00737    0.12878
 19 Zn   -0.00366    1.70188   -2.13451
 20 Zn    0.01160   -0.02631   -0.21155
 21 Zn    0.01544   -0.03111    0.19269
 22 Zn    0.01041   -0.03520   -0.09672
 23 Zn   -0.03944    0.16174    0.02162
 24 Zn   -0.02004    0.00079   -0.19997
 25 Zn    0.00565   -0.02643    0.12361
 26 Zn   -0.06409    0.06885    0.07819
 27 Zn   -0.01034   -0.01141    0.06853
 28 Zn    0.01841   -0.00968   -0.15634
 29 Zn   -0.03194    0.00532    0.20565
 30 Zn   -0.02438   -0.05524    0.14444
 31 Zn    0.15175    0.00842   -0.04073
 32 Zn    0.00978    0.01776   -0.13834
 33 Zn   -0.02017   -0.02639    0.19528
 34 Zn   -0.00068   -0.03999    0.16294
 35 Zn    0.00766    0.15445   -0.03715
 36 H     0.12845    3.06833    6.08025
 37 O    -0.05414   -4.09835   -4.65608
 38 C    -0.48089    2.73685   -0.18992
 39 C     0.64723    0.32713    7.17790
 40 O    -0.35137   -3.25806   -6.13160

      Step     Time          Energy         fmax
BFGS:    0 06:47:54    -2849.244796        7.2144
System changes: positions 

Initializing position-dependent things.

Density initialized from wave functions
                                             
                                             
                                             
                                             
                                             
                                             
                        O                    
                       HC                    
               Zn     On     Zn              
                 Zn    C       Zn            
                        Zn                   
           Zn     ZZn    ZZn     Zn          
                                             
             Zn     Zn     Zn                
               Zn                            
              Zn     ZZn    ZZn              
                Zn     Zn     Zn             
                                             
          Zn     ZZn    ZZn     Zn           
                                             
            Zn     Zn     Zn                 
              Zn     Zn     Zn               
                                             
                                             
                                             
                                             

Positions:
   0 Zn     0.000000    0.000000   10.000000    ( 0.0000,  0.0000,  0.0000)
   1 Zn     1.414214    0.816497   12.309401    ( 0.0000,  0.0000,  0.0000)
   2 Zn     0.000331    1.629253   14.653841    ( 0.0000,  0.0000,  0.0000)
   3 Zn     1.406605    2.444134   17.070572    ( 0.0000,  0.0000,  0.0000)
   4 Zn    -1.414214    2.449490   10.000000    ( 0.0000,  0.0000,  0.0000)
   5 Zn     0.000000    3.265986   12.309401    ( 0.0000,  0.0000,  0.0000)
   6 Zn    -1.415719    4.081497   14.652339    ( 0.0000,  0.0000,  0.0000)
   7 Zn    -0.002162    4.899447   17.084166    ( 0.0000,  0.0000,  0.0000)
   8 Zn    -2.828427    4.898979   10.000000    ( 0.0000,  0.0000,  0.0000)
   9 Zn    -1.414214    5.715476   12.309401    ( 0.0000,  0.0000,  0.0000)
  10 Zn    -2.832387    6.533921   14.651649    ( 0.0000,  0.0000,  0.0000)
  11 Zn    -1.416743    7.343878   17.069860    ( 0.0000,  0.0000,  0.0000)
  12 Zn     2.828427    0.000000   10.000000    ( 0.0000,  0.0000,  0.0000)
  13 Zn     4.242641    0.816497   12.309401    ( 0.0000,  0.0000,  0.0000)
  14 Zn     2.825645    1.631339   14.649009    ( 0.0000,  0.0000,  0.0000)
  15 Zn     4.251464    2.446051   17.077971    ( 0.0000,  0.0000,  0.0000)
  16 Zn     1.414214    2.449490   10.000000    ( 0.0000,  0.0000,  0.0000)
  17 Zn     2.828427    3.265986   12.309401    ( 0.0000,  0.0000,  0.0000)
  18 Zn     1.416054    4.081403   14.655367    ( 0.0000,  0.0000,  0.0000)
  19 Zn     2.829919    4.925789   17.040879    ( 0.0000,  0.0000,  0.0000)
  20 Zn     0.000000    4.898979   10.000000    ( 0.0000,  0.0000,  0.0000)
  21 Zn     1.414214    5.715476   12.309401    ( 0.0000,  0.0000,  0.0000)
  22 Zn     0.000149    6.533420   14.652145    ( 0.0000,  0.0000,  0.0000)
  23 Zn     1.416585    7.350869   17.071681    ( 0.0000,  0.0000,  0.0000)
  24 Zn     5.656854    0.000000   10.000000    ( 0.0000,  0.0000,  0.0000)
  25 Zn     7.071068    0.816497   12.309401    ( 0.0000,  0.0000,  0.0000)
  26 Zn     5.659233    1.632075   14.648621    ( 0.0000,  0.0000,  0.0000)
  27 Zn     7.072311    2.446741   17.072351    ( 0.0000,  0.0000,  0.0000)
  28 Zn     4.242641    2.449490   10.000000    ( 0.0000,  0.0000,  0.0000)
  29 Zn     5.656854    3.265986   12.309401    ( 0.0000,  0.0000,  0.0000)
  30 Zn     4.242292    4.085498   14.649567    ( 0.0000,  0.0000,  0.0000)
  31 Zn     5.657478    4.901597   17.070790    ( 0.0000,  0.0000,  0.0000)
  32 Zn     2.828427    4.898979   10.000000    ( 0.0000,  0.0000,  0.0000)
  33 Zn     4.242641    5.715476   12.309401    ( 0.0000,  0.0000,  0.0000)
  34 Zn     2.832285    6.533634   14.655318    ( 0.0000,  0.0000,  0.0000)
  35 Zn     4.242750    7.350676   17.091243    ( 0.0000,  0.0000,  0.0000)
  36 H      2.896474    2.382730   20.495478    ( 0.0000,  0.0000,  0.0000)
  37 O      2.871348    1.914712   19.550029    ( 0.0000,  0.0000,  0.0000)
  38 C      2.869005    2.878813   18.614738    ( 0.0000,  0.0000,  0.0000)
  39 C      2.811807    4.340357   18.962100    ( 0.0000,  0.0000,  0.0000)
  40 O      2.850094    4.917688   20.055344    ( 0.0000,  0.0000,  0.0000)

Unit cell:
           periodic     x           y           z      points  spacing
  1. axis:    yes    8.485281    0.000000    0.000000    40     0.1837
  2. axis:    yes   -4.242641    7.348469    0.000000    40     0.1837
  3. axis:    no     0.000000    0.000000   26.928203   148     0.1819

  Lengths:   8.485281   8.485281  26.928203
  Angles:   90.000000  90.000000 120.000000

Effective grid spacing dv^(1/3) = 0.1921

     iter     time        total  log10-change:
                         energy  eigst   dens
iter:   1 06:48:57 -2853.410196  -0.56
iter:   2 06:49:25 -2851.997746  -1.23  -2.12
iter:   3 06:49:52 -2851.184056  -1.56  -2.20
iter:   4 06:50:20 -2850.794393  -1.62  -2.30
iter:   5 06:50:47 -2850.651467  -1.71  -2.47
iter:   6 06:51:14 -2850.559958  -2.19  -2.56
iter:   7 06:51:42 -2850.539795c -2.24  -2.81
iter:   8 06:52:09 -2850.520041c -2.50  -2.75
iter:   9 06:52:37 -2850.516768c -2.97  -3.09
iter:  10 06:53:04 -2850.512734c -3.26  -3.13
iter:  11 06:53:32 -2850.510415c -3.49  -3.20
iter:  12 06:53:59 -2850.510925c -3.94  -3.36
iter:  13 06:54:27 -2850.510800c -4.30  -3.38
iter:  14 06:54:54 -2850.511663c -4.29  -3.52
iter:  15 06:55:22 -2850.511588c -4.71  -3.55
iter:  16 06:55:49 -2850.511498c -4.79  -3.69
iter:  17 06:56:17 -2850.511528c -5.08  -3.92
iter:  18 06:56:44 -2850.511540c -5.38  -3.97
iter:  19 06:57:12 -2850.511562c -5.76  -4.18c
iter:  20 06:57:39 -2850.511574c -5.93  -4.26c
iter:  21 06:58:06 -2850.511539c -6.18  -4.41c
iter:  22 06:58:34 -2850.511512c -6.23  -4.43c
iter:  23 06:59:01 -2850.511521c -6.39  -4.41c
iter:  24 06:59:29 -2850.511524c -6.63  -4.67c
iter:  25 06:59:56 -2850.511515c -7.02  -4.92c
iter:  26 07:00:24 -2850.511509c -7.27  -5.04c
iter:  27 07:00:51 -2850.511511c -7.70c -5.19c

Converged after 27 iterations.

Dipole moment: (-3.334986, -5.329903, -0.262898) |e|*Ang

Energy contributions relative to reference atoms: (reference = -1765157.210501)

Kinetic:       +666.536855
Potential:     -564.669136
External:        +0.000000
XC:            -2951.950108
Entropy (-ST):   -0.440340
Local:           -0.208951
--------------------------
Free energy:   -2850.731681
Extrapolated:  -2850.511511

Showing only first 2 kpts
 Kpt  Band  Eigenvalues  Occupancy
  0   224     -4.99340    1.89967
  0   225     -4.80283    1.47588
  0   226     -4.57947    0.46353
  0   227     -4.51472    0.27273

  1   224     -4.70998    1.05334
  1   225     -4.63244    0.67759
  1   226     -4.13778    0.00726
  1   227     -3.93178    0.00093


Fermi level: -4.69931

No gap

Forces in eV/Ang:
  0 Zn    0.00072   -0.00983   -0.18046
  1 Zn    0.02436    0.02234    0.18116
  2 Zn    0.01757    0.05472    0.05744
  3 Zn   -0.32159   -0.06534    0.00631
  4 Zn   -0.01309    0.02651   -0.22467
  5 Zn    0.03206    0.00342    0.20372
  6 Zn    0.01253   -0.00680   -0.07282
  7 Zn   -0.11753    0.03332   -0.03725
  8 Zn   -0.02049   -0.04715   -0.17977
  9 Zn   -0.00170   -0.00916    0.10369
 10 Zn   -0.00980   -0.02309   -0.08182
 11 Zn    0.02775   -0.30360   -0.12197
 12 Zn    0.01190    0.04247   -0.16466
 13 Zn   -0.03613    0.01761    0.17919
 14 Zn    0.03456    0.01958    0.12377
 15 Zn    0.47366   -0.09924   -0.17948
 16 Zn   -0.00330   -0.00997   -0.14200
 17 Zn   -0.00322   -0.01011    0.14002
 18 Zn    0.00091   -0.01102    0.09906
 19 Zn   -0.03162    1.09011   -0.85126
 20 Zn    0.00870   -0.02830   -0.20595
 21 Zn    0.01648   -0.02878    0.19241
 22 Zn    0.01626   -0.03692   -0.08287
 23 Zn   -0.05453    0.15961    0.00722
 24 Zn   -0.01819    0.00303   -0.19678
 25 Zn    0.00588   -0.03429    0.13100
 26 Zn   -0.05569    0.06972    0.07063
 27 Zn   -0.00727   -0.01190    0.05794
 28 Zn    0.01658   -0.00963   -0.15698
 29 Zn   -0.03146    0.00971    0.20492
 30 Zn   -0.01298   -0.05650    0.11197
 31 Zn    0.12050    0.00991   -0.04426
 32 Zn    0.00872    0.01527   -0.13897
 33 Zn   -0.02043   -0.02459    0.19033
 34 Zn   -0.00284   -0.00979    0.11412
 35 Zn    0.02621    0.15985   -0.05270
 36 H    -0.08428   -1.36147   -2.34809
 37 O     0.06749    0.73885    3.95941
 38 C    -0.34934    1.37317   -0.56289
 39 C     0.38148   -0.66806    0.92741
 40 O    -0.18734   -1.00987   -0.98081

BFGS:    1 07:01:04    -2850.511511        4.0283
System changes: positions 

Initializing position-dependent things.

Density initialized from wave functions
                                             
                                             
                                             
                                             
                                             
                                             
                        O                    
                       HC                    
               Zn     On     Zn              
                 Zn    CZn     Zn            
                                             
           Zn     ZZn    ZZn     Zn          
                                             
             Zn     Zn     Zn                
               Zn     Zn     Zn              
              Zn     Zn     Zn               
                Zn     Zn     Zn             
                                             
          Zn     ZZn    ZZn     Zn           
                                             
            Zn     Zn     Zn                 
              Zn     Zn     Zn               
                                             
                                             
                                             
                                             

Positions:
   0 Zn     0.000000    0.000000   10.000000    ( 0.0000,  0.0000,  0.0000)
   1 Zn     1.414214    0.816497   12.309401    ( 0.0000,  0.0000,  0.0000)
   2 Zn     0.000608    1.630076   14.654717    ( 0.0000,  0.0000,  0.0000)
   3 Zn     1.401514    2.442901   17.070550    ( 0.0000,  0.0000,  0.0000)
   4 Zn    -1.414214    2.449490   10.000000    ( 0.0000,  0.0000,  0.0000)
   5 Zn     0.000000    3.265986   12.309401    ( 0.0000,  0.0000,  0.0000)
   6 Zn    -1.415529    4.081405   14.651215    ( 0.0000,  0.0000,  0.0000)
   7 Zn    -0.004007    4.899951   17.083611    ( 0.0000,  0.0000,  0.0000)
   8 Zn    -2.828427    4.898979   10.000000    ( 0.0000,  0.0000,  0.0000)
   9 Zn    -1.414214    5.715476   12.309401    ( 0.0000,  0.0000,  0.0000)
  10 Zn    -2.832529    6.533576   14.650386    ( 0.0000,  0.0000,  0.0000)
  11 Zn    -1.416321    7.339229   17.068041    ( 0.0000,  0.0000,  0.0000)
  12 Zn     2.828427    0.000000   10.000000    ( 0.0000,  0.0000,  0.0000)
  13 Zn     4.242641    0.816497   12.309401    ( 0.0000,  0.0000,  0.0000)
  14 Zn     2.826172    1.631632   14.650851    ( 0.0000,  0.0000,  0.0000)
  15 Zn     4.258918    2.444279   17.075053    ( 0.0000,  0.0000,  0.0000)
  16 Zn     1.414214    2.449490   10.000000    ( 0.0000,  0.0000,  0.0000)
  17 Zn     2.828427    3.265986   12.309401    ( 0.0000,  0.0000,  0.0000)
  18 Zn     1.416086    4.081243   14.656925    ( 0.0000,  0.0000,  0.0000)
  19 Zn     2.829493    4.943472   17.025552    ( 0.0000,  0.0000,  0.0000)
  20 Zn     0.000000    4.898979   10.000000    ( 0.0000,  0.0000,  0.0000)
  21 Zn     1.414214    5.715476   12.309401    ( 0.0000,  0.0000,  0.0000)
  22 Zn     0.000384    6.532863   14.650863    ( 0.0000,  0.0000,  0.0000)
  23 Zn     1.415787    7.353293   17.071818    ( 0.0000,  0.0000,  0.0000)
  24 Zn     5.656854    0.000000   10.000000    ( 0.0000,  0.0000,  0.0000)
  25 Zn     7.071068    0.816497   12.309401    ( 0.0000,  0.0000,  0.0000)
  26 Zn     5.658373    1.633130   14.649706    ( 0.0000,  0.0000,  0.0000)
  27 Zn     7.072195    2.446561   17.073250    ( 0.0000,  0.0000,  0.0000)
  28 Zn     4.242641    2.449490   10.000000    ( 0.0000,  0.0000,  0.0000)
  29 Zn     5.656854    3.265986   12.309401    ( 0.0000,  0.0000,  0.0000)
  30 Zn     4.242074    4.084644   14.651326    ( 0.0000,  0.0000,  0.0000)
  31 Zn     5.659364    4.901744   17.070126    ( 0.0000,  0.0000,  0.0000)
  32 Zn     2.828427    4.898979   10.000000    ( 0.0000,  0.0000,  0.0000)
  33 Zn     4.242641    5.715476   12.309401    ( 0.0000,  0.0000,  0.0000)
  34 Zn     2.832246    6.533429   14.657140    ( 0.0000,  0.0000,  0.0000)
  35 Zn     4.243113    7.353089   17.090473    ( 0.0000,  0.0000,  0.0000)
  36 H      2.895597    2.370442   20.475773    ( 0.0000,  0.0000,  0.0000)
  37 O      2.872142    1.916791   19.593813    ( 0.0000,  0.0000,  0.0000)
  38 C      2.863460    2.902205   18.606907    ( 0.0000,  0.0000,  0.0000)
  39 C      2.818092    4.332104   18.987951    ( 0.0000,  0.0000,  0.0000)
  40 O      2.846944    4.898135   20.030758    ( 0.0000,  0.0000,  0.0000)

Unit cell:
           periodic     x           y           z      points  spacing
  1. axis:    yes    8.485281    0.000000    0.000000    40     0.1837
  2. axis:    yes   -4.242641    7.348469    0.000000    40     0.1837
  3. axis:    no     0.000000    0.000000   26.928203   148     0.1819

  Lengths:   8.485281   8.485281  26.928203
  Angles:   90.000000  90.000000 120.000000

Effective grid spacing dv^(1/3) = 0.1921

     iter     time        total  log10-change:
                         energy  eigst   dens
iter:   1 07:02:06 -2852.133035  -1.37
iter:   2 07:02:34 -2851.116894  -1.81  -2.02
iter:   3 07:03:02 -2850.864887  -2.27  -2.21
iter:   4 07:03:30 -2850.773533  -2.45  -2.61
iter:   5 07:03:57 -2850.740227c -2.48  -2.83
iter:   6 07:04:25 -2850.731794c -2.72  -3.03
iter:   7 07:04:52 -2850.726511c -2.91  -3.09
iter:   8 07:05:20 -2850.726102c -3.23  -3.24
iter:   9 07:05:47 -2850.724815c -3.63  -3.35
iter:  10 07:06:15 -2850.724883c -3.86  -3.55
iter:  11 07:06:42 -2850.725115c -4.04  -3.61
iter:  12 07:07:10 -2850.724936c -4.47  -3.82
iter:  13 07:07:37 -2850.724954c -4.71  -3.84
iter:  14 07:08:05 -2850.724988c -4.99  -4.04c
iter:  15 07:08:32 -2850.725041c -5.21  -4.12c
iter:  16 07:09:00 -2850.725030c -5.26  -4.16c
iter:  17 07:09:27 -2850.725024c -5.70  -4.37c
iter:  18 07:09:55 -2850.725016c -5.73  -4.44c
iter:  19 07:10:22 -2850.725031c -6.07  -4.62c
iter:  20 07:10:50 -2850.725035c -6.38  -4.73c
iter:  21 07:11:17 -2850.725028c -6.43  -4.77c
iter:  22 07:11:45 -2850.725028c -6.81  -4.98c
iter:  23 07:12:12 -2850.725021c -7.04  -5.05c
iter:  24 07:12:40 -2850.725020c -7.31  -5.24c
iter:  25 07:13:07 -2850.725021c -7.34  -5.35c
iter:  26 07:13:35 -2850.725021c -7.83c -5.38c

Converged after 26 iterations.

Dipole moment: (-3.419618, -5.244844, -0.232939) |e|*Ang

Energy contributions relative to reference atoms: (reference = -1765157.210501)

Kinetic:       +671.327893
Potential:     -568.492563
External:        +0.000000
XC:            -2953.137138
Entropy (-ST):   -0.443913
Local:           -0.201256
--------------------------
Free energy:   -2850.946977
Extrapolated:  -2850.725021

Showing only first 2 kpts
 Kpt  Band  Eigenvalues  Occupancy
  0   224     -4.96706    1.90050
  0   225     -4.76352    1.42775
  0   226     -4.55659    0.47914
  0   227     -4.49308    0.28612

  1   224     -4.67505    1.01478
  1   225     -4.61834    0.73751
  1   226     -4.08849    0.00582
  1   227     -3.90562    0.00094


Fermi level: -4.67209

No gap

Forces in eV/Ang:
  0 Zn    0.00119   -0.00800   -0.18005
  1 Zn    0.02237    0.02271    0.18333
  2 Zn    0.01353    0.05746    0.05548
  3 Zn   -0.24308   -0.03188    0.10547
  4 Zn   -0.01204    0.02516   -0.22301
  5 Zn    0.03342    0.00546    0.20448
  6 Zn    0.01280   -0.00895   -0.07685
  7 Zn   -0.10272    0.03719   -0.04025
  8 Zn   -0.02035   -0.04733   -0.17705
  9 Zn   -0.00164   -0.01011    0.10035
 10 Zn   -0.01212   -0.02222   -0.08043
 11 Zn    0.02571   -0.27242   -0.10503
 12 Zn    0.01289    0.04178   -0.16414
 13 Zn   -0.03365    0.01528    0.18045
 14 Zn    0.03191    0.02174    0.12797
 15 Zn    0.37148   -0.06535   -0.04816
 16 Zn   -0.00468   -0.00925   -0.14163
 17 Zn   -0.00412   -0.00885    0.14329
 18 Zn   -0.00276   -0.01454    0.08718
 19 Zn   -0.02131    0.95601   -0.65389
 20 Zn    0.00859   -0.02964   -0.20414
 21 Zn    0.01606   -0.02762    0.19273
 22 Zn    0.01897   -0.03619   -0.07897
 23 Zn   -0.05805    0.15209    0.00829
 24 Zn   -0.01902    0.00461   -0.19645
 25 Zn    0.00505   -0.03804    0.13427
 26 Zn   -0.04782    0.06967    0.06491
 27 Zn   -0.00521   -0.00771    0.05714
 28 Zn    0.01691   -0.00997   -0.15789
 29 Zn   -0.03207    0.01288    0.20707
 30 Zn   -0.00822   -0.05492    0.09949
 31 Zn    0.10759    0.01479   -0.04679
 32 Zn    0.00797    0.01289   -0.14192
 33 Zn   -0.01954   -0.02420    0.18990
 34 Zn   -0.00289    0.00609    0.08387
 35 Zn    0.03491    0.15897   -0.05097
 36 H    -0.03787   -0.54503   -0.70255
 37 O     0.01385    0.64961    1.29266
 38 C    -0.27398    0.14657    0.13956
 39 C     0.22262   -1.85881   -2.08174
 40 O    -0.05760    0.71481    1.92437

BFGS:    2 07:13:48    -2850.725021        2.7997
System changes: positions 

Initializing position-dependent things.

Density initialized from wave functions
                                             
                                             
                                             
                                             
                                             
                                             
                        O                    
                       HC                    
               Zn     On     Zn              
                 Zn    CZn     Zn            
                                             
           Zn     ZZn    ZZn     Zn          
                                             
             Zn     Zn     Zn                
               Zn     Zn     Zn              
              Zn     Zn     Zn               
                Zn     Zn     Zn             
                                             
          Zn     ZZn    ZZn     Zn           
                                             
            Zn     Zn     Zn                 
              Zn     Zn     Zn               
                                             
                                             
                                             
                                             

Positions:
   0 Zn     0.000000    0.000000   10.000000    ( 0.0000,  0.0000,  0.0000)
   1 Zn     1.414214    0.816497   12.309401    ( 0.0000,  0.0000,  0.0000)
   2 Zn     0.000935    1.631301   14.655937    ( 0.0000,  0.0000,  0.0000)
   3 Zn     1.395588    2.441846   17.072111    ( 0.0000,  0.0000,  0.0000)
   4 Zn    -1.414214    2.449490   10.000000    ( 0.0000,  0.0000,  0.0000)
   5 Zn     0.000000    3.265986   12.309401    ( 0.0000,  0.0000,  0.0000)
   6 Zn    -1.415253    4.081232   14.649562    ( 0.0000,  0.0000,  0.0000)
   7 Zn    -0.006374    4.900732   17.082763    ( 0.0000,  0.0000,  0.0000)
   8 Zn    -2.828427    4.898979   10.000000    ( 0.0000,  0.0000,  0.0000)
   9 Zn    -1.414214    5.715476   12.309401    ( 0.0000,  0.0000,  0.0000)
  10 Zn    -2.832773    6.533091   14.648617    ( 0.0000,  0.0000,  0.0000)
  11 Zn    -1.415748    7.333079   17.065665    ( 0.0000,  0.0000,  0.0000)
  12 Zn     2.828427    0.000000   10.000000    ( 0.0000,  0.0000,  0.0000)
  13 Zn     4.242641    0.816497   12.309401    ( 0.0000,  0.0000,  0.0000)
  14 Zn     2.826884    1.632087   14.653582    ( 0.0000,  0.0000,  0.0000)
  15 Zn     4.267824    2.442481   17.073017    ( 0.0000,  0.0000,  0.0000)
  16 Zn     1.414214    2.449490   10.000000    ( 0.0000,  0.0000,  0.0000)
  17 Zn     2.828427    3.265986   12.309401    ( 0.0000,  0.0000,  0.0000)
  18 Zn     1.416061    4.080954   14.658930    ( 0.0000,  0.0000,  0.0000)
  19 Zn     2.828991    4.965791   17.008645    ( 0.0000,  0.0000,  0.0000)
  20 Zn     0.000000    4.898979   10.000000    ( 0.0000,  0.0000,  0.0000)
  21 Zn     1.414214    5.715476   12.309401    ( 0.0000,  0.0000,  0.0000)
  22 Zn     0.000772    6.532074   14.649107    ( 0.0000,  0.0000,  0.0000)
  23 Zn     1.414566    7.356648   17.072006    ( 0.0000,  0.0000,  0.0000)
  24 Zn     5.656854    0.000000   10.000000    ( 0.0000,  0.0000,  0.0000)
  25 Zn     7.071068    0.816497   12.309401    ( 0.0000,  0.0000,  0.0000)
  26 Zn     5.657273    1.634643   14.651162    ( 0.0000,  0.0000,  0.0000)
  27 Zn     7.072064    2.446366   17.074508    ( 0.0000,  0.0000,  0.0000)
  28 Zn     4.242641    2.449490   10.000000    ( 0.0000,  0.0000,  0.0000)
  29 Zn     5.656854    3.265986   12.309401    ( 0.0000,  0.0000,  0.0000)
  30 Zn     4.241851    4.083442   14.653605    ( 0.0000,  0.0000,  0.0000)
  31 Zn     5.661820    4.902031   17.069131    ( 0.0000,  0.0000,  0.0000)
  32 Zn     2.828427    4.898979   10.000000    ( 0.0000,  0.0000,  0.0000)
  33 Zn     4.242641    5.715476   12.309401    ( 0.0000,  0.0000,  0.0000)
  34 Zn     2.832186    6.533422   14.659216    ( 0.0000,  0.0000,  0.0000)
  35 Zn     4.243792    7.356541   17.089372    ( 0.0000,  0.0000,  0.0000)
  36 H      2.894695    2.357939   20.458632    ( 0.0000,  0.0000,  0.0000)
  37 O      2.872670    1.926264   19.630392    ( 0.0000,  0.0000,  0.0000)
  38 C      2.856864    2.915061   18.605646    ( 0.0000,  0.0000,  0.0000)
  39 C      2.824276    4.300772   18.969614    ( 0.0000,  0.0000,  0.0000)
  40 O      2.844649    4.899700   20.047561    ( 0.0000,  0.0000,  0.0000)

Unit cell:
           periodic     x           y           z      points  spacing
  1. axis:    yes    8.485281    0.000000    0.000000    40     0.1837
  2. axis:    yes   -4.242641    7.348469    0.000000    40     0.1837
  3. axis:    no     0.000000    0.000000   26.928203   148     0.1819

  Lengths:   8.485281   8.485281  26.928203
  Angles:   90.000000  90.000000 120.000000

Effective grid spacing dv^(1/3) = 0.1921

     iter     time        total  log10-change:
                         energy  eigst   dens
iter:   1 07:14:51 -2850.978405  -1.47
iter:   2 07:15:18 -2850.898177  -2.11  -2.64
iter:   3 07:15:46 -2850.818933c -2.46  -2.72
iter:   4 07:16:14 -2850.807396c -2.89  -2.86
iter:   5 07:16:41 -2850.798879c -3.00  -2.99
iter:   6 07:17:09 -2850.795267c -2.99  -3.06
iter:   7 07:17:37 -2850.789782c -3.46  -3.19
iter:   8 07:18:04 -2850.789120c -3.79  -3.31
iter:   9 07:18:32 -2850.788378c -4.05  -3.41
iter:  10 07:19:00 -2850.788558c -4.24  -3.77
iter:  11 07:19:27 -2850.788471c -4.74  -3.83
iter:  12 07:19:55 -2850.788431c -5.03  -3.93
iter:  13 07:20:23 -2850.788482c -5.15  -3.99
iter:  14 07:20:51 -2850.788604c -5.24  -4.07c
iter:  15 07:21:18 -2850.788546c -5.63  -4.12c
iter:  16 07:21:46 -2850.788515c -5.79  -4.32c
iter:  17 07:22:14 -2850.788527c -6.05  -4.52c
iter:  18 07:22:41 -2850.788532c -6.66  -4.64c
iter:  19 07:23:09 -2850.788539c -6.70  -4.77c
iter:  20 07:23:37 -2850.788538c -6.90  -4.90c
iter:  21 07:24:04 -2850.788538c -7.29  -5.04c
iter:  22 07:24:32 -2850.788538c -7.64c -5.10c

Converged after 22 iterations.

Dipole moment: (-3.573764, -5.277090, -0.376686) |e|*Ang

Energy contributions relative to reference atoms: (reference = -1765157.210501)

Kinetic:       +669.890435
Potential:     -567.131430
External:        +0.000000
XC:            -2953.127774
Entropy (-ST):   -0.445508
Local:           -0.197016
--------------------------
Free energy:   -2851.011292
Extrapolated:  -2850.788538

Showing only first 2 kpts
 Kpt  Band  Eigenvalues  Occupancy
  0   224     -5.09370    1.89733
  0   225     -4.89017    1.41421
  0   226     -4.69258    0.50151
  0   227     -4.62160    0.28264

  1   224     -4.80960    1.03778
  1   225     -4.74697    0.73140
  1   226     -4.22775    0.00639
  1   227     -4.03606    0.00094


Fermi level: -4.80204

No gap

Forces in eV/Ang:
  0 Zn    0.00140   -0.00731   -0.17973
  1 Zn    0.02343    0.02347    0.18378
  2 Zn    0.00950    0.05524    0.04971
  3 Zn   -0.17861   -0.02403    0.15676
  4 Zn   -0.01236    0.02494   -0.22358
  5 Zn    0.03621    0.00537    0.20677
  6 Zn    0.01174   -0.00988   -0.08176
  7 Zn   -0.09410    0.03733   -0.03546
  8 Zn   -0.02083   -0.04744   -0.17572
  9 Zn   -0.00254   -0.00757    0.09612
 10 Zn   -0.01216   -0.01790   -0.08268
 11 Zn    0.02306   -0.25048   -0.08320
 12 Zn    0.01434    0.04003   -0.16368
 13 Zn   -0.03295    0.01389    0.18040
 14 Zn    0.02806    0.01864    0.11946
 15 Zn    0.27573   -0.05893    0.04410
 16 Zn   -0.00668   -0.00857   -0.14067
 17 Zn   -0.00414   -0.00902    0.14624
 18 Zn   -0.00317   -0.01826    0.08377
 19 Zn   -0.01292    0.85134   -0.47379
 20 Zn    0.00868   -0.02942   -0.20463
 21 Zn    0.01686   -0.02621    0.19394
 22 Zn    0.01799   -0.03130   -0.08099
 23 Zn   -0.05874    0.14371    0.01815
 24 Zn   -0.02030    0.00539   -0.19699
 25 Zn    0.00315   -0.04019    0.13627
 26 Zn   -0.03927    0.06499    0.05445
 27 Zn   -0.00442    0.00132    0.06208
 28 Zn    0.01903   -0.00987   -0.15726
 29 Zn   -0.03443    0.01447    0.20979
 30 Zn   -0.00512   -0.05188    0.09374
 31 Zn    0.10056    0.01457   -0.04266
 32 Zn    0.00816    0.01194   -0.14399
 33 Zn   -0.01959   -0.02502    0.19151
 34 Zn   -0.00187    0.01745    0.06375
 35 Zn    0.04125    0.15994   -0.04045
 36 H     0.02475    0.85146    1.77180
 37 O     0.01893   -0.40772   -1.84668
 38 C    -0.16929   -0.86497    0.45495
 39 C     0.20203    0.33731    0.79310
 40 O    -0.10557   -0.69858   -0.88357

BFGS:    3 07:24:45    -2850.788538        1.9659
System changes: positions 

Initializing position-dependent things.

Density initialized from wave functions
                                             
                                             
                                             
                                             
                                             
                                             
                        O                    
                       HC                    
               Zn     On     Zn              
                 Zn    C       Zn            
                        Zn                   
           Zn     ZZn    ZZn     Zn          
                                             
             Zn     Zn     Zn                
               Zn     Zn     Zn              
              Zn     Zn     Zn               
                Zn     Zn     Zn             
                                             
          Zn     ZZn    ZZn     Zn           
                                             
            Zn     Zn     Zn                 
              Zn     Zn     Zn               
                                             
                                             
                                             
                                             

Positions:
   0 Zn     0.000000    0.000000   10.000000    ( 0.0000,  0.0000,  0.0000)
   1 Zn     1.414214    0.816497   12.309401    ( 0.0000,  0.0000,  0.0000)
   2 Zn     0.001041    1.631897   14.656477    ( 0.0000,  0.0000,  0.0000)
   3 Zn     1.393618    2.441611   17.073743    ( 0.0000,  0.0000,  0.0000)
   4 Zn    -1.414214    2.449490   10.000000    ( 0.0000,  0.0000,  0.0000)
   5 Zn     0.000000    3.265986   12.309401    ( 0.0000,  0.0000,  0.0000)
   6 Zn    -1.415125    4.081126   14.648693    ( 0.0000,  0.0000,  0.0000)
   7 Zn    -0.007386    4.901133   17.082375    ( 0.0000,  0.0000,  0.0000)
   8 Zn    -2.828427    4.898979   10.000000    ( 0.0000,  0.0000,  0.0000)
   9 Zn    -1.414214    5.715476   12.309401    ( 0.0000,  0.0000,  0.0000)
  10 Zn    -2.832904    6.532893   14.647735    ( 0.0000,  0.0000,  0.0000)
  11 Zn    -1.415497    7.330368   17.064740    ( 0.0000,  0.0000,  0.0000)
  12 Zn     2.828427    0.000000   10.000000    ( 0.0000,  0.0000,  0.0000)
  13 Zn     4.242641    0.816497   12.309401    ( 0.0000,  0.0000,  0.0000)
  14 Zn     2.827190    1.632291   14.654879    ( 0.0000,  0.0000,  0.0000)
  15 Zn     4.270868    2.441876   17.073399    ( 0.0000,  0.0000,  0.0000)
  16 Zn     1.414214    2.449490   10.000000    ( 0.0000,  0.0000,  0.0000)
  17 Zn     2.828427    3.265986   12.309401    ( 0.0000,  0.0000,  0.0000)
  18 Zn     1.416025    4.080762   14.659826    ( 0.0000,  0.0000,  0.0000)
  19 Zn     2.828834    4.974903   17.003666    ( 0.0000,  0.0000,  0.0000)
  20 Zn     0.000000    4.898979   10.000000    ( 0.0000,  0.0000,  0.0000)
  21 Zn     1.414214    5.715476   12.309401    ( 0.0000,  0.0000,  0.0000)
  22 Zn     0.000967    6.531732   14.648243    ( 0.0000,  0.0000,  0.0000)
  23 Zn     1.413932    7.358201   17.072185    ( 0.0000,  0.0000,  0.0000)
  24 Zn     5.656854    0.000000   10.000000    ( 0.0000,  0.0000,  0.0000)
  25 Zn     7.071068    0.816497   12.309401    ( 0.0000,  0.0000,  0.0000)
  26 Zn     5.656843    1.635346   14.651757    ( 0.0000,  0.0000,  0.0000)
  27 Zn     7.072017    2.446369   17.075165    ( 0.0000,  0.0000,  0.0000)
  28 Zn     4.242641    2.449490   10.000000    ( 0.0000,  0.0000,  0.0000)
  29 Zn     5.656854    3.265986   12.309401    ( 0.0000,  0.0000,  0.0000)
  30 Zn     4.241796    4.082881   14.654610    ( 0.0000,  0.0000,  0.0000)
  31 Zn     5.662901    4.902188   17.068667    ( 0.0000,  0.0000,  0.0000)
  32 Zn     2.828427    4.898979   10.000000    ( 0.0000,  0.0000,  0.0000)
  33 Zn     4.242641    5.715476   12.309401    ( 0.0000,  0.0000,  0.0000)
  34 Zn     2.832164    6.533603   14.659914    ( 0.0000,  0.0000,  0.0000)
  35 Zn     4.244232    7.358258   17.088920    ( 0.0000,  0.0000,  0.0000)
  36 H      2.894825    2.364158   20.472317    ( 0.0000,  0.0000,  0.0000)
  37 O      2.872901    1.924470   19.616811    ( 0.0000,  0.0000,  0.0000)
  38 C      2.854949    2.906714   18.610017    ( 0.0000,  0.0000,  0.0000)
  39 C      2.826406    4.301450   18.973026    ( 0.0000,  0.0000,  0.0000)
  40 O      2.843614    4.894485   20.042810    ( 0.0000,  0.0000,  0.0000)

Unit cell:
           periodic     x           y           z      points  spacing
  1. axis:    yes    8.485281    0.000000    0.000000    40     0.1837
  2. axis:    yes   -4.242641    7.348469    0.000000    40     0.1837
  3. axis:    no     0.000000    0.000000   26.928203   148     0.1819

  Lengths:   8.485281   8.485281  26.928203
  Angles:   90.000000  90.000000 120.000000

Effective grid spacing dv^(1/3) = 0.1921

     iter     time        total  log10-change:
                         energy  eigst   dens
iter:   1 07:25:47 -2850.860822  -2.34
iter:   2 07:26:15 -2850.858850  -2.97  -3.20
iter:   3 07:26:42 -2850.852527c -3.30  -3.27
iter:   4 07:27:10 -2850.852026c -3.84  -3.42
iter:   5 07:27:37 -2850.850584c -4.07  -3.45
iter:   6 07:28:05 -2850.849990c -3.93  -3.63
iter:   7 07:28:32 -2850.849808c -4.52  -3.76
iter:   8 07:29:00 -2850.849762c -4.82  -4.07c
iter:   9 07:29:27 -2850.849789c -5.17  -4.19c
iter:  10 07:29:55 -2850.849816c -5.61  -4.25c
iter:  11 07:30:23 -2850.849813c -5.85  -4.29c
iter:  12 07:30:50 -2850.849816c -6.16  -4.51c
iter:  13 07:31:18 -2850.849812c -6.61  -4.57c
iter:  14 07:31:45 -2850.849820c -6.66  -4.68c
iter:  15 07:32:13 -2850.849823c -7.09  -4.95c
iter:  16 07:32:40 -2850.849823c -7.49c -4.97c

Converged after 16 iterations.

Dipole moment: (-3.622421, -5.299748, -0.329956) |e|*Ang

Energy contributions relative to reference atoms: (reference = -1765157.210501)

Kinetic:       +669.416476
Potential:     -566.868090
External:        +0.000000
XC:            -2952.977297
Entropy (-ST):   -0.444598
Local:           -0.198613
--------------------------
Free energy:   -2851.072122
Extrapolated:  -2850.849823

Showing only first 2 kpts
 Kpt  Band  Eigenvalues  Occupancy
  0   224     -5.05188    1.89771
  0   225     -4.84901    1.41856
  0   226     -4.64891    0.49607
  0   227     -4.57929    0.28241

  1   224     -4.76554    1.02859
  1   225     -4.70208    0.71904
  1   226     -4.18173    0.00615
  1   227     -3.99469    0.00095


Fermi level: -4.75982

No gap

Forces in eV/Ang:
  0 Zn    0.00069   -0.00704   -0.17999
  1 Zn    0.02424    0.02463    0.18480
  2 Zn    0.01021    0.05403    0.04887
  3 Zn   -0.16775   -0.01012    0.14898
  4 Zn   -0.01203    0.02478   -0.22363
  5 Zn    0.03660    0.00477    0.20593
  6 Zn    0.01129   -0.00894   -0.07792
  7 Zn   -0.08793    0.03378   -0.03322
  8 Zn   -0.02020   -0.04755   -0.17565
  9 Zn   -0.00255   -0.00778    0.09528
 10 Zn   -0.01221   -0.01786   -0.08145
 11 Zn    0.02201   -0.24746   -0.08878
 12 Zn    0.01437    0.03989   -0.16359
 13 Zn   -0.03377    0.01498    0.18044
 14 Zn    0.02667    0.01752    0.11700
 15 Zn    0.25730   -0.04391    0.04633
 16 Zn   -0.00647   -0.00836   -0.14093
 17 Zn   -0.00396   -0.00951    0.14771
 18 Zn   -0.00225   -0.01863    0.08070
 19 Zn   -0.00932    0.78872   -0.39050
 20 Zn    0.00828   -0.02937   -0.20485
 21 Zn    0.01759   -0.02669    0.19372
 22 Zn    0.01763   -0.03037   -0.07974
 23 Zn   -0.05864    0.14381    0.01658
 24 Zn   -0.01978    0.00513   -0.19677
 25 Zn    0.00292   -0.03975    0.13783
 26 Zn   -0.03789    0.06243    0.05274
 27 Zn   -0.00359    0.00157    0.06034
 28 Zn    0.01844   -0.00981   -0.15696
 29 Zn   -0.03495    0.01406    0.20887
 30 Zn   -0.00484   -0.05028    0.08962
 31 Zn    0.09325    0.01191   -0.04025
 32 Zn    0.00790    0.01209   -0.14415
 33 Zn   -0.02018   -0.02592    0.19234
 34 Zn   -0.00178    0.02050    0.05860
 35 Zn    0.04433    0.16404   -0.04158
 36 H    -0.01076    0.12493    0.43010
 37 O     0.03520    0.11323   -0.16115
 38 C    -0.14992   -0.50177    0.14089
 39 C     0.16833   -0.04508    0.15438
 40 O    -0.08852   -0.42783   -0.34924

BFGS:    4 07:32:53    -2850.849823        0.8801
System changes: positions 

Initializing position-dependent things.

Density initialized from wave functions
                                             
                                             
                                             
                                             
                                             
                                             
                        O                    
                       HC                    
               Zn     On     Zn              
                 Zn    C       Zn            
                        Zn                   
           Zn     ZZn    ZZn     Zn          
                                             
             Zn     Zn     Zn                
               Zn     Zn     Zn              
              Zn     Zn     Zn               
                Zn     Zn     Zn             
                                             
          Zn     ZZn    ZZn     Zn           
                                             
            Zn     Zn     Zn                 
              Zn     Zn     Zn               
                                             
                                             
                                             
                                             

Positions:
   0 Zn     0.000000    0.000000   10.000000    ( 0.0000,  0.0000,  0.0000)
   1 Zn     1.414214    0.816497   12.309401    ( 0.0000,  0.0000,  0.0000)
   2 Zn     0.001433    1.633820   14.658255    ( 0.0000,  0.0000,  0.0000)
   3 Zn     1.386850    2.440883   17.078410    ( 0.0000,  0.0000,  0.0000)
   4 Zn    -1.414214    2.449490   10.000000    ( 0.0000,  0.0000,  0.0000)
   5 Zn     0.000000    3.265986   12.309401    ( 0.0000,  0.0000,  0.0000)
   6 Zn    -1.414715    4.080814   14.645949    ( 0.0000,  0.0000,  0.0000)
   7 Zn    -0.010672    4.902355   17.081152    ( 0.0000,  0.0000,  0.0000)
   8 Zn    -2.828427    4.898979   10.000000    ( 0.0000,  0.0000,  0.0000)
   9 Zn    -1.414214    5.715476   12.309401    ( 0.0000,  0.0000,  0.0000)
  10 Zn    -2.833325    6.532231   14.644866    ( 0.0000,  0.0000,  0.0000)
  11 Zn    -1.414684    7.321378   17.061490    ( 0.0000,  0.0000,  0.0000)
  12 Zn     2.828427    0.000000   10.000000    ( 0.0000,  0.0000,  0.0000)
  13 Zn     4.242641    0.816497   12.309401    ( 0.0000,  0.0000,  0.0000)
  14 Zn     2.828182    1.632939   14.659070    ( 0.0000,  0.0000,  0.0000)
  15 Zn     4.281191    2.439952   17.073920    ( 0.0000,  0.0000,  0.0000)
  16 Zn     1.414214    2.449490   10.000000    ( 0.0000,  0.0000,  0.0000)
  17 Zn     2.828427    3.265986   12.309401    ( 0.0000,  0.0000,  0.0000)
  18 Zn     1.415950    4.080151   14.662768    ( 0.0000,  0.0000,  0.0000)
  19 Zn     2.828378    5.004782   16.986552    ( 0.0000,  0.0000,  0.0000)
  20 Zn     0.000000    4.898979   10.000000    ( 0.0000,  0.0000,  0.0000)
  21 Zn     1.414214    5.715476   12.309401    ( 0.0000,  0.0000,  0.0000)
  22 Zn     0.001590    6.530614   14.645426    ( 0.0000,  0.0000,  0.0000)
  23 Zn     1.411890    7.363336   17.072716    ( 0.0000,  0.0000,  0.0000)
  24 Zn     5.656854    0.000000   10.000000    ( 0.0000,  0.0000,  0.0000)
  25 Zn     7.071068    0.816497   12.309401    ( 0.0000,  0.0000,  0.0000)
  26 Zn     5.655405    1.637609   14.653729    ( 0.0000,  0.0000,  0.0000)
  27 Zn     7.071867    2.446342   17.077276    ( 0.0000,  0.0000,  0.0000)
  28 Zn     4.242641    2.449490   10.000000    ( 0.0000,  0.0000,  0.0000)
  29 Zn     5.656854    3.265986   12.309401    ( 0.0000,  0.0000,  0.0000)
  30 Zn     4.241582    4.081066   14.657900    ( 0.0000,  0.0000,  0.0000)
  31 Zn     5.666371    4.902630   17.067198    ( 0.0000,  0.0000,  0.0000)
  32 Zn     2.828427    4.898979   10.000000    ( 0.0000,  0.0000,  0.0000)
  33 Zn     4.242641    5.715476   12.309401    ( 0.0000,  0.0000,  0.0000)
  34 Zn     2.832093    6.534146   14.662288    ( 0.0000,  0.0000,  0.0000)
  35 Zn     4.245672    7.363961   17.087395    ( 0.0000,  0.0000,  0.0000)
  36 H      2.894388    2.366848   20.484793    ( 0.0000,  0.0000,  0.0000)
  37 O      2.873987    1.928243   19.616914    ( 0.0000,  0.0000,  0.0000)
  38 C      2.848394    2.895618   18.614988    ( 0.0000,  0.0000,  0.0000)
  39 C      2.833426    4.291800   18.975143    ( 0.0000,  0.0000,  0.0000)
  40 O      2.840245    4.881265   20.035347    ( 0.0000,  0.0000,  0.0000)

Unit cell:
           periodic     x           y           z      points  spacing
  1. axis:    yes    8.485281    0.000000    0.000000    40     0.1837
  2. axis:    yes   -4.242641    7.348469    0.000000    40     0.1837
  3. axis:    no     0.000000    0.000000   26.928203   148     0.1819

  Lengths:   8.485281   8.485281  26.928203
  Angles:   90.000000  90.000000 120.000000

Effective grid spacing dv^(1/3) = 0.1921

     iter     time        total  log10-change:
                         energy  eigst   dens
iter:   1 07:33:55 -2850.985077  -1.94
iter:   2 07:34:23 -2850.927169  -2.44  -2.54
iter:   3 07:34:51 -2850.910910c -2.84  -2.81
iter:   4 07:35:18 -2850.905644c -3.23  -3.12
iter:   5 07:35:46 -2850.903393c -3.44  -3.34
iter:   6 07:36:13 -2850.902807c -3.68  -3.54
iter:   7 07:36:41 -2850.902640c -3.91  -3.61
iter:   8 07:37:09 -2850.902649c -4.29  -3.84
iter:   9 07:37:36 -2850.902517c -4.74  -3.93
iter:  10 07:38:04 -2850.902547c -4.95  -4.12c
iter:  11 07:38:32 -2850.902541c -5.38  -4.23c
iter:  12 07:38:59 -2850.902577c -5.63  -4.31c
iter:  13 07:39:27 -2850.902588c -5.96  -4.48c
iter:  14 07:39:55 -2850.902588c -6.27  -4.53c
iter:  15 07:40:22 -2850.902584c -6.58  -4.66c
iter:  16 07:40:50 -2850.902583c -6.85  -4.79c
iter:  17 07:41:17 -2850.902583c -7.04  -4.85c
iter:  18 07:41:45 -2850.902580c -7.26  -5.04c
iter:  19 07:42:13 -2850.902579c -7.63c -5.21c

Converged after 19 iterations.

Dipole moment: (-3.805720, -5.348960, -0.290896) |e|*Ang

Energy contributions relative to reference atoms: (reference = -1765157.210501)

Kinetic:       +669.798966
Potential:     -567.220813
External:        +0.000000
XC:            -2953.065166
Entropy (-ST):   -0.443585
Local:           -0.193773
--------------------------
Free energy:   -2851.124372
Extrapolated:  -2850.902579

Showing only first 2 kpts
 Kpt  Band  Eigenvalues  Occupancy
  0   224     -5.01652    1.89742
  0   225     -4.81255    1.41281
  0   226     -4.61476    0.49951
  0   227     -4.54244    0.27812

  1   224     -4.73220    1.03721
  1   225     -4.65907    0.68287
  1   226     -4.13796    0.00564
  1   227     -3.96146    0.00097


Fermi level: -4.72476

No gap

Forces in eV/Ang:
  0 Zn   -0.00000   -0.00600   -0.18081
  1 Zn    0.02500    0.02649    0.18808
  2 Zn    0.01021    0.05158    0.04282
  3 Zn   -0.12469    0.01607    0.15594
  4 Zn   -0.01133    0.02468   -0.22397
  5 Zn    0.03795    0.00398    0.20578
  6 Zn    0.01028   -0.00801   -0.07545
  7 Zn   -0.06765    0.02604   -0.02709
  8 Zn   -0.01924   -0.04800   -0.17492
  9 Zn   -0.00263   -0.00764    0.09260
 10 Zn   -0.01181   -0.01460   -0.08038
 11 Zn    0.01953   -0.22622   -0.09147
 12 Zn    0.01508    0.03944   -0.16376
 13 Zn   -0.03351    0.01569    0.18078
 14 Zn    0.02119    0.01463    0.11286
 15 Zn    0.18796   -0.01701    0.08797
 16 Zn   -0.00662   -0.00728   -0.14184
 17 Zn   -0.00366   -0.00947    0.15076
 18 Zn   -0.00009   -0.02233    0.07437
 19 Zn   -0.00533    0.61924   -0.19202
 20 Zn    0.00790   -0.02977   -0.20531
 21 Zn    0.01956   -0.02635    0.19368
 22 Zn    0.01573   -0.02566   -0.07863
 23 Zn   -0.06157    0.14056    0.01697
 24 Zn   -0.01983    0.00508   -0.19612
 25 Zn    0.00141   -0.04054    0.14465
 26 Zn   -0.03091    0.05565    0.04232
 27 Zn   -0.00122    0.00714    0.06024
 28 Zn    0.01767   -0.00964   -0.15653
 29 Zn   -0.03648    0.01399    0.20877
 30 Zn   -0.00352   -0.04602    0.08022
 31 Zn    0.07189    0.00649   -0.03432
 32 Zn    0.00708    0.01101   -0.14511
 33 Zn   -0.02181   -0.02730    0.19467
 34 Zn   -0.00086    0.03503    0.02999
 35 Zn    0.05576    0.17103   -0.03902
 36 H    -0.01686   -0.08079   -0.02609
 37 O     0.03703    0.07987    0.48085
 38 C    -0.10080   -0.31542   -0.15533
 39 C     0.07885   -0.23629   -0.53863
 40 O    -0.02280   -0.12584    0.22261

BFGS:    5 07:42:26    -2850.902579        0.6484
System changes: positions 

Initializing position-dependent things.

Density initialized from wave functions
                                             
                                             
                                             
                                             
                                             
                                             
                        O                    
                       H                     
               Zn     OnC    Zn              
                 Zn    C                     
                        Zn     Zn            
                   Zn    ZZn     Zn          
           Zn     Zn                         
             Zn     Zn     Zn                
               Zn     Zn     Zn              
              Zn     Zn     Zn               
                Zn     Zn     Zn             
                                             
          Zn     ZZn    ZZn     Zn           
                                             
            Zn     Zn     Zn                 
              Zn     Zn     Zn               
                                             
                                             
                                             
                                             

Positions:
   0 Zn     0.000000    0.000000   10.000000    ( 0.0000,  0.0000,  0.0000)
   1 Zn     1.414214    0.816497   12.309401    ( 0.0000,  0.0000,  0.0000)
   2 Zn     0.002392    1.638475   14.662428    ( 0.0000,  0.0000,  0.0000)
   3 Zn     1.371634    2.439902   17.090204    ( 0.0000,  0.0000,  0.0000)
   4 Zn    -1.414214    2.449490   10.000000    ( 0.0000,  0.0000,  0.0000)
   5 Zn     0.000000    3.265986   12.309401    ( 0.0000,  0.0000,  0.0000)
   6 Zn    -1.413739    4.080073   14.639249    ( 0.0000,  0.0000,  0.0000)
   7 Zn    -0.018113    4.905120   17.078345    ( 0.0000,  0.0000,  0.0000)
   8 Zn    -2.828427    4.898979   10.000000    ( 0.0000,  0.0000,  0.0000)
   9 Zn    -1.414214    5.715476   12.309401    ( 0.0000,  0.0000,  0.0000)
  10 Zn    -2.834348    6.530715   14.637822    ( 0.0000,  0.0000,  0.0000)
  11 Zn    -1.412764    7.299935   17.053440    ( 0.0000,  0.0000,  0.0000)
  12 Zn     2.828427    0.000000   10.000000    ( 0.0000,  0.0000,  0.0000)
  13 Zn     4.242641    0.816497   12.309401    ( 0.0000,  0.0000,  0.0000)
  14 Zn     2.830444    1.634434   14.669248    ( 0.0000,  0.0000,  0.0000)
  15 Zn     4.304274    2.436039   17.076671    ( 0.0000,  0.0000,  0.0000)
  16 Zn     1.414214    2.449490   10.000000    ( 0.0000,  0.0000,  0.0000)
  17 Zn     2.828427    3.265986   12.309401    ( 0.0000,  0.0000,  0.0000)
  18 Zn     1.415835    4.078518   14.669823    ( 0.0000,  0.0000,  0.0000)
  19 Zn     2.827386    5.072911   16.950877    ( 0.0000,  0.0000,  0.0000)
  20 Zn     0.000000    4.898979   10.000000    ( 0.0000,  0.0000,  0.0000)
  21 Zn     1.414214    5.715476   12.309401    ( 0.0000,  0.0000,  0.0000)
  22 Zn     0.003059    6.528022   14.638507    ( 0.0000,  0.0000,  0.0000)
  23 Zn     1.406761    7.375874   17.074061    ( 0.0000,  0.0000,  0.0000)
  24 Zn     5.656854    0.000000   10.000000    ( 0.0000,  0.0000,  0.0000)
  25 Zn     7.071068    0.816497   12.309401    ( 0.0000,  0.0000,  0.0000)
  26 Zn     5.652100    1.642959   14.658234    ( 0.0000,  0.0000,  0.0000)
  27 Zn     7.071575    2.446473   17.082493    ( 0.0000,  0.0000,  0.0000)
  28 Zn     4.242641    2.449490   10.000000    ( 0.0000,  0.0000,  0.0000)
  29 Zn     5.656854    3.265986   12.309401    ( 0.0000,  0.0000,  0.0000)
  30 Zn     4.241102    4.076735   14.665709    ( 0.0000,  0.0000,  0.0000)
  31 Zn     5.674235    4.903544   17.063775    ( 0.0000,  0.0000,  0.0000)
  32 Zn     2.828427    4.898979   10.000000    ( 0.0000,  0.0000,  0.0000)
  33 Zn     4.242641    5.715476   12.309401    ( 0.0000,  0.0000,  0.0000)
  34 Zn     2.831952    6.535965   14.667193    ( 0.0000,  0.0000,  0.0000)
  35 Zn     4.249596    7.378239   17.083745    ( 0.0000,  0.0000,  0.0000)
  36 H      2.893315    2.371226   20.508583    ( 0.0000,  0.0000,  0.0000)
  37 O      2.876722    1.932705   19.628575    ( 0.0000,  0.0000,  0.0000)
  38 C      2.833965    2.872150   18.618565    ( 0.0000,  0.0000,  0.0000)
  39 C      2.847943    4.268095   18.967374    ( 0.0000,  0.0000,  0.0000)
  40 O      2.833871    4.853786   20.026481    ( 0.0000,  0.0000,  0.0000)

Unit cell:
           periodic     x           y           z      points  spacing
  1. axis:    yes    8.485281    0.000000    0.000000    40     0.1837
  2. axis:    yes   -4.242641    7.348469    0.000000    40     0.1837
  3. axis:    no     0.000000    0.000000   26.928203   148     0.1819

  Lengths:   8.485281   8.485281  26.928203
  Angles:   90.000000  90.000000 120.000000

Effective grid spacing dv^(1/3) = 0.1921

     iter     time        total  log10-change:
                         energy  eigst   dens
iter:   1 07:43:28 -2851.136225  -1.28
iter:   2 07:43:56 -2851.023763  -1.79  -2.34
iter:   3 07:44:23 -2850.991912c -2.17  -2.63
iter:   4 07:44:51 -2850.970940c -2.54  -2.87
iter:   5 07:45:18 -2850.971231c -2.91  -3.19
iter:   6 07:45:46 -2850.970552c -3.17  -3.26
iter:   7 07:46:14 -2850.970797c -3.31  -3.41
iter:   8 07:46:41 -2850.970447c -3.71  -3.56
iter:   9 07:47:09 -2850.970393c -4.13  -3.72
iter:  10 07:47:37 -2850.970590c -4.42  -3.83
iter:  11 07:48:04 -2850.970549c -4.76  -4.00
iter:  12 07:48:32 -2850.970529c -5.12  -4.13c
iter:  13 07:48:59 -2850.970555c -5.45  -4.21c
iter:  14 07:49:27 -2850.970563c -5.76  -4.31c
iter:  15 07:49:55 -2850.970562c -6.12  -4.53c
iter:  16 07:50:22 -2850.970562c -6.39  -4.60c
iter:  17 07:50:50 -2850.970560c -6.56  -4.68c
iter:  18 07:51:18 -2850.970562c -6.77  -4.79c
iter:  19 07:51:45 -2850.970562c -7.15  -4.91c
iter:  20 07:52:13 -2850.970558c -7.14  -5.00c
iter:  21 07:52:40 -2850.970559c -7.56c -5.25c

Converged after 21 iterations.

Dipole moment: (-4.265498, -5.472932, -0.266286) |e|*Ang

Energy contributions relative to reference atoms: (reference = -1765157.210501)

Kinetic:       +669.397079
Potential:     -566.946848
External:        +0.000000
XC:            -2953.008906
Entropy (-ST):   -0.441194
Local:           -0.191287
--------------------------
Free energy:   -2851.191155
Extrapolated:  -2850.970559

Showing only first 2 kpts
 Kpt  Band  Eigenvalues  Occupancy
  0   224     -4.99283    1.89580
  0   225     -4.78765    1.40080
  0   226     -4.59634    0.51315
  0   227     -4.51308    0.26101

  1   224     -4.71608    1.06667
  1   225     -4.62050    0.61057
  1   226     -4.10067    0.00484
  1   227     -3.94252    0.00100


Fermi level: -4.70273

No gap

Forces in eV/Ang:
  0 Zn   -0.00069   -0.00324   -0.18311
  1 Zn    0.02827    0.03184    0.19466
  2 Zn    0.01048    0.04718    0.02985
  3 Zn   -0.04780    0.05106    0.16764
  4 Zn   -0.00981    0.02397   -0.22487
  5 Zn    0.04314    0.00201    0.20561
  6 Zn    0.00669   -0.00526   -0.06906
  7 Zn   -0.02439    0.00887   -0.01400
  8 Zn   -0.01786   -0.04885   -0.17344
  9 Zn   -0.00312   -0.00613    0.08468
 10 Zn   -0.01128   -0.00834   -0.07818
 11 Zn    0.02117   -0.17044   -0.08869
 12 Zn    0.01639    0.03901   -0.16356
 13 Zn   -0.03437    0.01886    0.18143
 14 Zn    0.00697    0.00621    0.09734
 15 Zn    0.04140    0.03084    0.16066
 16 Zn   -0.00777   -0.00596   -0.14279
 17 Zn   -0.00296   -0.00992    0.15900
 18 Zn    0.00701   -0.02919    0.06102
 19 Zn    0.01402    0.28043    0.19874
 20 Zn    0.00749   -0.03050   -0.20639
 21 Zn    0.02484   -0.02713    0.19467
 22 Zn    0.01205   -0.01491   -0.07574
 23 Zn   -0.07166    0.13287    0.02023
 24 Zn   -0.02058    0.00551   -0.19561
 25 Zn   -0.00178   -0.04155    0.15755
 26 Zn   -0.01339    0.03994    0.01914
 27 Zn    0.00541    0.02110    0.05972
 28 Zn    0.01686   -0.00988   -0.15497
 29 Zn   -0.04178    0.01366    0.20907
 30 Zn   -0.00186   -0.03318    0.05998
 31 Zn    0.02767   -0.00571   -0.02467
 32 Zn    0.00555    0.00905   -0.14743
 33 Zn   -0.02608   -0.03210    0.20150
 34 Zn    0.00104    0.07310   -0.04482
 35 Zn    0.07938    0.17114   -0.02412
 36 H    -0.02429   -0.21158   -0.50815
 37 O     0.02652   -0.05689    1.07005
 38 C     0.05131   -0.12044   -0.44360
 39 C    -0.10439   -0.07486   -0.84021
 40 O     0.03448   -0.01148    0.32241

BFGS:    6 07:52:54    -2850.970559        1.0719
System changes: positions 

Initializing position-dependent things.

Density initialized from wave functions
                                             
                                             
                                             
                                             
                                             
                                             
                        O                    
                       H                     
               Zn     OnC    Zn              
                       C                     
                 Zn     Zn     Zn            
                   Zn    ZZn     Zn          
           Zn     Zn                         
             Zn     Zn     Zn                
               Zn     Zn                     
              Zn     Zn     ZZn              
                Zn     Zn     Zn             
                                             
          Zn     ZZn    ZZn     Zn           
                                             
            Zn     Zn     Zn                 
              Zn     Zn     Zn               
                                             
                                             
                                             
                                             

Positions:
   0 Zn     0.000000    0.000000   10.000000    ( 0.0000,  0.0000,  0.0000)
   1 Zn     1.414214    0.816497   12.309401    ( 0.0000,  0.0000,  0.0000)
   2 Zn     0.003225    1.642435   14.665757    ( 0.0000,  0.0000,  0.0000)
   3 Zn     1.360393    2.439969   17.100987    ( 0.0000,  0.0000,  0.0000)
   4 Zn    -1.414214    2.449490   10.000000    ( 0.0000,  0.0000,  0.0000)
   5 Zn     0.000000    3.265986   12.309401    ( 0.0000,  0.0000,  0.0000)
   6 Zn    -1.412970    4.079486   14.633531    ( 0.0000,  0.0000,  0.0000)
   7 Zn    -0.023564    4.907135   17.076209    ( 0.0000,  0.0000,  0.0000)
   8 Zn    -2.828427    4.898979   10.000000    ( 0.0000,  0.0000,  0.0000)
   9 Zn    -1.414214    5.715476   12.309401    ( 0.0000,  0.0000,  0.0000)
  10 Zn    -2.835231    6.529548   14.631714    ( 0.0000,  0.0000,  0.0000)
  11 Zn    -1.411069    7.282559   17.046511    ( 0.0000,  0.0000,  0.0000)
  12 Zn     2.828427    0.000000   10.000000    ( 0.0000,  0.0000,  0.0000)
  13 Zn     4.242641    0.816497   12.309401    ( 0.0000,  0.0000,  0.0000)
  14 Zn     2.832080    1.635542   14.677773    ( 0.0000,  0.0000,  0.0000)
  15 Zn     4.320684    2.433822   17.081136    ( 0.0000,  0.0000,  0.0000)
  16 Zn     1.414214    2.449490   10.000000    ( 0.0000,  0.0000,  0.0000)
  17 Zn     2.828427    3.265986   12.309401    ( 0.0000,  0.0000,  0.0000)
  18 Zn     1.415893    4.076917   14.675654    ( 0.0000,  0.0000,  0.0000)
  19 Zn     2.826987    5.124049   16.929596    ( 0.0000,  0.0000,  0.0000)
  20 Zn     0.000000    4.898979   10.000000    ( 0.0000,  0.0000,  0.0000)
  21 Zn     1.414214    5.715476   12.309401    ( 0.0000,  0.0000,  0.0000)
  22 Zn     0.004255    6.526019   14.632527    ( 0.0000,  0.0000,  0.0000)
  23 Zn     1.402044    7.386629   17.075329    ( 0.0000,  0.0000,  0.0000)
  24 Zn     5.656854    0.000000   10.000000    ( 0.0000,  0.0000,  0.0000)
  25 Zn     7.071068    0.816497   12.309401    ( 0.0000,  0.0000,  0.0000)
  26 Zn     5.649645    1.647256   14.661600    ( 0.0000,  0.0000,  0.0000)
  27 Zn     7.071476    2.446935   17.087048    ( 0.0000,  0.0000,  0.0000)
  28 Zn     4.242641    2.449490   10.000000    ( 0.0000,  0.0000,  0.0000)
  29 Zn     5.656854    3.265986   12.309401    ( 0.0000,  0.0000,  0.0000)
  30 Zn     4.240734    4.073254   14.672030    ( 0.0000,  0.0000,  0.0000)
  31 Zn     5.680035    4.904059   17.061025    ( 0.0000,  0.0000,  0.0000)
  32 Zn     2.828427    4.898979   10.000000    ( 0.0000,  0.0000,  0.0000)
  33 Zn     4.242641    5.715476   12.309401    ( 0.0000,  0.0000,  0.0000)
  34 Zn     2.831875    6.538477   14.669674    ( 0.0000,  0.0000,  0.0000)
  35 Zn     4.253607    7.390755   17.080910    ( 0.0000,  0.0000,  0.0000)
  36 H      2.892323    2.374245   20.522289    ( 0.0000,  0.0000,  0.0000)
  37 O      2.878881    1.931833   19.646982    ( 0.0000,  0.0000,  0.0000)
  38 C      2.825163    2.853728   18.615199    ( 0.0000,  0.0000,  0.0000)
  39 C      2.856096    4.253512   18.954400    ( 0.0000,  0.0000,  0.0000)
  40 O      2.829815    4.832087   20.020000    ( 0.0000,  0.0000,  0.0000)

Unit cell:
           periodic     x           y           z      points  spacing
  1. axis:    yes    8.485281    0.000000    0.000000    40     0.1837
  2. axis:    yes   -4.242641    7.348469    0.000000    40     0.1837
  3. axis:    no     0.000000    0.000000   26.928203   148     0.1819

  Lengths:   8.485281   8.485281  26.928203
  Angles:   90.000000  90.000000 120.000000

Effective grid spacing dv^(1/3) = 0.1921

     iter     time        total  log10-change:
                         energy  eigst   dens
iter:   1 07:53:56 -2851.074971  -1.50
iter:   2 07:54:23 -2851.029455  -2.04  -2.53
iter:   3 07:54:51 -2851.018386c -2.42  -2.81
iter:   4 07:55:19 -2851.006751c -2.78  -2.98
iter:   5 07:55:46 -2851.007114c -3.15  -3.33
iter:   6 07:56:14 -2851.007177c -3.38  -3.42
iter:   7 07:56:41 -2851.007318c -3.63  -3.55
iter:   8 07:57:09 -2851.007520c -3.93  -3.69
iter:   9 07:57:37 -2851.007535c -4.33  -3.81
iter:  10 07:58:04 -2851.007544c -4.64  -3.98
iter:  11 07:58:32 -2851.007524c -4.95  -4.04c
iter:  12 07:58:59 -2851.007544c -5.22  -4.20c
iter:  13 07:59:27 -2851.007560c -5.67  -4.36c
iter:  14 07:59:55 -2851.007564c -5.94  -4.42c
iter:  15 08:00:22 -2851.007564c -6.33  -4.59c
iter:  16 08:00:50 -2851.007560c -6.51  -4.73c
iter:  17 08:01:18 -2851.007558c -6.74  -4.86c
iter:  18 08:01:45 -2851.007555c -7.04  -5.00c
iter:  19 08:02:13 -2851.007554c -7.34  -5.06c
iter:  20 08:02:41 -2851.007554c -7.65c -5.16c

Converged after 20 iterations.

Dipole moment: (-4.655867, -5.581276, -0.276864) |e|*Ang

Energy contributions relative to reference atoms: (reference = -1765157.210501)

Kinetic:       +668.726367
Potential:     -566.435737
External:        +0.000000
XC:            -2952.888605
Entropy (-ST):   -0.439368
Local:           -0.189894
--------------------------
Free energy:   -2851.227238
Extrapolated:  -2851.007554

Showing only first 2 kpts
 Kpt  Band  Eigenvalues  Occupancy
  0   224     -5.00235    1.89567
  0   225     -4.79494    1.39087
  0   226     -4.60889    0.52428
  0   227     -4.51465    0.24323

  1   224     -4.73006    1.08820
  1   225     -4.62150    0.57452
  1   226     -4.09798    0.00428
  1   227     -3.95339    0.00101


Fermi level: -4.71237

No gap

Forces in eV/Ang:
  0 Zn   -0.00062   -0.00160   -0.18485
  1 Zn    0.03130    0.03646    0.19935
  2 Zn    0.01235    0.04595    0.02076
  3 Zn   -0.01666    0.05528    0.16909
  4 Zn   -0.00892    0.02329   -0.22487
  5 Zn    0.04773    0.00031    0.20519
  6 Zn    0.00285   -0.00282   -0.06418
  7 Zn    0.00637   -0.00424   -0.00573
  8 Zn   -0.01764   -0.04933   -0.17245
  9 Zn   -0.00332   -0.00453    0.07668
 10 Zn   -0.00991   -0.00364   -0.07384
 11 Zn    0.02493   -0.12318   -0.07693
 12 Zn    0.01710    0.03918   -0.16292
 13 Zn   -0.03577    0.02241    0.18178
 14 Zn   -0.00510   -0.00157    0.08199
 15 Zn   -0.04384    0.06006    0.19692
 16 Zn   -0.00898   -0.00525   -0.14337
 17 Zn   -0.00229   -0.01048    0.16528
 18 Zn    0.01525   -0.03126    0.05364
 19 Zn    0.01474    0.03561    0.39830
 20 Zn    0.00803   -0.03095   -0.20679
 21 Zn    0.02879   -0.02895    0.19460
 22 Zn    0.00935   -0.00552   -0.07248
 23 Zn   -0.08133    0.12797    0.02072
 24 Zn   -0.02135    0.00575   -0.19502
 25 Zn   -0.00386   -0.04099    0.16468
 26 Zn   -0.00220    0.02949    0.00359
 27 Zn    0.01091    0.03254    0.05837
 28 Zn    0.01682   -0.01032   -0.15367
 29 Zn   -0.04645    0.01299    0.20904
 30 Zn   -0.00321   -0.02037    0.04738
 31 Zn   -0.00335   -0.01520   -0.02028
 32 Zn    0.00443    0.00815   -0.14902
 33 Zn   -0.02948   -0.03647    0.20568
 34 Zn    0.00223    0.10180   -0.10393
 35 Zn    0.09189    0.15712   -0.01226
 36 H    -0.02712   -0.09873   -0.46671
 37 O    -0.01112   -0.12577    0.77837
 38 C     0.15751   -0.07408   -0.29984
 39 C    -0.18799    0.03098   -0.70909
 40 O     0.07452   -0.02623    0.11416

BFGS:    7 08:02:54    -2851.007554        0.7885
System changes: positions 

Initializing position-dependent things.

Density initialized from wave functions
                                             
                                             
                                             
                                             
                                             
                                             
                        O                    
                       H                     
               Zn     OnC    Zn              
                       C                     
                 Zn     Zn     Zn            
                   Zn    ZZn     Zn          
           Zn     Zn                         
             Zn     Zn     Zn                
               Zn     Zn                     
              Zn     Zn     ZZn              
                Zn     Zn     Zn             
                                             
          Zn     ZZn    ZZn     Zn           
                                             
            Zn     Zn     Zn                 
              Zn     Zn     Zn               
                                             
                                             
                                             
                                             

Positions:
   0 Zn     0.000000    0.000000   10.000000    ( 0.0000,  0.0000,  0.0000)
   1 Zn     1.414214    0.816497   12.309401    ( 0.0000,  0.0000,  0.0000)
   2 Zn     0.004060    1.646141   14.668509    ( 0.0000,  0.0000,  0.0000)
   3 Zn     1.352036    2.440961   17.111922    ( 0.0000,  0.0000,  0.0000)
   4 Zn    -1.414214    2.449490   10.000000    ( 0.0000,  0.0000,  0.0000)
   5 Zn     0.000000    3.265986   12.309401    ( 0.0000,  0.0000,  0.0000)
   6 Zn    -1.412380    4.079018   14.628233    ( 0.0000,  0.0000,  0.0000)
   7 Zn    -0.027280    4.908471   17.074585    ( 0.0000,  0.0000,  0.0000)
   8 Zn    -2.828427    4.898979   10.000000    ( 0.0000,  0.0000,  0.0000)
   9 Zn    -1.414214    5.715476   12.309401    ( 0.0000,  0.0000,  0.0000)
  10 Zn    -2.836044    6.528657   14.625967    ( 0.0000,  0.0000,  0.0000)
  11 Zn    -1.409361    7.267957   17.040195    ( 0.0000,  0.0000,  0.0000)
  12 Zn     2.828427    0.000000   10.000000    ( 0.0000,  0.0000,  0.0000)
  13 Zn     4.242641    0.816497   12.309401    ( 0.0000,  0.0000,  0.0000)
  14 Zn     2.833118    1.636279   14.685363    ( 0.0000,  0.0000,  0.0000)
  15 Zn     4.331440    2.433390   17.088119    ( 0.0000,  0.0000,  0.0000)
  16 Zn     1.414214    2.449490   10.000000    ( 0.0000,  0.0000,  0.0000)
  17 Zn     2.828427    3.265986   12.309401    ( 0.0000,  0.0000,  0.0000)
  18 Zn     1.416252    4.075186   14.680829    ( 0.0000,  0.0000,  0.0000)
  19 Zn     2.826952    5.160815   16.921997    ( 0.0000,  0.0000,  0.0000)
  20 Zn     0.000000    4.898979   10.000000    ( 0.0000,  0.0000,  0.0000)
  21 Zn     1.414214    5.715476   12.309401    ( 0.0000,  0.0000,  0.0000)
  22 Zn     0.005283    6.524510   14.626890    ( 0.0000,  0.0000,  0.0000)
  23 Zn     1.397101    7.396722   17.076634    ( 0.0000,  0.0000,  0.0000)
  24 Zn     5.656854    0.000000   10.000000    ( 0.0000,  0.0000,  0.0000)
  25 Zn     7.071068    0.816497   12.309401    ( 0.0000,  0.0000,  0.0000)
  26 Zn     5.647874    1.650866   14.664040    ( 0.0000,  0.0000,  0.0000)
  27 Zn     7.071628    2.447917   17.091407    ( 0.0000,  0.0000,  0.0000)
  28 Zn     4.242641    2.449490   10.000000    ( 0.0000,  0.0000,  0.0000)
[...]
  33 Zn     4.242641    5.715476   12.309401    ( 0.0000,  0.0000,  0.0000)
  34 Zn     2.830230    6.572235   14.671471    ( 0.0000,  0.0000,  0.0000)
  35 Zn     4.289010    7.447442   17.055129    ( 0.0000,  0.0000,  0.0000)
  36 H      2.867703    2.471735   20.491040    ( 0.0000,  0.0000,  0.0000)
  37 O      2.861209    1.918486   19.690494    ( 0.0000,  0.0000,  0.0000)
  38 C      2.842785    2.758731   18.580376    ( 0.0000,  0.0000,  0.0000)
  39 C      2.835166    4.188297   18.853390    ( 0.0000,  0.0000,  0.0000)
  40 O      2.825755    4.715274   19.955790    ( 0.0000,  0.0000,  0.0000)

Unit cell:
           periodic     x           y           z      points  spacing
  1. axis:    yes    8.485281    0.000000    0.000000    40     0.1837
  2. axis:    yes   -4.242641    7.348469    0.000000    40     0.1837
  3. axis:    no     0.000000    0.000000   26.928203   148     0.1819

  Lengths:   8.485281   8.485281  26.928203
  Angles:   90.000000  90.000000 120.000000

Effective grid spacing dv^(1/3) = 0.1921

     iter     time        total  log10-change:
                         energy  eigst   dens
iter:   1 10:06:49 -2851.153726  -2.81
iter:   2 10:07:16 -2851.152579  -3.35  -3.31
iter:   3 10:07:44 -2851.152310c -3.72  -3.51
iter:   4 10:08:12 -2851.151665c -4.10  -3.68
iter:   5 10:08:39 -2851.151667c -4.45  -4.04c
iter:   6 10:09:07 -2851.151653c -4.69  -4.13c
iter:   7 10:09:35 -2851.151660c -4.88  -4.25c
iter:   8 10:10:02 -2851.151686c -5.20  -4.46c
iter:   9 10:10:30 -2851.151695c -5.55  -4.58c
iter:  10 10:10:57 -2851.151689c -5.77  -4.72c
iter:  11 10:11:25 -2851.151695c -6.02  -4.80c
iter:  12 10:11:53 -2851.151700c -6.38  -4.87c
iter:  13 10:12:20 -2851.151700c -6.60  -5.10c
iter:  14 10:12:48 -2851.151698c -6.94  -5.26c
iter:  15 10:13:16 -2851.151698c -7.19  -5.36c
iter:  16 10:13:43 -2851.151698c -7.39  -5.37c
iter:  17 10:14:11 -2851.151699c -7.74c -5.40c

Converged after 17 iterations.

Dipole moment: (-6.512306, -5.883689, -0.387160) |e|*Ang

Energy contributions relative to reference atoms: (reference = -1765157.210501)

Kinetic:       +670.004555
Potential:     -567.462827
External:        +0.000000
XC:            -2953.292327
Entropy (-ST):   -0.433194
Local:           -0.184503
--------------------------
Free energy:   -2851.368296
Extrapolated:  -2851.151699

Showing only first 2 kpts
 Kpt  Band  Eigenvalues  Occupancy
  0   224     -5.12222    1.91487
  0   225     -4.88983    1.37536
  0   226     -4.70725    0.52365
  0   227     -4.57042    0.16561

  1   224     -4.82183    1.05456
  1   225     -4.71970    0.57316
  1   226     -4.17216    0.00336
  1   227     -4.04716    0.00096


Fermi level: -4.81090

No gap

Forces in eV/Ang:
  0 Zn   -0.00322    0.00181   -0.19549
  1 Zn    0.04180    0.06794    0.20259
  2 Zn   -0.01328   -0.00013    0.00009
  3 Zn    0.03392   -0.00106    0.02644
  4 Zn   -0.00947    0.01442   -0.22794
  5 Zn    0.08253    0.00326    0.20871
  6 Zn    0.00001    0.01327    0.00473
  7 Zn   -0.00923    0.02785   -0.00252
  8 Zn   -0.02161   -0.04795   -0.17223
  9 Zn    0.00184    0.00200    0.03750
 10 Zn   -0.00171    0.00468   -0.00942
 11 Zn    0.00847    0.00127   -0.01501
 12 Zn    0.01377    0.04265   -0.15785
 13 Zn   -0.04913    0.06737    0.17245
 14 Zn    0.00368    0.01458   -0.01291
 15 Zn   -0.03235   -0.01245    0.02347
 16 Zn   -0.01038   -0.00749   -0.15072
 17 Zn    0.00373   -0.01271    0.20052
 18 Zn   -0.01443    0.00412   -0.00442
 19 Zn    0.00112   -0.00893    0.01657
 20 Zn    0.01516   -0.03032   -0.21125
 21 Zn    0.05693   -0.05937    0.19290
 22 Zn   -0.00131    0.00782   -0.00616
 23 Zn    0.00047    0.01397   -0.00521
 24 Zn   -0.01453    0.00663   -0.20088
 25 Zn   -0.00049   -0.02426    0.17146
 26 Zn    0.00121    0.00951    0.00724
 27 Zn   -0.00208    0.01215    0.02076
 28 Zn    0.01699   -0.01154   -0.14945
 29 Zn   -0.08780    0.00413    0.20951
 30 Zn    0.00786   -0.02028   -0.00221
 31 Zn    0.01325    0.01239    0.00342
 32 Zn    0.00152    0.01080   -0.15271
 33 Zn   -0.05977   -0.06015    0.21006
 34 Zn   -0.00257    0.03065   -0.00604
 35 Zn   -0.00174    0.02285   -0.01018
 36 H    -0.01198   -0.02406   -0.00454
 37 O     0.02321    0.00421    0.04788
 38 C    -0.02393    0.00207   -0.07846
 39 C     0.02506   -0.02476    0.02077
 40 O    -0.00534   -0.00221    0.05459

BFGS:   22 10:14:24    -2851.151699        0.0821
System changes: positions 

Initializing position-dependent things.

Density initialized from wave functions
                                             
                                             
                                             
                                             
                                             
                                             
                        O                    
                       H                     
               Zn     OnC    Zn              
                       CZn                   
                 Zn            Zn            
                   Zn    ZZn     Zn          
           Zn     Zn                         
             Zn     Zn     Zn                
               Zn     Zn     Zn              
              Zn     Zn     Zn               
                Zn     Zn     Zn             
                                             
          Zn     ZZn    ZZn     Zn           
                                             
            Zn     Zn     Zn                 
              Zn     Zn     Zn               
                                             
                                             
                                             
                                             

Positions:
   0 Zn     0.000000    0.000000   10.000000    ( 0.0000,  0.0000,  0.0000)
   1 Zn     1.414214    0.816497   12.309401    ( 0.0000,  0.0000,  0.0000)
   2 Zn     0.013902    1.697112   14.672939    ( 0.0000,  0.0000,  0.0000)
   3 Zn     1.289362    2.434625   17.185317    ( 0.0000,  0.0000,  0.0000)
   4 Zn    -1.414214    2.449490   10.000000    ( 0.0000,  0.0000,  0.0000)
   5 Zn     0.000000    3.265986   12.309401    ( 0.0000,  0.0000,  0.0000)
   6 Zn    -1.419782    4.086756   14.597379    ( 0.0000,  0.0000,  0.0000)
   7 Zn     0.003736    4.900889   17.055488    ( 0.0000,  0.0000,  0.0000)
   8 Zn    -2.828427    4.898979   10.000000    ( 0.0000,  0.0000,  0.0000)
   9 Zn    -1.414214    5.715476   12.309401    ( 0.0000,  0.0000,  0.0000)
  10 Zn    -2.842434    6.527182   14.583548    ( 0.0000,  0.0000,  0.0000)
  11 Zn    -1.405135    7.207371   16.977683    ( 0.0000,  0.0000,  0.0000)
  12 Zn     2.828427    0.000000   10.000000    ( 0.0000,  0.0000,  0.0000)
  13 Zn     4.242641    0.816497   12.309401    ( 0.0000,  0.0000,  0.0000)
  14 Zn     2.824621    1.629626   14.723995    ( 0.0000,  0.0000,  0.0000)
  15 Zn     4.377057    2.431290   17.159343    ( 0.0000,  0.0000,  0.0000)
  16 Zn     1.414214    2.449490   10.000000    ( 0.0000,  0.0000,  0.0000)
  17 Zn     2.828427    3.265986   12.309401    ( 0.0000,  0.0000,  0.0000)
  18 Zn     1.447905    4.081916   14.739650    ( 0.0000,  0.0000,  0.0000)
  19 Zn     2.846218    5.239547   17.040453    ( 0.0000,  0.0000,  0.0000)
  20 Zn     0.000000    4.898979   10.000000    ( 0.0000,  0.0000,  0.0000)
  21 Zn     1.414214    5.715476   12.309401    ( 0.0000,  0.0000,  0.0000)
  22 Zn     0.019406    6.534234   14.584966    ( 0.0000,  0.0000,  0.0000)
  23 Zn     1.379476    7.444176   17.078606    ( 0.0000,  0.0000,  0.0000)
  24 Zn     5.656854    0.000000   10.000000    ( 0.0000,  0.0000,  0.0000)
  25 Zn     7.071068    0.816497   12.309401    ( 0.0000,  0.0000,  0.0000)
  26 Zn     5.640553    1.681593   14.670929    ( 0.0000,  0.0000,  0.0000)
  27 Zn     7.076011    2.501502   17.149269    ( 0.0000,  0.0000,  0.0000)
  28 Zn     4.242641    2.449490   10.000000    ( 0.0000,  0.0000,  0.0000)
  29 Zn     5.656854    3.265986   12.309401    ( 0.0000,  0.0000,  0.0000)
  30 Zn     4.209810    4.083858   14.726932    ( 0.0000,  0.0000,  0.0000)
  31 Zn     5.669557    4.897577   17.031986    ( 0.0000,  0.0000,  0.0000)
  32 Zn     2.828427    4.898979   10.000000    ( 0.0000,  0.0000,  0.0000)
  33 Zn     4.242641    5.715476   12.309401    ( 0.0000,  0.0000,  0.0000)
  34 Zn     2.830061    6.573287   14.673246    ( 0.0000,  0.0000,  0.0000)
  35 Zn     4.288500    7.446982   17.053813    ( 0.0000,  0.0000,  0.0000)
  36 H      2.866372    2.472971   20.491430    ( 0.0000,  0.0000,  0.0000)
  37 O      2.861453    1.920349   19.690467    ( 0.0000,  0.0000,  0.0000)
  38 C      2.842816    2.759165   18.577579    ( 0.0000,  0.0000,  0.0000)
  39 C      2.834209    4.187323   18.854139    ( 0.0000,  0.0000,  0.0000)
  40 O      2.825731    4.711692   19.958101    ( 0.0000,  0.0000,  0.0000)

Unit cell:
           periodic     x           y           z      points  spacing
  1. axis:    yes    8.485281    0.000000    0.000000    40     0.1837
  2. axis:    yes   -4.242641    7.348469    0.000000    40     0.1837
  3. axis:    no     0.000000    0.000000   26.928203   148     0.1819

  Lengths:   8.485281   8.485281  26.928203
  Angles:   90.000000  90.000000 120.000000

Effective grid spacing dv^(1/3) = 0.1921

     iter     time        total  log10-change:
                         energy  eigst   dens
iter:   1 10:15:26 -2851.152679  -3.26
iter:   2 10:15:54 -2851.152234  -3.81  -3.53
iter:   3 10:16:21 -2851.152167c -4.17  -3.79
iter:   4 10:16:49 -2851.152114c -4.58  -4.01c
iter:   5 10:17:17 -2851.152050c -4.93  -4.21c
iter:   6 10:17:44 -2851.152051c -5.24  -4.39c
iter:   7 10:18:12 -2851.152082c -5.57  -4.43c
iter:   8 10:18:39 -2851.152066c -5.69  -4.63c
iter:   9 10:19:07 -2851.152068c -5.97  -4.73c
iter:  10 10:19:35 -2851.152078c -6.40  -4.75c
iter:  11 10:20:02 -2851.152078c -6.64  -4.93c
iter:  12 10:20:30 -2851.152081c -7.08  -5.06c
iter:  13 10:20:57 -2851.152082c -7.38  -5.17c
iter:  14 10:21:25 -2851.152078c -7.62c -5.20c

Converged after 14 iterations.

Dipole moment: (-6.561584, -5.825203, -0.390438) |e|*Ang

Energy contributions relative to reference atoms: (reference = -1765157.210501)

Kinetic:       +670.020884
Potential:     -567.473492
External:        +0.000000
XC:            -2953.297649
Entropy (-ST):   -0.433304
Local:           -0.185169
--------------------------
Free energy:   -2851.368730
Extrapolated:  -2851.152078

Showing only first 2 kpts
 Kpt  Band  Eigenvalues  Occupancy
  0   224     -5.12537    1.91506
  0   225     -4.89264    1.37494
  0   226     -4.71030    0.52421
  0   227     -4.57309    0.16525

  1   224     -4.82493    1.05558
  1   225     -4.72286    0.57422
  1   226     -4.17518    0.00336
  1   227     -4.05016    0.00096


Fermi level: -4.81381

No gap

Forces in eV/Ang:
  0 Zn   -0.00329    0.00205   -0.19566
  1 Zn    0.04124    0.06872    0.20220
  2 Zn   -0.01254   -0.00151    0.00295
  3 Zn    0.02114   -0.00551    0.01565
  4 Zn   -0.00940    0.01415   -0.22799
  5 Zn    0.08294    0.00418    0.20897
  6 Zn    0.00097    0.01181    0.00488
  7 Zn   -0.01216    0.02731   -0.00040
  8 Zn   -0.02171   -0.04810   -0.17230
  9 Zn    0.00220    0.00146    0.03693
 10 Zn   -0.00243    0.00528   -0.00939
 11 Zn    0.00779    0.00340   -0.01207
 12 Zn    0.01362    0.04273   -0.15775
 13 Zn   -0.04865    0.06822    0.17157
 14 Zn    0.00204    0.01546   -0.01286
 15 Zn   -0.02057   -0.01447    0.01538
 16 Zn   -0.01042   -0.00748   -0.15084
 17 Zn    0.00344   -0.01191    0.20145
 18 Zn   -0.01534    0.00089   -0.00722
 19 Zn   -0.00078   -0.00767    0.02036
 20 Zn    0.01534   -0.03057   -0.21124
 21 Zn    0.05807   -0.05970    0.19396
 22 Zn   -0.00172    0.00722   -0.00720
 23 Zn   -0.00361    0.02030   -0.00409
 24 Zn   -0.01420    0.00677   -0.20096
 25 Zn   -0.00052   -0.02493    0.17215
 26 Zn    0.00180    0.00941    0.00959
 27 Zn   -0.00133    0.00825    0.01670
 28 Zn    0.01694   -0.01142   -0.14951
 29 Zn   -0.08830    0.00453    0.20964
 30 Zn    0.01038   -0.02144   -0.00411
 31 Zn    0.01445    0.01146    0.00462
 32 Zn    0.00145    0.01060   -0.15299
 33 Zn   -0.06116   -0.06023    0.21145
 34 Zn   -0.00311    0.03163   -0.01270
 35 Zn    0.00191    0.03065   -0.00865
 36 H    -0.01343   -0.01174   -0.01910
 37 O     0.02167   -0.02703    0.01480
 38 C    -0.02755   -0.01210    0.00020
 39 C     0.03394    0.00693    0.02917
 40 O    -0.00989   -0.00978    0.03211

BFGS:   23 10:21:38    -2851.152078        0.0453
Timing:                                      incl.     excl.
-------------------------------------------------------------------
Density initialized from wave functions:     4.938     4.937   0.0% |
 Symmetrize density:                         0.001     0.001   0.0% |
Forces:                                    319.219   319.219   2.3% ||
Hamiltonian:                                81.650     0.003   0.0% |
 Atomic:                                     2.901     0.018   0.0% |
  XC Correction:                             2.882     2.882   0.0% |
 Calculate atomic Hamiltonians:              0.969     0.969   0.0% |
 Communicate:                                0.247     0.247   0.0% |
 Hartree integrate/restrict:                 0.256     0.256   0.0% |
 Initialize Hamiltonian:                     0.001     0.001   0.0% |
 Poisson:                                    4.253     0.190   0.0% |
  Communicate from 1D:                       0.348     0.348   0.0% |
  Communicate from 2D:                       0.690     0.690   0.0% |
  Communicate to 1D:                         0.190     0.190   0.0% |
  Communicate to 2D:                         0.763     0.763   0.0% |
  FFT 1D:                                    1.058     1.058   0.0% |
  FFT 2D:                                    1.014     1.014   0.0% |
 XC 3D grid:                                72.786    17.733   0.1% |
  VdW-DF integral:                          55.052     3.051   0.0% |
   Convolution:                              4.953     4.953   0.0% |
   FFT:                                      3.612     3.612   0.0% |
   gather:                                  16.739    16.739   0.1% |
   hmm1:                                     1.024     1.024   0.0% |
   hmm2:                                     2.113     2.113   0.0% |
   iFFT:                                     3.333     3.333   0.0% |
   potential:                               16.125     0.381   0.0% |
    collect:                                 1.065     1.065   0.0% |
    p1:                                      9.618     9.618   0.1% |
    p2:                                      3.218     3.218   0.0% |
    sum:                                     1.844     1.844   0.0% |
   splines:                                  4.102     4.102   0.0% |
 vbar:                                       0.233     0.233   0.0% |
LCAO initialization:                        24.023     2.036   0.0% |
 LCAO eigensolver:                          13.978     0.003   0.0% |
  Calculate projections:                     0.000     0.000   0.0% |
  DenseAtomicCorrection:                     0.000     0.000   0.0% |
  Distribute overlap matrix:                13.412    13.412   0.1% |
  Orbital Layouts:                           0.458     0.458   0.0% |
  Potential matrix:                          0.017     0.017   0.0% |
  Sum over cells:                            0.088     0.088   0.0% |
 LCAO to grid:                               6.573     6.573   0.0% |
 Set positions (LCAO WFS):                   1.436     1.049   0.0% |
  Basic WFS set positions:                   0.001     0.001   0.0% |
  Basis functions set positions:             0.000     0.000   0.0% |
  P tci:                                     0.000     0.000   0.0% |
  ST tci:                                    0.292     0.292   0.0% |
  mktci:                                     0.093     0.093   0.0% |
Redistribute:                                0.014     0.014   0.0% |
SCF-cycle:                               12581.596   226.964   1.7% ||
 Davidson:                               10852.268  3579.557  26.1% |---------|
  Apply hamiltonian:                       287.568   287.568   2.1% ||
  Subspace diag:                          1069.953     0.063   0.0% |
   calc_h_matrix:                          556.900   278.461   2.0% ||
    Apply hamiltonian:                     278.439   278.439   2.0% ||
   diagonalize:                             24.954    24.954   0.2% |
   rotate_psi:                             488.036   488.036   3.6% ||
  calc. matrices:                         4843.005  1857.486  13.5% |----|
   Apply hamiltonian:                     2985.519  2985.519  21.8% |--------|
  diagonalize:                             127.679   127.679   0.9% |
  rotate_psi:                              944.505   944.505   6.9% |--|
 Density:                                   25.972     0.011   0.0% |
  Atomic density matrices:                   2.273     2.273   0.0% |
  Mix:                                       6.653     6.653   0.0% |
  Multipole moments:                         0.179     0.179   0.0% |
  Pseudo density:                           16.857    16.845   0.1% |
   Symmetrize density:                       0.012     0.012   0.0% |
 Hamiltonian:                             1391.080     0.054   0.0% |
  Atomic:                                   52.103     0.316   0.0% |
   XC Correction:                           51.787    51.787   0.4% |
  Calculate atomic Hamiltonians:            17.193    17.193   0.1% |
  Communicate:                               5.861     5.861   0.0% |
  Hartree integrate/restrict:                4.459     4.459   0.0% |
  Poisson:                                  76.370     3.090   0.0% |
   Communicate from 1D:                      6.039     6.039   0.0% |
   Communicate from 2D:                     12.670    12.670   0.1% |
   Communicate to 1D:                        3.439     3.439   0.0% |
   Communicate to 2D:                       13.767    13.767   0.1% |
   FFT 1D:                                  19.000    19.000   0.1% |
   FFT 2D:                                  18.366    18.366   0.1% |
  XC 3D grid:                             1234.044   319.210   2.3% ||
   VdW-DF integral:                        914.834    54.981   0.4% |
    Convolution:                            89.164    89.164   0.6% |
    FFT:                                    65.033    65.033   0.5% |
    gather:                                298.812   298.812   2.2% ||
    hmm1:                                   18.373    18.373   0.1% |
    hmm2:                                   37.765    37.765   0.3% |
    iFFT:                                   60.464    60.464   0.4% |
    potential:                             290.239     6.799   0.0% |
     collect:                               19.411    19.411   0.1% |
     p1:                                   173.520   173.520   1.3% ||
     p2:                                    58.166    58.166   0.4% |
     sum:                                   32.343    32.343   0.2% |
    splines:                                 0.002     0.002   0.0% |
  vbar:                                      0.996     0.996   0.0% |
 Orthonormalize:                            85.312     0.005   0.0% |
  calc_s_matrix:                             6.777     6.777   0.0% |
  inverse-cholesky:                         65.515    65.515   0.5% |
  projections:                               0.001     0.001   0.0% |
  rotate_psi_s:                             13.013    13.013   0.1% |
Set symmetry:                                0.001     0.001   0.0% |
Other:                                     709.009   709.009   5.2% |-|
-------------------------------------------------------------------
Total:                                             13720.450 100.0%

Memory usage: 1.48 GiB
Date: Fri Sep 29 10:21:39 2023
