
  ___ ___ ___ _ _ _  
 |   |   |_  | | | | 
 | | | | | . | | | | 
 |__ |  _|___|_____|  22.8.0
 |___|_|             

User:   s204775@c052.nifl.fysik.dtu.dk
Date:   Thu Sep 21 15:15:37 2023
Arch:   x86_64
Pid:    9509
CWD:    /home/cat/s204775/projects/Bachelor_project
Python: 3.10.4
gpaw:   /home/modules/software/GPAW/22.8.0-intel-2022a/lib/python3.10/site-packages/gpaw
_gpaw:  /home/modules/software/GPAW/22.8.0-intel-2022a/lib/python3.10/site-packages/
        _gpaw.cpython-310-x86_64-linux-gnu.so
ase:    /home/modules/software/ASE/3.22.1-intel-2022a/lib/python3.10/site-packages/ase (version 3.22.1)
numpy:  /home/modules/software/SciPy-bundle/2022.05-intel-2022a/lib/python3.10/site-packages/numpy (version 1.22.3)
scipy:  /home/modules/software/SciPy-bundle/2022.05-intel-2022a/lib/python3.10/site-packages/scipy (version 1.8.1)
libxc:  5.2.3
units:  Angstrom and eV
cores: 40
OpenMP: False
OMP_NUM_THREADS: 1

Input parameters:
  basis: dzp
  h: 0.18
  kpts: {gamma: True,
         size: (4, 4, 1)}
  xc: BEEF-vdW

System changes: positions, numbers, cell, pbc, initial_charges, initial_magmoms 

Initialize ...

species:
  Cu:
    name: Copper
    id: f1c4d45d90492f1bbfdcb091e8418fdf
    Z: 29.0
    valence: 11
    core: 18
    charge: 0.0
    file: /home/modules/software/GPAW-setups/0.9.20000/Cu.PBE.gz
    compensation charges: {type: gauss,
                           rc: 0.33,
                           lmax: 2}
    cutoffs: {filter: 2.06,
              core: 2.43}
    valence states:
      #              energy  rcut
      - 4s(1.00)    -4.609   1.164
      - 4p(0.00)    -0.698   1.164
      - 3d(10.00)    -5.039   1.058
      -  s          22.603   1.164
      -  p          26.513   1.164
      -  d          22.172   1.058
  
    # LCAO basis set for Cu:
    #   Name: dzp
    #   File: /home/modules/software/GPAW-setups/0.9.20000/Cu.dzp.basis.gz
    #   Number of radial functions: 5
    #   Number of spherical harmonics: 15
    #     l=0, rc=8.9688 Bohr: 4s-sz confined orbital
    #     l=2, rc=5.1719 Bohr: 3d-sz confined orbital
    #     l=0, rc=5.3281 Bohr: 4s-dz split-valence wave
    #     l=2, rc=3.1406 Bohr: 3d-dz split-valence wave
    #     l=1, rc=8.9688 Bohr: p-type Gaussian polarization
    #   Number of RI-basis functions 0

  H:
    name: Hydrogen
    id: d65de229564ff8ea4db303e23b6d1ecf
    Z: 1.0
    valence: 1
    core: 0
    charge: 0.0
    file: /home/modules/software/GPAW-setups/0.9.20000/H.PBE.gz
    compensation charges: {type: gauss,
                           rc: 0.15,
                           lmax: 2}
    cutoffs: {filter: 0.85,
              core: 0.53}
    valence states:
      #              energy  rcut
      - 1s(1.00)    -6.494   0.476
      -  s          20.717   0.476
      -  p           0.000   0.476
  
    # LCAO basis set for H:
    #   Name: dzp
    #   File: /home/modules/software/GPAW-setups/0.9.20000/H.dzp.basis.gz
    #   Number of radial functions: 3
    #   Number of spherical harmonics: 5
    #     l=0, rc=6.4219 Bohr: 1s-sz confined orbital
    #     l=0, rc=3.6094 Bohr: 1s-dz split-valence wave
    #     l=1, rc=6.4219 Bohr: p-type Gaussian polarization
    #   Number of RI-basis functions 0

  O:
    name: Oxygen
    id: 32ecd46bf208036f09c70b0ec9a88b78
    Z: 8.0
    valence: 6
    core: 2
    charge: 0.0
    file: /home/modules/software/GPAW-setups/0.9.20000/O.PBE.gz
    compensation charges: {type: gauss,
                           rc: 0.21,
                           lmax: 2}
    cutoffs: {filter: 1.17,
              core: 0.83}
    valence states:
      #              energy  rcut
      - 2s(2.00)   -23.961   0.688
      - 2p(4.00)    -9.029   0.598
      -  s           3.251   0.688
      -  p          18.182   0.598
      -  d           0.000   0.619
  
    # LCAO basis set for O:
    #   Name: dzp
    #   File: /home/modules/software/GPAW-setups/0.9.20000/O.dzp.basis.gz
    #   Number of radial functions: 5
    #   Number of spherical harmonics: 13
    #     l=0, rc=4.3438 Bohr: 2s-sz confined orbital
    #     l=1, rc=5.3906 Bohr: 2p-sz confined orbital
    #     l=0, rc=2.2969 Bohr: 2s-dz split-valence wave
    #     l=1, rc=2.8906 Bohr: 2p-dz split-valence wave
    #     l=2, rc=5.3906 Bohr: d-type Gaussian polarization
    #   Number of RI-basis functions 0

  C:
    name: Carbon
    id: 4aa54d4b901d75f77cc0ea3eec22967b
    Z: 6.0
    valence: 4
    core: 2
    charge: 0.0
    file: /home/modules/software/GPAW-setups/0.9.20000/C.PBE.gz
    compensation charges: {type: gauss,
                           rc: 0.20,
                           lmax: 2}
    cutoffs: {filter: 1.14,
              core: 1.14}
    valence states:
      #              energy  rcut
      - 2s(2.00)   -13.751   0.635
      - 2p(2.00)    -5.284   0.635
      -  s          13.461   0.635
      -  p          21.927   0.635
      -  d           0.000   0.635
  
    # LCAO basis set for C:
    #   Name: dzp
    #   File: /home/modules/software/GPAW-setups/0.9.20000/C.dzp.basis.gz
    #   Number of radial functions: 5
    #   Number of spherical harmonics: 13
    #     l=0, rc=5.5469 Bohr: 2s-sz confined orbital
    #     l=1, rc=6.6719 Bohr: 2p-sz confined orbital
    #     l=0, rc=3.0312 Bohr: 2s-dz split-valence wave
    #     l=1, rc=3.7500 Bohr: 2p-dz split-valence wave
    #     l=2, rc=6.6719 Bohr: d-type Gaussian polarization
    #   Number of RI-basis functions 0

Reference energy: -1626921.717276  # eV

Spin-paired calculation

Convergence criteria:
 Maximum [total energy] change in last 3 cyles: 0.0005 eV / electron
 Maximum integral of absolute [dens]ity change: 0.0001 electrons / valence electron
 Maximum integral of absolute [eigenst]ate change: 4e-08 eV^2 / valence electron
 Maximum number of scf [iter]ations: 333
 (Square brackets indicate name in SCF output, whereas a 'c' in
 the SCF output indicates the quantity has converged.)

Symmetries present (total): 1

  ( 1  0  0)
  ( 0  1  0)
  ( 0  0  1)

16 k-points: 4 x 4 x 1 Monkhorst-Pack grid + [1/8,1/8,0.000000]
10 k-points in the irreducible part of the Brillouin zone
       k-points in crystal coordinates                weights
   0:     0.00000000    0.00000000    0.00000000          1/16
   1:     0.00000000    0.25000000    0.00000000          2/16
   2:     0.00000000    0.50000000    0.00000000          1/16
   3:     0.25000000   -0.25000000    0.00000000          2/16
   4:     0.25000000    0.00000000    0.00000000          2/16
   5:     0.25000000    0.25000000    0.00000000          2/16
   6:     0.25000000    0.50000000    0.00000000          2/16
   7:     0.50000000    0.00000000    0.00000000          1/16
   8:     0.50000000    0.25000000    0.00000000          2/16
   9:     0.50000000    0.50000000    0.00000000          1/16

Wave functions: Uniform real-space grid
  Kinetic energy operator: 8*3+1=25 point O(h^6) finite-difference Laplacian
  ScaLapack parameters: grid=1x1, blocksize=None
  Wavefunction extrapolation:
    Improved wavefunction reuse through dual PAW basis 

Occupation numbers: Fermi-Dirac:
  width: 0.1000  # eV
 

Eigensolver
   Davidson(niter=2) 

Densities:
  Coarse grid: 36*36*148 grid
  Fine grid: 72*72*296 grid
  Total Charge: 0.000000 

Density mixing:
  Method: separate
  Backend: pulay
  Linear mixing parameter: 0.05
  old densities: 5
  Damping of long wavelength oscillations: 50 

Hamiltonian:
  XC and Coulomb potentials evaluated on a 72*72*296 grid
  Using the BEEF-vdW Exchange-Correlation functional
  Interpolation: tri-quintic (5. degree polynomial)
  Poisson solver: FastPoissonSolver using
    Stencil: 8*3+1=25 point O(h^6) finite-difference Laplacian
    FFT axes: [0, 1]
    FST axes: [2]
 

XC parameters: BEEF-vdW with 2 nearest neighbor stencil

Memory estimate:
  Process memory now: 216.05 MiB
  Calculator: 442.67 MiB
    Density: 50.21 MiB
      Arrays: 9.37 MiB
      Localized functions: 37.28 MiB
      Mixer: 3.56 MiB
    Hamiltonian: 8.94 MiB
      Arrays: 6.13 MiB
      XC: 0.00 MiB
      Poisson: 0.00 MiB
      vbar: 2.81 MiB
    Wavefunctions: 383.52 MiB
      Arrays psit_nG: 181.54 MiB
      Eigensolver: 195.03 MiB
      Projections: 0.69 MiB
      Projectors: 6.27 MiB

Total number of cores used: 40
Parallelization over k-points: 10
Domain decomposition: 1 x 1 x 4

Number of atoms: 41
Number of atomic orbitals: 597
Number of bands in calculation: 255
Number of valence electrons: 417
Bands to converge: occupied

... initialized

Initializing position-dependent things.

Density initialized from atomic densities
Creating initial wave functions:
  255 bands from LCAO basis set

                                          
                                          
                                          
                                          
                                          
                                          
                   O                      
                 H                        
                 OC                       
          Cu    CC     Cu                 
            Cu    Cu    Cu                
           Cu    Cu    Cu                 
             CCu   CCu   CCu              
              Cu     Cu    Cu             
             Cu     Cu    Cu              
               Cu     Cu    Cu            
                 Cu     Cu    Cu          
          Cu    Cu     Cu                 
            Cu    Cu    Cu                
              Cu    Cu    Cu              
                                          
                                          
                                          
                                          

Positions:
   0 Cu     0.000000    0.000000    9.999999    ( 0.0000,  0.0000,  0.0000)
   1 Cu     1.303035    0.752307   12.127846    ( 0.0000,  0.0000,  0.0000)
   2 Cu    -0.000000    1.504615   14.261004    ( 0.0000,  0.0000,  0.0000)
   3 Cu     0.000000    0.000000   16.395505    ( 0.0000,  0.0000,  0.0000)
   4 Cu    -1.303035    2.256922    9.999999    ( 0.0000,  0.0000,  0.0000)
   5 Cu     0.000000    3.009230   12.127846    ( 0.0000,  0.0000,  0.0000)
   6 Cu    -1.303035    3.761537   14.261004    ( 0.0000,  0.0000,  0.0000)
   7 Cu    -1.303035    2.256922   16.395505    ( 0.0000,  0.0000,  0.0000)
   8 Cu    -2.606069    4.513845    9.999999    ( 0.0000,  0.0000,  0.0000)
   9 Cu    -1.303035    5.266152   12.127846    ( 0.0000,  0.0000,  0.0000)
  10 Cu    -2.606069    6.018460   14.261004    ( 0.0000,  0.0000,  0.0000)
  11 Cu    -2.606069    4.513845   16.395505    ( 0.0000,  0.0000,  0.0000)
  12 Cu     2.606069    0.000000    9.999999    ( 0.0000,  0.0000,  0.0000)
  13 Cu     3.909104    0.752307   12.127846    ( 0.0000,  0.0000,  0.0000)
  14 Cu     2.606069    1.504615   14.261004    ( 0.0000,  0.0000,  0.0000)
  15 Cu     2.606069   -0.000000   16.395505    ( 0.0000,  0.0000,  0.0000)
  16 Cu     1.303035    2.256922    9.999999    ( 0.0000,  0.0000,  0.0000)
  17 Cu     2.606069    3.009230   12.127846    ( 0.0000,  0.0000,  0.0000)
  18 Cu     1.303035    3.761537   14.261004    ( 0.0000,  0.0000,  0.0000)
  19 Cu     1.303035    2.256922   16.395505    ( 0.0000,  0.0000,  0.0000)
  20 Cu     0.000000    4.513845    9.999999    ( 0.0000,  0.0000,  0.0000)
  21 Cu     1.303035    5.266152   12.127846    ( 0.0000,  0.0000,  0.0000)
  22 Cu    -0.000000    6.018460   14.261004    ( 0.0000,  0.0000,  0.0000)
  23 Cu     0.000000    4.513845   16.395505    ( 0.0000,  0.0000,  0.0000)
  24 Cu     5.212139    0.000000    9.999999    ( 0.0000,  0.0000,  0.0000)
  25 Cu     6.515174    0.752307   12.127846    ( 0.0000,  0.0000,  0.0000)
  26 Cu     5.212139    1.504615   14.261004    ( 0.0000,  0.0000,  0.0000)
  27 Cu     5.212139   -0.000000   16.395505    ( 0.0000,  0.0000,  0.0000)
  28 Cu     3.909104    2.256922    9.999999    ( 0.0000,  0.0000,  0.0000)
  29 Cu     5.212139    3.009230   12.127846    ( 0.0000,  0.0000,  0.0000)
  30 Cu     3.909104    3.761537   14.261004    ( 0.0000,  0.0000,  0.0000)
  31 Cu     3.909104    2.256922   16.395505    ( 0.0000,  0.0000,  0.0000)
  32 Cu     2.606069    4.513845    9.999999    ( 0.0000,  0.0000,  0.0000)
  33 Cu     3.909104    5.266152   12.127846    ( 0.0000,  0.0000,  0.0000)
  34 Cu     2.606069    6.018460   14.261004    ( 0.0000,  0.0000,  0.0000)
  35 Cu     2.606069    4.513845   16.395505    ( 0.0000,  0.0000,  0.0000)
  36 H      1.303035    0.384582   20.085490    ( 0.0000,  0.0000,  0.0000)
  37 O      1.303035   -0.294240   19.406667    ( 0.0000,  0.0000,  0.0000)
  38 C      1.303035    0.716922   18.395505    ( 0.0000,  0.0000,  0.0000)
  39 C      1.303035    2.256922   18.395505    ( 0.0000,  0.0000,  0.0000)
  40 O      1.303035    3.268085   19.406667    ( 0.0000,  0.0000,  0.0000)

Unit cell:
           periodic     x           y           z      points  spacing
  1. axis:    yes    7.818208    0.000000    0.000000    36     0.1881
  2. axis:    yes   -3.909104    6.770767    0.000000    36     0.1881
  3. axis:    no     0.000000    0.000000   26.383539   148     0.1783

  Lengths:   7.818208   7.818208  26.383539
  Angles:   90.000000  90.000000 120.000000

Effective grid spacing dv^(1/3) = 0.1938

     iter     time        total  log10-change:
                         energy  eigst   dens
iter:   1 15:16:18 -2873.305209
iter:   2 15:16:40 -2934.827004  +0.81  -1.00
iter:   3 15:17:01 -2830.313582  -0.08  -0.96
iter:   4 15:17:23 -2805.452478  -0.87  -1.21
iter:   5 15:17:44 -2800.802460  -0.97  -1.40
iter:   6 15:18:05 -2801.314541  -0.96  -1.52
iter:   7 15:18:27 -2800.504994  -1.83  -1.58
iter:   8 15:18:48 -2802.297199  -1.23  -1.59
iter:   9 15:19:09 -2798.984460  -1.64  -1.68
iter:  10 15:19:30 -2800.276760  -1.68  -1.77
iter:  11 15:19:52 -2798.863902  -1.92  -1.81
iter:  12 15:20:13 -2799.082686  -2.30  -2.04
iter:  13 15:20:34 -2798.566259  -2.04  -2.07
iter:  14 15:20:56 -2798.557596  -3.10  -2.47
iter:  15 15:21:17 -2798.519302c -2.73  -2.51
iter:  16 15:21:38 -2798.494448c -3.77  -2.63
iter:  17 15:21:59 -2798.493246c -3.11  -2.81
iter:  18 15:22:21 -2798.477279c -3.48  -2.90
iter:  19 15:22:42 -2798.476582c -4.16  -3.26
iter:  20 15:23:03 -2798.475736c -4.62  -3.28
iter:  21 15:23:25 -2798.477548c -4.25  -3.31
iter:  22 15:23:46 -2798.475817c -4.95  -3.30
iter:  23 15:24:07 -2798.475723c -5.19  -3.51
iter:  24 15:24:28 -2798.475598c -5.43  -3.71
iter:  25 15:24:50 -2798.475514c -5.61  -3.86
iter:  26 15:25:11 -2798.475441c -5.62  -3.99
iter:  27 15:25:32 -2798.475446c -6.57  -4.06c
iter:  28 15:25:53 -2798.475453c -6.48  -4.10c
iter:  29 15:26:15 -2798.475484c -6.33  -4.12c
iter:  30 15:26:36 -2798.475469c -6.72  -4.15c
iter:  31 15:26:57 -2798.475474c -6.99  -4.20c
iter:  32 15:27:19 -2798.475548c -6.04  -4.25c
iter:  33 15:27:40 -2798.475474c -6.10  -4.33c
iter:  34 15:28:01 -2798.475490c -7.18  -4.59c
iter:  35 15:28:22 -2798.475488c -7.59c -4.93c

Converged after 35 iterations.

Dipole moment: (-6.897263, -1.396757, -0.378387) |e|*Ang

Energy contributions relative to reference atoms: (reference = -1626921.717276)

Kinetic:       +237.278716
Potential:     -283.217837
External:        +0.000000
XC:            -2755.277882
Entropy (-ST):   -0.518274
Local:           +3.000652
--------------------------
Free energy:   -2798.734625
Extrapolated:  -2798.475488

Showing only first 2 kpts
 Kpt  Band  Eigenvalues  Occupancy
  0   206     -5.95745    1.99615
  0   207     -5.93310    1.99509
  0   208     -5.66306    1.92937
  0   209     -5.65169    1.92120

  1   206     -5.98004    1.99693
  1   207     -5.91662    1.99422
  1   208     -5.54165    1.78052
  1   209     -5.33726    1.02476


Fermi level: -5.33231

No gap

Forces in eV/Ang:
  0 Cu    0.00857    0.01498   -0.07708
  1 Cu   -0.00006   -0.00180   -0.01502
  2 Cu    0.06743    0.00253   -0.06828
  3 Cu    0.29120    0.11819    0.76518
  4 Cu    0.00427   -0.00355   -0.05989
  5 Cu   -0.02421    0.00372    0.01689
  6 Cu    0.02525    0.01565    0.01444
  7 Cu   -0.07315    0.01027    0.04687
  8 Cu    0.00000    0.00065   -0.05908
  9 Cu   -0.00059   -0.01188   -0.01123
 10 Cu   -0.00001    0.04116   -0.08497
 11 Cu   -0.00004   -0.11610   -0.05083
 12 Cu   -0.00848    0.01501   -0.07707
 13 Cu    0.01663   -0.00400    0.02674
 14 Cu   -0.06736    0.00241   -0.06847
 15 Cu   -0.29133    0.11840    0.76538
 16 Cu    0.00005   -0.01720   -0.06771
 17 Cu    0.02414    0.00374    0.01698
 18 Cu   -0.00000   -0.07497   -0.08629
 19 Cu    0.00014    0.40997    0.33555
 20 Cu    0.00809    0.00126   -0.05779
 21 Cu   -0.00004    0.01803    0.03512
 22 Cu   -0.07292   -0.00662    0.08226
 23 Cu   -0.02042    0.02346    0.00735
 24 Cu    0.00006   -0.00232   -0.07632
 25 Cu   -0.01662   -0.00396    0.02690
 26 Cu   -0.00014    0.00522    0.01410
 27 Cu    0.00000    0.00761   -0.05020
 28 Cu   -0.00417   -0.00354   -0.05996
 29 Cu    0.00006    0.01373    0.01981
 30 Cu   -0.02523    0.01572    0.01431
 31 Cu    0.07280    0.01042    0.04711
 32 Cu   -0.00794    0.00128   -0.05778
 33 Cu    0.00061   -0.01187   -0.01119
 34 Cu    0.07288   -0.00682    0.08202
 35 Cu    0.02020    0.02301    0.00733
 36 H    -0.01126   -0.46920    1.95864
 37 O     0.02804    3.05052   -1.42471
 38 C    -0.01141    0.15165   -2.31331
 39 C     0.00977    1.89776    4.71089
 40 O    -0.01717   -5.21460   -4.70009

      Step     Time          Energy         fmax
BFGS:    0 15:28:32    -2798.475488        3.4860
System changes: positions 

Initializing position-dependent things.

Density initialized from wave functions
                                          
                                          
                                          
                                          
                                          
                                          
                   O                      
                 H                        
                 OC                       
          Cu    CC     Cu                 
            Cu    Cu    Cu                
           Cu    Cu    Cu                 
             CCu   CCu   CCu              
              Cu     Cu    Cu             
             Cu     Cu    Cu              
               Cu     Cu    Cu            
                 Cu     Cu    Cu          
          Cu    Cu     Cu                 
            Cu    Cu    Cu                
              Cu    Cu    Cu              
                                          
                                          
                                          
                                          

Positions:
   0 Cu     0.000000    0.000000    9.999999    ( 0.0000,  0.0000,  0.0000)
   1 Cu     1.303035    0.752307   12.127846    ( 0.0000,  0.0000,  0.0000)
   2 Cu     0.000963    1.504651   14.260028    ( 0.0000,  0.0000,  0.0000)
   3 Cu     0.004160    0.001688   16.406436    ( 0.0000,  0.0000,  0.0000)
   4 Cu    -1.303035    2.256922    9.999999    ( 0.0000,  0.0000,  0.0000)
   5 Cu     0.000000    3.009230   12.127846    ( 0.0000,  0.0000,  0.0000)
   6 Cu    -1.302674    3.761761   14.261210    ( 0.0000,  0.0000,  0.0000)
   7 Cu    -1.304080    2.257069   16.396174    ( 0.0000,  0.0000,  0.0000)
   8 Cu    -2.606069    4.513845    9.999999    ( 0.0000,  0.0000,  0.0000)
   9 Cu    -1.303035    5.266152   12.127846    ( 0.0000,  0.0000,  0.0000)
  10 Cu    -2.606070    6.019048   14.259790    ( 0.0000,  0.0000,  0.0000)
  11 Cu    -2.606070    4.512186   16.394779    ( 0.0000,  0.0000,  0.0000)
  12 Cu     2.606069    0.000000    9.999999    ( 0.0000,  0.0000,  0.0000)
  13 Cu     3.909104    0.752307   12.127846    ( 0.0000,  0.0000,  0.0000)
  14 Cu     2.605107    1.504649   14.260025    ( 0.0000,  0.0000,  0.0000)
  15 Cu     2.601908    0.001691   16.406439    ( 0.0000,  0.0000,  0.0000)
  16 Cu     1.303035    2.256922    9.999999    ( 0.0000,  0.0000,  0.0000)
  17 Cu     2.606069    3.009230   12.127846    ( 0.0000,  0.0000,  0.0000)
  18 Cu     1.303035    3.760466   14.259771    ( 0.0000,  0.0000,  0.0000)
  19 Cu     1.303037    2.262779   16.400298    ( 0.0000,  0.0000,  0.0000)
  20 Cu     0.000000    4.513845    9.999999    ( 0.0000,  0.0000,  0.0000)
  21 Cu     1.303035    5.266152   12.127846    ( 0.0000,  0.0000,  0.0000)
  22 Cu    -0.001042    6.018365   14.262179    ( 0.0000,  0.0000,  0.0000)
  23 Cu    -0.000292    4.514180   16.395610    ( 0.0000,  0.0000,  0.0000)
  24 Cu     5.212139    0.000000    9.999999    ( 0.0000,  0.0000,  0.0000)
  25 Cu     6.515174    0.752307   12.127846    ( 0.0000,  0.0000,  0.0000)
  26 Cu     5.212137    1.504689   14.261205    ( 0.0000,  0.0000,  0.0000)
  27 Cu     5.212139    0.000109   16.394788    ( 0.0000,  0.0000,  0.0000)
  28 Cu     3.909104    2.256922    9.999999    ( 0.0000,  0.0000,  0.0000)
  29 Cu     5.212139    3.009230   12.127846    ( 0.0000,  0.0000,  0.0000)
  30 Cu     3.908744    3.761762   14.261208    ( 0.0000,  0.0000,  0.0000)
  31 Cu     3.910144    2.257071   16.396178    ( 0.0000,  0.0000,  0.0000)
  32 Cu     2.606069    4.513845    9.999999    ( 0.0000,  0.0000,  0.0000)
  33 Cu     3.909104    5.266152   12.127846    ( 0.0000,  0.0000,  0.0000)
  34 Cu     2.607111    6.018362   14.262175    ( 0.0000,  0.0000,  0.0000)
  35 Cu     2.606358    4.514174   16.395609    ( 0.0000,  0.0000,  0.0000)
  36 H      1.302874    0.385565   20.121156    ( 0.0000,  0.0000,  0.0000)
  37 O      1.303435   -0.246617   19.398767    ( 0.0000,  0.0000,  0.0000)
  38 C      1.302872    0.707023   18.358070    ( 0.0000,  0.0000,  0.0000)
  39 C      1.303174    2.236122   18.398439    ( 0.0000,  0.0000,  0.0000)
  40 O      1.302789    3.255444   19.401376    ( 0.0000,  0.0000,  0.0000)

Unit cell:
           periodic     x           y           z      points  spacing
  1. axis:    yes    7.818208    0.000000    0.000000    36     0.1881
  2. axis:    yes   -3.909104    6.770767    0.000000    36     0.1881
  3. axis:    no     0.000000    0.000000   26.383539   148     0.1783

  Lengths:   7.818208   7.818208  26.383539
  Angles:   90.000000  90.000000 120.000000

Effective grid spacing dv^(1/3) = 0.1938

     iter     time        total  log10-change:
                         energy  eigst   dens
iter:   1 15:29:24 -2800.061231  -1.80
iter:   2 15:29:45 -2799.893301  -1.98  -2.04
iter:   3 15:30:07 -2798.903584  -2.68  -2.09
iter:   4 15:30:29 -2798.856126  -3.59  -2.70
iter:   5 15:30:50 -2798.842822c -3.33  -3.02
iter:   6 15:31:12 -2798.836662c -3.73  -3.15
iter:   7 15:31:34 -2798.841265c -4.28  -3.32
iter:   8 15:31:56 -2798.836356c -3.96  -3.09
iter:   9 15:32:17 -2798.835946c -4.59  -3.67
iter:  10 15:32:39 -2798.835452c -4.59  -3.71
iter:  11 15:33:01 -2798.834832c -4.90  -3.58
iter:  12 15:33:23 -2798.834942c -5.73  -4.03c
iter:  13 15:33:44 -2798.834996c -5.45  -3.94
iter:  14 15:34:06 -2798.834843c -6.01  -4.16c
iter:  15 15:34:28 -2798.834861c -5.94  -4.31c
iter:  16 15:34:49 -2798.834875c -6.49  -4.49c
iter:  17 15:35:11 -2798.834859c -6.32  -4.64c
iter:  18 15:35:33 -2798.834866c -7.15  -4.81c
iter:  19 15:35:55 -2798.834866c -7.04  -4.81c
iter:  20 15:36:16 -2798.834864c -7.26  -5.00c
iter:  21 15:36:38 -2798.834862c -7.91c -5.11c

Converged after 21 iterations.

Dipole moment: (-6.880229, -1.506417, -0.339767) |e|*Ang

Energy contributions relative to reference atoms: (reference = -1626921.717276)

Kinetic:       +237.487844
Potential:     -283.480259
External:        +0.000000
XC:            -2755.601645
Entropy (-ST):   -0.514054
Local:           +3.016225
--------------------------
Free energy:   -2799.091889
Extrapolated:  -2798.834862

Showing only first 2 kpts
 Kpt  Band  Eigenvalues  Occupancy
  0   206     -5.90936    1.99583
  0   207     -5.90806    1.99577
  0   208     -5.62494    1.93059
  0   209     -5.61480    1.92347

  1   206     -5.94172    1.99698
  1   207     -5.87708    1.99424
  1   208     -5.50791    1.79234
  1   209     -5.30215    1.04882


Fermi level: -5.29238

No gap

Forces in eV/Ang:
  0 Cu    0.00733    0.01453   -0.07769
  1 Cu   -0.00004   -0.00093   -0.01976
  2 Cu    0.04677   -0.00768   -0.03989
  3 Cu    0.21141    0.09121    0.66542
  4 Cu    0.00398   -0.00237   -0.05836
  5 Cu   -0.02495    0.00277    0.01690
  6 Cu    0.01473    0.01051    0.00819
  7 Cu   -0.04596    0.00522    0.03637
  8 Cu    0.00001   -0.00055   -0.05993
  9 Cu    0.00020   -0.01156   -0.01324
 10 Cu   -0.00003    0.03582   -0.05347
 11 Cu    0.00000   -0.08963   -0.05069
 12 Cu   -0.00726    0.01456   -0.07770
 13 Cu    0.01824   -0.00546    0.02708
 14 Cu   -0.04653   -0.00776   -0.04019
 15 Cu   -0.21141    0.09112    0.66494
 16 Cu    0.00002   -0.01521   -0.06638
 17 Cu    0.02486    0.00281    0.01701
 18 Cu   -0.00002   -0.04724   -0.07214
 19 Cu    0.00044    0.35123    0.21690
 20 Cu    0.00812    0.00059   -0.05560
 21 Cu   -0.00002    0.02172    0.04054
 22 Cu   -0.06033    0.00198    0.08428
 23 Cu   -0.01650    0.02326    0.00070
 24 Cu    0.00005   -0.00242   -0.07630
 25 Cu   -0.01822   -0.00538    0.02726
 26 Cu   -0.00008    0.00421    0.00956
 27 Cu    0.00004    0.00468   -0.04562
 28 Cu   -0.00389   -0.00237   -0.05840
 29 Cu    0.00006    0.01328    0.01974
 30 Cu   -0.01477    0.01047    0.00815
 31 Cu    0.04579    0.00528    0.03659
 32 Cu   -0.00797    0.00063   -0.05561
 33 Cu   -0.00019   -0.01156   -0.01323
 34 Cu    0.06028    0.00180    0.08415
 35 Cu    0.01631    0.02308    0.00069
 36 H    -0.01159   -0.26713    1.45540
 37 O     0.03205    2.36378   -1.35767
 38 C    -0.01201    0.50104   -1.56198
 39 C     0.00712    2.13218    4.40943
 40 O    -0.01515   -5.37132   -4.66723

BFGS:    1 15:36:48    -2798.834862        2.8189
System changes: positions 

Initializing position-dependent things.

Density initialized from wave functions
                                          
                                          
                                          
                                          
                                          
                                          
                   O                      
                 H                        
                 OC                       
          Cu    CC     Cu                 
            Cu    Cu    Cu                
           Cu    Cu    Cu                 
             CCu   CCu   CCu              
              Cu     Cu    Cu             
             Cu     Cu    Cu              
               Cu     Cu    Cu            
                 Cu    Cu     Cu          
          Cu    Cu     Cu                 
            Cu    Cu    Cu                
             Cu     Cu    Cu              
                                          
                                          
                                          
                                          

Positions:
   0 Cu     0.000000    0.000000    9.999999    ( 0.0000,  0.0000,  0.0000)
   1 Cu     1.303035    0.752307   12.127846    ( 0.0000,  0.0000,  0.0000)
   2 Cu     0.004281    1.504175   14.257144    ( 0.0000,  0.0000,  0.0000)
   3 Cu     0.019089    0.008092   16.452660    ( 0.0000,  0.0000,  0.0000)
   4 Cu    -1.303035    2.256922    9.999999    ( 0.0000,  0.0000,  0.0000)
   5 Cu     0.000000    3.009230   12.127846    ( 0.0000,  0.0000,  0.0000)
   6 Cu    -1.301609    3.762509   14.261805    ( 0.0000,  0.0000,  0.0000)
   7 Cu    -1.307375    2.257453   16.398727    ( 0.0000,  0.0000,  0.0000)
   8 Cu    -2.606069    4.513845    9.999999    ( 0.0000,  0.0000,  0.0000)
   9 Cu    -1.303035    5.266152   12.127846    ( 0.0000,  0.0000,  0.0000)
  10 Cu    -2.606072    6.021536   14.255957    ( 0.0000,  0.0000,  0.0000)
  11 Cu    -2.606070    4.505894   16.391295    ( 0.0000,  0.0000,  0.0000)
  12 Cu     2.606069    0.000000    9.999999    ( 0.0000,  0.0000,  0.0000)
  13 Cu     3.909104    0.752307   12.127846    ( 0.0000,  0.0000,  0.0000)
  14 Cu     2.601805    1.504167   14.257121    ( 0.0000,  0.0000,  0.0000)
  15 Cu     2.586977    0.008090   16.452633    ( 0.0000,  0.0000,  0.0000)
  16 Cu     1.303035    2.256922    9.999999    ( 0.0000,  0.0000,  0.0000)
  17 Cu     2.606069    3.009230   12.127846    ( 0.0000,  0.0000,  0.0000)
  18 Cu     1.303034    3.757080   14.254743    ( 0.0000,  0.0000,  0.0000)
  19 Cu     1.303065    2.287209   16.415802    ( 0.0000,  0.0000,  0.0000)
  20 Cu     0.000000    4.513845    9.999999    ( 0.0000,  0.0000,  0.0000)
  21 Cu     1.303035    5.266152   12.127846    ( 0.0000,  0.0000,  0.0000)
  22 Cu    -0.005251    6.018458   14.267959    ( 0.0000,  0.0000,  0.0000)
  23 Cu    -0.001445    4.515779   16.395691    ( 0.0000,  0.0000,  0.0000)
  24 Cu     5.212139    0.000000    9.999999    ( 0.0000,  0.0000,  0.0000)
  25 Cu     6.515174    0.752307   12.127846    ( 0.0000,  0.0000,  0.0000)
  26 Cu     5.212131    1.504984   14.261885    ( 0.0000,  0.0000,  0.0000)
  27 Cu     5.212142    0.000445   16.391630    ( 0.0000,  0.0000,  0.0000)
  28 Cu     3.909104    2.256922    9.999999    ( 0.0000,  0.0000,  0.0000)
  29 Cu     5.212139    3.009230   12.127846    ( 0.0000,  0.0000,  0.0000)
  30 Cu     3.907676    3.762508   14.261799    ( 0.0000,  0.0000,  0.0000)
  31 Cu     3.913427    2.257460   16.398745    ( 0.0000,  0.0000,  0.0000)
  32 Cu     2.606069    4.513845    9.999999    ( 0.0000,  0.0000,  0.0000)
  33 Cu     3.909104    5.266152   12.127846    ( 0.0000,  0.0000,  0.0000)
  34 Cu     2.611316    6.018442   14.267947    ( 0.0000,  0.0000,  0.0000)
  35 Cu     2.607498    4.515759   16.395690    ( 0.0000,  0.0000,  0.0000)
  36 H      1.302131    0.369848   20.219110    ( 0.0000,  0.0000,  0.0000)
  37 O      1.305602   -0.078366   19.381857    ( 0.0000,  0.0000,  0.0000)
  38 C      1.302026    0.667829   18.202645    ( 0.0000,  0.0000,  0.0000)
  39 C      1.303780    2.171257   18.384880    ( 0.0000,  0.0000,  0.0000)
  40 O      1.301641    3.194566   19.383746    ( 0.0000,  0.0000,  0.0000)

Unit cell:
           periodic     x           y           z      points  spacing
  1. axis:    yes    7.818208    0.000000    0.000000    36     0.1881
  2. axis:    yes   -3.909104    6.770767    0.000000    36     0.1881
  3. axis:    no     0.000000    0.000000   26.383539   148     0.1783

  Lengths:   7.818208   7.818208  26.383539
  Angles:   90.000000  90.000000 120.000000

Effective grid spacing dv^(1/3) = 0.1938

     iter     time        total  log10-change:
                         energy  eigst   dens
iter:   1 15:37:40 -2807.597014  -0.82
iter:   2 15:38:02 -2802.497600  -1.21  -1.68
iter:   3 15:38:23 -2800.093894  -1.90  -1.85
iter:   4 15:38:45 -2799.358257  -2.34  -2.12
iter:   5 15:39:07 -2799.318197  -2.83  -2.59
iter:   6 15:39:29 -2799.281971c -2.71  -2.61
iter:   7 15:39:51 -2799.272564c -3.45  -2.87
iter:   8 15:40:12 -2799.280881c -3.03  -2.87
iter:   9 15:40:34 -2799.273715c -3.77  -2.95
iter:  10 15:40:56 -2799.262472c -3.75  -3.01
iter:  11 15:41:18 -2799.262355c -4.00  -3.35
iter:  12 15:41:39 -2799.261493c -4.86  -3.46
iter:  13 15:42:01 -2799.260731c -4.58  -3.57
iter:  14 15:42:23 -2799.260962c -5.09  -3.79
iter:  15 15:42:45 -2799.260844c -5.76  -3.86
iter:  16 15:43:07 -2799.260788c -5.88  -4.03c
iter:  17 15:43:28 -2799.260752c -5.77  -4.14c
iter:  18 15:43:50 -2799.260784c -6.21  -4.21c
iter:  19 15:44:12 -2799.260801c -6.30  -4.25c
iter:  20 15:44:34 -2799.260774c -6.31  -4.39c
iter:  21 15:44:55 -2799.260783c -7.11  -4.55c
iter:  22 15:45:17 -2799.260793c -7.08  -4.69c
iter:  23 15:45:39 -2799.260799c -7.20  -4.75c
iter:  24 15:46:01 -2799.260786c -7.44c -4.92c

Converged after 24 iterations.

Dipole moment: (-3.014721, -8.516271, -0.254609) |e|*Ang

Energy contributions relative to reference atoms: (reference = -1626921.717276)

Kinetic:       +239.381536
Potential:     -284.942163
External:        +0.000000
XC:            -2756.485561
Entropy (-ST):   -0.493098
Local:           +3.031951
--------------------------
Free energy:   -2799.507334
Extrapolated:  -2799.260786

Showing only first 2 kpts
 Kpt  Band  Eigenvalues  Occupancy
  0   206     -5.88614    1.99784
  0   207     -5.78173    1.99388
  0   208     -5.54291    1.93526
  0   209     -5.53875    1.93260

  1   206     -5.86072    1.99722
  1   207     -5.79164    1.99445
  1   208     -5.43632    1.82292
  1   209     -5.23946    1.17951


Fermi level: -5.20316

No gap

Forces in eV/Ang:
  0 Cu    0.00666    0.01403   -0.07993
  1 Cu   -0.00004    0.00366   -0.03170
  2 Cu   -0.02416   -0.02536    0.05167
  3 Cu    0.00453    0.01242    0.38939
  4 Cu    0.00403    0.00027   -0.05694
  5 Cu   -0.02794    0.00116    0.01670
  6 Cu   -0.01135   -0.00663   -0.00889
  7 Cu    0.03016   -0.00803   -0.00588
  8 Cu    0.00002   -0.00166   -0.06411
  9 Cu    0.00555   -0.01229   -0.01510
 10 Cu   -0.00009    0.00680    0.05192
 11 Cu    0.00008   -0.00473   -0.04249
 12 Cu   -0.00662    0.01404   -0.08003
 13 Cu    0.02463   -0.01103    0.03181
 14 Cu    0.02422   -0.02517    0.05098
 15 Cu   -0.00462    0.01219    0.38717
 16 Cu   -0.00005   -0.01254   -0.06342
 17 Cu    0.02782    0.00134    0.01684
 18 Cu    0.00009    0.03990   -0.02349
 19 Cu    0.00204    0.32157   -0.29684
 20 Cu    0.00753   -0.00112   -0.05179
 21 Cu    0.00002    0.03435    0.06053
 22 Cu   -0.00617    0.02291    0.07600
 23 Cu   -0.00593    0.02353   -0.01164
 24 Cu    0.00006   -0.00244   -0.07493
 25 Cu   -0.02459   -0.01083    0.03218
 26 Cu   -0.00017   -0.00303   -0.00388
 27 Cu    0.00009   -0.00344   -0.01808
 28 Cu   -0.00387    0.00028   -0.05693
 29 Cu    0.00005    0.01148    0.02258
 30 Cu    0.01129   -0.00680   -0.00861
 31 Cu   -0.03017   -0.00813   -0.00564
 32 Cu   -0.00740   -0.00101   -0.05189
 33 Cu   -0.00552   -0.01236   -0.01518
 34 Cu    0.00639    0.02298    0.07614
 35 Cu    0.00599    0.02399   -0.01160
 36 H    -0.01769    1.13621    0.52788
 37 O    -0.00332   -1.13532   -2.00523
 38 C    -0.00936    1.91191    1.74936
 39 C    -0.01023    3.25239    3.61606
 40 O     0.00621   -5.84854   -4.92429

BFGS:    2 15:46:10    -2799.260786        3.1741
System changes: positions 

Initializing position-dependent things.

Density initialized from wave functions
                                          
                                          
                                          
                                          
                                          
                                          
                   O                      
                 H                        
                 OC                       
          Cu    CC     Cu                 
            Cu    Cu    Cu                
           Cu    Cu    Cu                 
             CCu   CCu   CCu              
              Cu     Cu    Cu             
             Cu     Cu    Cu              
               Cu     Cu    Cu            
                 Cu    Cu     Cu          
          Cu    Cu     Cu                 
            Cu    Cu    Cu                
             Cu     Cu    Cu              
                                          
                                          
                                          
                                          

Positions:
   0 Cu     0.000000    0.000000    9.999999    ( 0.0000,  0.0000,  0.0000)
   1 Cu     1.303035    0.752307   12.127846    ( 0.0000,  0.0000,  0.0000)
   2 Cu     0.003752    1.503967   14.257920    ( 0.0000,  0.0000,  0.0000)
   3 Cu     0.017974    0.007707   16.453001    ( 0.0000,  0.0000,  0.0000)
   4 Cu    -1.303035    2.256922    9.999999    ( 0.0000,  0.0000,  0.0000)
   5 Cu     0.000000    3.009230   12.127846    ( 0.0000,  0.0000,  0.0000)
   6 Cu    -1.301805    3.762377   14.261667    ( 0.0000,  0.0000,  0.0000)
   7 Cu    -1.306804    2.257341   16.398446    ( 0.0000,  0.0000,  0.0000)
   8 Cu    -2.606069    4.513845    9.999999    ( 0.0000,  0.0000,  0.0000)
   9 Cu    -1.303035    5.266152   12.127846    ( 0.0000,  0.0000,  0.0000)
  10 Cu    -2.606072    6.021389   14.256818    ( 0.0000,  0.0000,  0.0000)
  11 Cu    -2.606069    4.506359   16.391145    ( 0.0000,  0.0000,  0.0000)
  12 Cu     2.606069    0.000000    9.999999    ( 0.0000,  0.0000,  0.0000)
  13 Cu     3.909104    0.752307   12.127846    ( 0.0000,  0.0000,  0.0000)
  14 Cu     2.602333    1.503962   14.257892    ( 0.0000,  0.0000,  0.0000)
  15 Cu     2.588091    0.007704   16.452954    ( 0.0000,  0.0000,  0.0000)
  16 Cu     1.303035    2.256922    9.999999    ( 0.0000,  0.0000,  0.0000)
  17 Cu     2.606069    3.009230   12.127846    ( 0.0000,  0.0000,  0.0000)
  18 Cu     1.303035    3.757772   14.254913    ( 0.0000,  0.0000,  0.0000)
  19 Cu     1.303085    2.288762   16.411271    ( 0.0000,  0.0000,  0.0000)
  20 Cu     0.000000    4.513845    9.999999    ( 0.0000,  0.0000,  0.0000)
  21 Cu     1.303035    5.266152   12.127846    ( 0.0000,  0.0000,  0.0000)
  22 Cu    -0.004954    6.018681   14.268263    ( 0.0000,  0.0000,  0.0000)
  23 Cu    -0.001415    4.515895   16.395574    ( 0.0000,  0.0000,  0.0000)
  24 Cu     5.212139    0.000000    9.999999    ( 0.0000,  0.0000,  0.0000)
  25 Cu     6.515174    0.752307   12.127846    ( 0.0000,  0.0000,  0.0000)
  26 Cu     5.212129    1.504923   14.261790    ( 0.0000,  0.0000,  0.0000)
  27 Cu     5.212142    0.000383   16.391715    ( 0.0000,  0.0000,  0.0000)
  28 Cu     3.909104    2.256922    9.999999    ( 0.0000,  0.0000,  0.0000)
  29 Cu     5.212139    3.009230   12.127846    ( 0.0000,  0.0000,  0.0000)
  30 Cu     3.907872    3.762375   14.261664    ( 0.0000,  0.0000,  0.0000)
  31 Cu     3.912856    2.257347   16.398466    ( 0.0000,  0.0000,  0.0000)
  32 Cu     2.606069    4.513845    9.999999    ( 0.0000,  0.0000,  0.0000)
  33 Cu     3.909104    5.266152   12.127846    ( 0.0000,  0.0000,  0.0000)
  34 Cu     2.611023    6.018668   14.268252    ( 0.0000,  0.0000,  0.0000)
  35 Cu     2.607470    4.515881   16.395573    ( 0.0000,  0.0000,  0.0000)
  36 H      1.302049    0.377849   20.206199    ( 0.0000,  0.0000,  0.0000)
  37 O      1.305337   -0.107841   19.385468    ( 0.0000,  0.0000,  0.0000)
  38 C      1.301897    0.671619   18.213344    ( 0.0000,  0.0000,  0.0000)
  39 C      1.303789    2.183047   18.372742    ( 0.0000,  0.0000,  0.0000)
  40 O      1.301697    3.192200   19.385908    ( 0.0000,  0.0000,  0.0000)

Unit cell:
           periodic     x           y           z      points  spacing
  1. axis:    yes    7.818208    0.000000    0.000000    36     0.1881
  2. axis:    yes   -3.909104    6.770767    0.000000    36     0.1881
  3. axis:    no     0.000000    0.000000   26.383539   148     0.1783

  Lengths:   7.818208   7.818208  26.383539
  Angles:   90.000000  90.000000 120.000000

Effective grid spacing dv^(1/3) = 0.1938

     iter     time        total  log10-change:
                         energy  eigst   dens
iter:   1 15:47:02 -2799.411466  -2.30
iter:   2 15:47:24 -2799.380636  -2.88  -2.58
iter:   3 15:47:46 -2799.313560c -3.52  -2.61
iter:   4 15:48:08 -2799.303034c -3.89  -3.03
iter:   5 15:48:30 -2799.297283c -4.13  -3.21
iter:   6 15:48:52 -2799.297394c -4.58  -3.57
iter:   7 15:49:14 -2799.298062c -4.35  -3.64
iter:   8 15:49:36 -2799.297442c -4.89  -3.70
iter:   9 15:49:58 -2799.296649c -4.97  -3.73
iter:  10 15:50:20 -2799.296760c -5.88  -4.05c
iter:  11 15:50:42 -2799.296870c -5.48  -4.16c
iter:  12 15:51:04 -2799.296828c -6.24  -4.22c
iter:  13 15:51:26 -2799.296814c -6.75  -4.45c
iter:  14 15:51:48 -2799.296803c -6.33  -4.60c
iter:  15 15:52:10 -2799.296813c -7.19  -4.81c
iter:  16 15:52:32 -2799.296827c -6.93  -4.96c
iter:  17 15:52:54 -2799.296822c -7.65c -4.98c

Converged after 17 iterations.

Dipole moment: (-4.086719, -6.655148, -0.286932) |e|*Ang

Energy contributions relative to reference atoms: (reference = -1626921.717276)

Kinetic:       +238.518449
Potential:     -284.355800
External:        +0.000000
XC:            -2756.241964
Entropy (-ST):   -0.495973
Local:           +3.030480
--------------------------
Free energy:   -2799.544809
Extrapolated:  -2799.296822

Showing only first 2 kpts
 Kpt  Band  Eigenvalues  Occupancy
  0   206     -5.91207    1.99765
  0   207     -5.82277    1.99428
  0   208     -5.57553    1.93422
  0   209     -5.57100    1.93127

  1   206     -5.89397    1.99719
  1   207     -5.82575    1.99444
  1   208     -5.47188    1.82502
  1   209     -5.26544    1.13921


Fermi level: -5.23742

No gap

Forces in eV/Ang:
  0 Cu    0.00727    0.01457   -0.07943
  1 Cu   -0.00003    0.00323   -0.03053
  2 Cu   -0.01232   -0.01988    0.03873
  3 Cu    0.03537    0.02405    0.40558
  4 Cu    0.00436   -0.00039   -0.05740
  5 Cu   -0.02828    0.00097    0.01604
  6 Cu   -0.00589   -0.00349   -0.00687
  7 Cu    0.01839   -0.00621    0.00027
  8 Cu    0.00002   -0.00114   -0.06376
  9 Cu    0.00546   -0.01198   -0.01452
 10 Cu   -0.00004    0.00985    0.04240
 11 Cu    0.00005   -0.00890   -0.03785
 12 Cu   -0.00722    0.01457   -0.07952
 13 Cu    0.02378   -0.01060    0.03177
 14 Cu    0.01232   -0.01982    0.03811
 15 Cu   -0.03511    0.02351    0.40311
 16 Cu   -0.00005   -0.01374   -0.06353
 17 Cu    0.02818    0.00115    0.01617
 18 Cu    0.00005    0.02742   -0.03313
 19 Cu    0.00181    0.28719   -0.29265
 20 Cu    0.00788   -0.00075   -0.05248
 21 Cu    0.00002    0.03394    0.05817
 22 Cu   -0.01181    0.01616    0.07085
 23 Cu   -0.00973    0.02421   -0.00795
 24 Cu    0.00007   -0.00265   -0.07535
 25 Cu   -0.02374   -0.01040    0.03212
 26 Cu   -0.00016   -0.00042   -0.00347
 27 Cu    0.00005   -0.00085   -0.01692
 28 Cu   -0.00418   -0.00039   -0.05739
 29 Cu    0.00005    0.01151    0.02138
 30 Cu    0.00589   -0.00363   -0.00661
 31 Cu   -0.01835   -0.00623    0.00042
 32 Cu   -0.00777   -0.00063   -0.05258
 33 Cu   -0.00545   -0.01208   -0.01462
 34 Cu    0.01204    0.01628    0.07100
 35 Cu    0.00982    0.02461   -0.00794
 36 H    -0.01604    0.89179    0.48206
 37 O    -0.00610   -0.37849   -2.02904
 38 C    -0.00770    1.51993    1.54267
 39 C    -0.00996    2.94450    3.91834
 40 O     0.00490   -5.69148   -4.95932

BFGS:    3 15:53:04    -2799.296822        2.7728
System changes: positions 

Initializing position-dependent things.

Density initialized from wave functions
                                          
                                          
                                          
                                          
                                          
                                          
                   O                      
                 H                        
                 OC                       
          Cu    CC     Cu                 
            Cu    Cu    Cu                
           Cu    Cu    Cu                 
             CCu   CCu   CCu              
              Cu     Cu    Cu             
             Cu     Cu    Cu              
               Cu     Cu    Cu            
                 Cu    Cu     Cu          
          Cu    Cu     Cu                 
            Cu    Cu    Cu                
             Cu     Cu    Cu              
                                          
                                          
                                          
                                          

Positions:
   0 Cu     0.000000    0.000000    9.999999    ( 0.0000,  0.0000,  0.0000)
   1 Cu     1.303035    0.752307   12.127846    ( 0.0000,  0.0000,  0.0000)
   2 Cu     0.003534    1.503537   14.258745    ( 0.0000,  0.0000,  0.0000)
   3 Cu     0.019235    0.008421   16.463433    ( 0.0000,  0.0000,  0.0000)
   4 Cu    -1.303035    2.256922    9.999999    ( 0.0000,  0.0000,  0.0000)
   5 Cu     0.000000    3.009230   12.127846    ( 0.0000,  0.0000,  0.0000)
   6 Cu    -1.301898    3.762313   14.261529    ( 0.0000,  0.0000,  0.0000)
   7 Cu    -1.306482    2.257214   16.398490    ( 0.0000,  0.0000,  0.0000)
   8 Cu    -2.606069    4.513845    9.999999    ( 0.0000,  0.0000,  0.0000)
   9 Cu    -1.303035    5.266152   12.127846    ( 0.0000,  0.0000,  0.0000)
  10 Cu    -2.606073    6.021643   14.257717    ( 0.0000,  0.0000,  0.0000)
  11 Cu    -2.606068    4.506017   16.390220    ( 0.0000,  0.0000,  0.0000)
  12 Cu     2.606069    0.000000    9.999999    ( 0.0000,  0.0000,  0.0000)
  13 Cu     3.909104    0.752307   12.127846    ( 0.0000,  0.0000,  0.0000)
  14 Cu     2.602549    1.503533   14.258702    ( 0.0000,  0.0000,  0.0000)
  15 Cu     2.586835    0.008407   16.463329    ( 0.0000,  0.0000,  0.0000)
  16 Cu     1.303035    2.256922    9.999999    ( 0.0000,  0.0000,  0.0000)
  17 Cu     2.606069    3.009230   12.127846    ( 0.0000,  0.0000,  0.0000)
  18 Cu     1.303036    3.758321   14.254046    ( 0.0000,  0.0000,  0.0000)
  19 Cu     1.303129    2.296246   16.404568    ( 0.0000,  0.0000,  0.0000)
  20 Cu     0.000000    4.513845    9.999999    ( 0.0000,  0.0000,  0.0000)
  21 Cu     1.303035    5.266152   12.127846    ( 0.0000,  0.0000,  0.0000)
  22 Cu    -0.005287    6.019037   14.269980    ( 0.0000,  0.0000,  0.0000)
  23 Cu    -0.001670    4.516489   16.395415    ( 0.0000,  0.0000,  0.0000)
  24 Cu     5.212139    0.000000    9.999999    ( 0.0000,  0.0000,  0.0000)
  25 Cu     6.515174    0.752307   12.127846    ( 0.0000,  0.0000,  0.0000)
  26 Cu     5.212125    1.504912   14.261727    ( 0.0000,  0.0000,  0.0000)
  27 Cu     5.212143    0.000375   16.391288    ( 0.0000,  0.0000,  0.0000)
  28 Cu     3.909104    2.256922    9.999999    ( 0.0000,  0.0000,  0.0000)
  29 Cu     5.212139    3.009230   12.127846    ( 0.0000,  0.0000,  0.0000)
  30 Cu     3.907965    3.762308   14.261532    ( 0.0000,  0.0000,  0.0000)
  31 Cu     3.912534    2.257220   16.398514    ( 0.0000,  0.0000,  0.0000)
  32 Cu     2.606069    4.513845    9.999999    ( 0.0000,  0.0000,  0.0000)
  33 Cu     3.909104    5.266152   12.127846    ( 0.0000,  0.0000,  0.0000)
  34 Cu     2.611361    6.019027   14.269973    ( 0.0000,  0.0000,  0.0000)
  35 Cu     2.607727    4.516483   16.395415    ( 0.0000,  0.0000,  0.0000)
  36 H      1.301767    0.385393   20.195411    ( 0.0000,  0.0000,  0.0000)
  37 O      1.305133   -0.119161   19.381053    ( 0.0000,  0.0000,  0.0000)
  38 C      1.301537    0.668459   18.211653    ( 0.0000,  0.0000,  0.0000)
  39 C      1.303895    2.185196   18.350519    ( 0.0000,  0.0000,  0.0000)
  40 O      1.301572    3.173212   19.384307    ( 0.0000,  0.0000,  0.0000)

Unit cell:
           periodic     x           y           z      points  spacing
  1. axis:    yes    7.818208    0.000000    0.000000    36     0.1881
  2. axis:    yes   -3.909104    6.770767    0.000000    36     0.1881
  3. axis:    no     0.000000    0.000000   26.383539   148     0.1783

  Lengths:   7.818208   7.818208  26.383539
  Angles:   90.000000  90.000000 120.000000

Effective grid spacing dv^(1/3) = 0.1938

     iter     time        total  log10-change:
                         energy  eigst   dens
iter:   1 15:53:56 -2799.369937  -2.49
iter:   2 15:54:18 -2799.365856  -3.22  -2.90
iter:   3 15:54:40 -2799.348099c -3.85  -2.91
iter:   4 15:55:02 -2799.346003c -4.10  -3.36
iter:   5 15:55:24 -2799.345555c -4.33  -3.47
iter:   6 15:55:45 -2799.345853c -4.36  -3.64
iter:   7 15:56:07 -2799.345573c -4.98  -3.93
iter:   8 15:56:29 -2799.345113c -5.15  -3.93
iter:   9 15:56:51 -2799.345064c -5.46  -4.09c
iter:  10 15:57:13 -2799.345113c -5.66  -4.19c
iter:  11 15:57:34 -2799.345107c -6.06  -4.22c
iter:  12 15:57:56 -2799.345095c -6.91  -4.57c
iter:  13 15:58:18 -2799.345063c -6.70  -4.68c
iter:  14 15:58:40 -2799.345086c -7.00  -4.80c
iter:  15 15:59:02 -2799.345095c -7.48c -5.01c

Converged after 15 iterations.

Dipole moment: (-4.491242, -6.055877, -0.303928) |e|*Ang

Energy contributions relative to reference atoms: (reference = -1626921.717276)

Kinetic:       +238.380513
Potential:     -284.306318
External:        +0.000000
XC:            -2756.200934
Entropy (-ST):   -0.497157
Local:           +3.030223
--------------------------
Free energy:   -2799.593673
Extrapolated:  -2799.345095

Showing only first 2 kpts
 Kpt  Band  Eigenvalues  Occupancy
  0   206     -5.92564    1.99756
  0   207     -5.84618    1.99461
  0   208     -5.59265    1.93409
  0   209     -5.58811    1.93114

  1   206     -5.91233    1.99722
  1   207     -5.84306    1.99444
  1   208     -5.49344    1.83167
  1   209     -5.27408    1.09640


Fermi level: -5.25474

No gap

Forces in eV/Ang:
  0 Cu    0.00829    0.01554   -0.07935
  1 Cu   -0.00007    0.00321   -0.02844
  2 Cu   -0.00744   -0.01524    0.03398
  3 Cu    0.07959    0.04101    0.39653
  4 Cu    0.00477   -0.00090   -0.05854
  5 Cu   -0.02941    0.00022    0.01506
  6 Cu   -0.00178   -0.00204   -0.00451
  7 Cu    0.01167   -0.00646   -0.00021
  8 Cu    0.00003   -0.00077   -0.06415
  9 Cu    0.00675   -0.01126   -0.01133
 10 Cu   -0.00004    0.01000    0.04464
 11 Cu    0.00008   -0.00178   -0.03331
 12 Cu   -0.00825    0.01553   -0.07945
 13 Cu    0.02283   -0.01109    0.03435
 14 Cu    0.00729   -0.01520    0.03335
 15 Cu   -0.07922    0.04045    0.39363
 16 Cu   -0.00008   -0.01541   -0.06435
 17 Cu    0.02930    0.00047    0.01518
 18 Cu    0.00004    0.02413   -0.04018
 19 Cu    0.00171    0.30114   -0.36590
 20 Cu    0.00845   -0.00054   -0.05377
 21 Cu    0.00007    0.03554    0.05887
 22 Cu   -0.01025    0.01041    0.06255
 23 Cu   -0.01256    0.02614   -0.00695
 24 Cu    0.00007   -0.00302   -0.07603
 25 Cu   -0.02285   -0.01087    0.03473
 26 Cu   -0.00016    0.00041   -0.00351
 27 Cu    0.00006    0.00245   -0.01120
 28 Cu   -0.00459   -0.00090   -0.05851
 29 Cu    0.00004    0.01119    0.02085
 30 Cu    0.00188   -0.00206   -0.00429
 31 Cu   -0.01166   -0.00644    0.00004
 32 Cu   -0.00831   -0.00039   -0.05389
 33 Cu   -0.00668   -0.01135   -0.01145
 34 Cu    0.01057    0.01062    0.06278
 35 Cu    0.01280    0.02661   -0.00692
 36 H    -0.01526    0.72696    0.35109
 37 O    -0.01166   -0.02331   -1.87567
 38 C    -0.00460    1.33708    1.39277
 39 C    -0.01208    2.73160    4.24837
 40 O    -0.00118   -5.57403   -5.01116

BFGS:    4 15:59:11    -2799.345095        2.5375
System changes: positions 

Initializing position-dependent things.

Density initialized from wave functions
                                          
                                          
                                          
                                          
                                          
                                          
                  O                       
                 H                        
                 OC                       
          Cu    CC     Cu                 
            Cu    Cu    Cu                
           Cu Cu Cu Cu Cu                 
             Cu    Cu    CCu              
              Cu     Cu    Cu             
             Cu     Cu    Cu              
               Cu     Cu    Cu            
                 Cu    Cu     Cu          
          Cu    Cu     Cu                 
            Cu    Cu    Cu                
              Cu    Cu    Cu              
                                          
                                          
                                          
                                          

Positions:
   0 Cu     0.000000    0.000000    9.999999    ( 0.0000,  0.0000,  0.0000)
   1 Cu     1.303035    0.752307   12.127846    ( 0.0000,  0.0000,  0.0000)
   2 Cu     0.002921    1.500566   14.263953    ( 0.0000,  0.0000,  0.0000)
   3 Cu     0.034916    0.016286   16.549486    ( 0.0000,  0.0000,  0.0000)
   4 Cu    -1.303035    2.256922    9.999999    ( 0.0000,  0.0000,  0.0000)
   5 Cu     0.000000    3.009230   12.127846    ( 0.0000,  0.0000,  0.0000)
   6 Cu    -1.302081    3.762086   14.260806    ( 0.0000,  0.0000,  0.0000)
   7 Cu    -1.305235    2.256322   16.399276    ( 0.0000,  0.0000,  0.0000)
   8 Cu    -2.606069    4.513845    9.999999    ( 0.0000,  0.0000,  0.0000)
   9 Cu    -1.303035    5.266152   12.127846    ( 0.0000,  0.0000,  0.0000)
  10 Cu    -2.606081    6.024043   14.263788    ( 0.0000,  0.0000,  0.0000)
  11 Cu    -2.606058    4.502740   16.382952    ( 0.0000,  0.0000,  0.0000)
  12 Cu     2.606069    0.000000    9.999999    ( 0.0000,  0.0000,  0.0000)
  13 Cu     3.909104    0.752307   12.127846    ( 0.0000,  0.0000,  0.0000)
  14 Cu     2.603144    1.500572   14.263796    ( 0.0000,  0.0000,  0.0000)
  15 Cu     2.571196    0.016194   16.548927    ( 0.0000,  0.0000,  0.0000)
  16 Cu     1.303035    2.256922    9.999999    ( 0.0000,  0.0000,  0.0000)
  17 Cu     2.606069    3.009230   12.127846    ( 0.0000,  0.0000,  0.0000)
  18 Cu     1.303046    3.761493   14.246096    ( 0.0000,  0.0000,  0.0000)
  19 Cu     1.303451    2.358015   16.352674    ( 0.0000,  0.0000,  0.0000)
  20 Cu     0.000000    4.513845    9.999999    ( 0.0000,  0.0000,  0.0000)
  21 Cu     1.303035    5.266152   12.127846    ( 0.0000,  0.0000,  0.0000)
  22 Cu    -0.008483    6.021291   14.283303    ( 0.0000,  0.0000,  0.0000)
  23 Cu    -0.003988    4.521360   16.394303    ( 0.0000,  0.0000,  0.0000)
  24 Cu     5.212139    0.000000    9.999999    ( 0.0000,  0.0000,  0.0000)
  25 Cu     6.515174    0.752307   12.127846    ( 0.0000,  0.0000,  0.0000)
  26 Cu     5.212091    1.504936   14.261405    ( 0.0000,  0.0000,  0.0000)
  27 Cu     5.212153    0.000622   16.387891    ( 0.0000,  0.0000,  0.0000)
  28 Cu     3.909104    2.256922    9.999999    ( 0.0000,  0.0000,  0.0000)
  29 Cu     5.212139    3.009230   12.127846    ( 0.0000,  0.0000,  0.0000)
  30 Cu     3.908159    3.762069   14.260850    ( 0.0000,  0.0000,  0.0000)
  31 Cu     3.911278    2.256331   16.399341    ( 0.0000,  0.0000,  0.0000)
  32 Cu     2.606069    4.513845    9.999999    ( 0.0000,  0.0000,  0.0000)
  33 Cu     3.909104    5.266152   12.127846    ( 0.0000,  0.0000,  0.0000)
  34 Cu     2.614607    6.021306   14.283322    ( 0.0000,  0.0000,  0.0000)
  35 Cu     2.610069    4.521419   16.394305    ( 0.0000,  0.0000,  0.0000)
  36 H      1.299655    0.417385   20.112460    ( 0.0000,  0.0000,  0.0000)
  37 O      1.303730   -0.148058   19.340872    ( 0.0000,  0.0000,  0.0000)
  38 C      1.298977    0.639775   18.167356    ( 0.0000,  0.0000,  0.0000)
  39 C      1.304649    2.173023   18.207213    ( 0.0000,  0.0000,  0.0000)
  40 O      1.299883    3.013778   19.363936    ( 0.0000,  0.0000,  0.0000)

Unit cell:
           periodic     x           y           z      points  spacing
  1. axis:    yes    7.818208    0.000000    0.000000    36     0.1881
  2. axis:    yes   -3.909104    6.770767    0.000000    36     0.1881
  3. axis:    no     0.000000    0.000000   26.383539   148     0.1783

  Lengths:   7.818208   7.818208  26.383539
  Angles:   90.000000  90.000000 120.000000

Effective grid spacing dv^(1/3) = 0.1938

     iter     time        total  log10-change:
                         energy  eigst   dens
iter:   1 16:00:04 -2804.430774  -0.90
iter:   2 16:00:26 -2802.195629  -1.27  -1.77
iter:   3 16:00:48 -2799.918607  -1.95  -1.91
iter:   4 16:01:10 -2799.607271  -2.62  -2.26
iter:   5 16:01:32 -2799.587114  -2.96  -2.66
iter:   6 16:01:54 -2799.605963c -2.68  -2.73
iter:   7 16:02:15 -2799.566093c -3.43  -2.75
iter:   8 16:02:37 -2799.565566c -3.50  -3.00
iter:   9 16:02:59 -2799.564679c -3.42  -3.12
iter:  10 16:03:22 -2799.563790c -4.35  -3.27
iter:  11 16:03:44 -2799.561769c -4.19  -3.27
iter:  12 16:04:06 -2799.561286c -4.55  -3.49
iter:  13 16:04:28 -2799.561099c -4.98  -3.66
iter:  14 16:04:50 -2799.561089c -4.70  -3.69
iter:  15 16:05:12 -2799.560871c -5.43  -3.95
iter:  16 16:05:34 -2799.560758c -5.95  -4.15c
iter:  17 16:05:56 -2799.560769c -5.58  -4.16c
iter:  18 16:06:18 -2799.560786c -6.50  -4.40c
iter:  19 16:06:40 -2799.560796c -6.47  -4.52c
iter:  20 16:07:01 -2799.560801c -7.03  -4.55c
iter:  21 16:07:23 -2799.560795c -7.40  -4.56c
iter:  22 16:07:45 -2799.560790c -6.51  -4.59c
iter:  23 16:08:07 -2799.560777c -7.54c -4.82c

Converged after 23 iterations.

Dipole moment: (-5.591385, -5.129389, -0.383967) |e|*Ang

Energy contributions relative to reference atoms: (reference = -1626921.717276)

Kinetic:       +240.993416
Potential:     -286.531455
External:        +0.000000
XC:            -2756.805170
Entropy (-ST):   -0.494467
Local:           +3.029664
--------------------------
Free energy:   -2799.808010
Extrapolated:  -2799.560777

Showing only first 2 kpts
 Kpt  Band  Eigenvalues  Occupancy
  0   206     -5.99754    1.99739
  0   207     -5.93846    1.99529
  0   208     -5.67040    1.93337
  0   209     -5.66922    1.93260

  1   206     -6.00132    1.99748
  1   207     -5.91705    1.99417
  1   208     -5.60149    1.87151
  1   209     -5.32017    0.93284


Fermi level: -5.33362

No gap

Forces in eV/Ang:
  0 Cu    0.01378    0.01953   -0.07292
  1 Cu   -0.00004    0.00042   -0.01030
  2 Cu   -0.00085    0.00812   -0.00836
  3 Cu   -0.14848   -0.07477    0.17247
  4 Cu    0.00657   -0.00194   -0.05780
  5 Cu   -0.03883   -0.00381    0.00391
  6 Cu    0.01175    0.00423    0.00642
  7 Cu   -0.01944   -0.00574   -0.00842
  8 Cu    0.00006    0.00057   -0.06091
  9 Cu    0.01588   -0.00583    0.01538
 10 Cu   -0.00025   -0.00461    0.04931
 11 Cu    0.00015    0.06291    0.00040
 12 Cu   -0.01378    0.01951   -0.07301
 13 Cu    0.01779   -0.01630    0.05352
 14 Cu    0.00160    0.00788   -0.00871
 15 Cu    0.14284   -0.07275    0.17400
 16 Cu   -0.00012   -0.02366   -0.06354
 17 Cu    0.03872   -0.00339    0.00412
 18 Cu   -0.00023    0.03750   -0.11411
 19 Cu    0.00501    0.39824   -1.00547
 20 Cu    0.01011    0.00004   -0.05296
 21 Cu    0.00015    0.04906    0.06215
 22 Cu    0.01872   -0.01478    0.01869
 23 Cu   -0.03946    0.06113    0.00233
 24 Cu    0.00009   -0.00497   -0.07101
 25 Cu   -0.01775   -0.01596    0.05410
 26 Cu    0.00040   -0.00171   -0.00492
 27 Cu   -0.00004    0.01943    0.03837
 28 Cu   -0.00633   -0.00197   -0.05760
 29 Cu   -0.00001    0.00861    0.01586
 30 Cu   -0.01189    0.00433    0.00640
 31 Cu    0.02000   -0.00616   -0.00806
 32 Cu   -0.01002    0.00029   -0.05319
 33 Cu   -0.01589   -0.00606    0.01506
 34 Cu   -0.01879   -0.01501    0.01944
 35 Cu    0.03927    0.06106    0.00239
 36 H    -0.01063    0.64894    0.61863
 37 O     0.00804    0.70485   -2.00876
 38 C     0.01450    0.65914    0.87512
 39 C    -0.03772    1.62003    6.51988
 40 O     0.04713   -4.38633   -5.60504

BFGS:    5 16:08:17    -2799.560777        2.7964
System changes: positions 

Initializing position-dependent things.

Density initialized from wave functions
                                          
                                          
                                          
                                          
                                          
                                          
                  O                       
                 H                        
                 OC                       
          Cu    CC     Cu                 
            Cu    Cu    Cu                
           Cu Cu Cu Cu Cu                 
             Cu    Cu    CCu              
              Cu     Cu    Cu             
             Cu     Cu    Cu              
               Cu     Cu    Cu            
                 Cu    Cu     Cu          
          Cu    Cu     Cu                 
            Cu    Cu    Cu                
             Cu     Cu    Cu              
                                          
                                          
                                          
                                          

Positions:
   0 Cu     0.000000    0.000000    9.999999    ( 0.0000,  0.0000,  0.0000)
   1 Cu     1.303035    0.752307   12.127846    ( 0.0000,  0.0000,  0.0000)
   2 Cu     0.003133    1.500169   14.264267    ( 0.0000,  0.0000,  0.0000)
   3 Cu     0.035894    0.016716   16.569230    ( 0.0000,  0.0000,  0.0000)
   4 Cu    -1.303035    2.256922    9.999999    ( 0.0000,  0.0000,  0.0000)
   5 Cu     0.000000    3.009230   12.127846    ( 0.0000,  0.0000,  0.0000)
   6 Cu    -1.301865    3.762182   14.260840    ( 0.0000,  0.0000,  0.0000)
   7 Cu    -1.305645    2.256167   16.399555    ( 0.0000,  0.0000,  0.0000)
   8 Cu    -2.606069    4.513845    9.999999    ( 0.0000,  0.0000,  0.0000)
   9 Cu    -1.303035    5.266152   12.127846    ( 0.0000,  0.0000,  0.0000)
  10 Cu    -2.606086    6.024577   14.264861    ( 0.0000,  0.0000,  0.0000)
  11 Cu    -2.606054    4.502389   16.381506    ( 0.0000,  0.0000,  0.0000)
  12 Cu     2.606069    0.000000    9.999999    ( 0.0000,  0.0000,  0.0000)
  13 Cu     3.909104    0.752307   12.127846    ( 0.0000,  0.0000,  0.0000)
  14 Cu     2.602945    1.500173   14.264087    ( 0.0000,  0.0000,  0.0000)
  15 Cu     2.570137    0.016644   16.568636    ( 0.0000,  0.0000,  0.0000)
  16 Cu     1.303035    2.256922    9.999999    ( 0.0000,  0.0000,  0.0000)
  17 Cu     2.606069    3.009230   12.127846    ( 0.0000,  0.0000,  0.0000)
  18 Cu     1.303044    3.762136   14.242847    ( 0.0000,  0.0000,  0.0000)
  19 Cu     1.303575    2.375044   16.333544    ( 0.0000,  0.0000,  0.0000)
  20 Cu     0.000000    4.513845    9.999999    ( 0.0000,  0.0000,  0.0000)
  21 Cu     1.303035    5.266152   12.127846    ( 0.0000,  0.0000,  0.0000)
  22 Cu    -0.009141    6.021470   14.286172    ( 0.0000,  0.0000,  0.0000)
  23 Cu    -0.004981    4.523086   16.394187    ( 0.0000,  0.0000,  0.0000)
  24 Cu     5.212139    0.000000    9.999999    ( 0.0000,  0.0000,  0.0000)
  25 Cu     6.515174    0.752307   12.127846    ( 0.0000,  0.0000,  0.0000)
  26 Cu     5.212092    1.504932   14.261369    ( 0.0000,  0.0000,  0.0000)
  27 Cu     5.212153    0.000933   16.387557    ( 0.0000,  0.0000,  0.0000)
  28 Cu     3.909104    2.256922    9.999999    ( 0.0000,  0.0000,  0.0000)
  29 Cu     5.212139    3.009230   12.127846    ( 0.0000,  0.0000,  0.0000)
  30 Cu     3.907940    3.762163   14.260888    ( 0.0000,  0.0000,  0.0000)
  31 Cu     3.911694    2.256171   16.399632    ( 0.0000,  0.0000,  0.0000)
  32 Cu     2.606069    4.513845    9.999999    ( 0.0000,  0.0000,  0.0000)
  33 Cu     3.909104    5.266152   12.127846    ( 0.0000,  0.0000,  0.0000)
  34 Cu     2.615269    6.021483   14.286204    ( 0.0000,  0.0000,  0.0000)
  35 Cu     2.611058    4.523150   16.394191    ( 0.0000,  0.0000,  0.0000)
  36 H      1.299192    0.423945   20.109128    ( 0.0000,  0.0000,  0.0000)
  37 O      1.303971   -0.129549   19.330411    ( 0.0000,  0.0000,  0.0000)
  38 C      1.298492    0.627746   18.142768    ( 0.0000,  0.0000,  0.0000)
  39 C      1.304774    2.156402   18.191167    ( 0.0000,  0.0000,  0.0000)
  40 O      1.299986    2.979959   19.360197    ( 0.0000,  0.0000,  0.0000)

Unit cell:
           periodic     x           y           z      points  spacing
  1. axis:    yes    7.818208    0.000000    0.000000    36     0.1881
  2. axis:    yes   -3.909104    6.770767    0.000000    36     0.1881
  3. axis:    no     0.000000    0.000000   26.383539   148     0.1783

  Lengths:   7.818208   7.818208  26.383539
  Angles:   90.000000  90.000000 120.000000

Effective grid spacing dv^(1/3) = 0.1938

     iter     time        total  log10-change:
                         energy  eigst   dens
iter:   1 16:09:09 -2800.019056  -2.00
iter:   2 16:09:31 -2799.984780  -2.37  -2.27
iter:   3 16:09:53 -2799.645120  -3.06  -2.31
iter:   4 16:10:15 -2799.625755  -3.96  -2.87
iter:   5 16:10:37 -2799.623540c -3.74  -3.25
iter:   6 16:10:59 -2799.621987c -4.39  -3.46
iter:   7 16:11:21 -2799.622153c -4.68  -3.53
iter:   8 16:11:43 -2799.622137c -4.65  -3.52
iter:   9 16:12:05 -2799.622007c -5.34  -3.91
iter:  10 16:12:27 -2799.622044c -5.31  -3.83
iter:  11 16:12:49 -2799.621723c -5.36  -3.79
iter:  12 16:13:11 -2799.621807c -6.26  -4.24c
iter:  13 16:13:33 -2799.621838c -6.01  -4.20c
iter:  14 16:13:55 -2799.621769c -6.67  -4.45c
iter:  15 16:14:17 -2799.621777c -7.04  -4.59c
iter:  16 16:14:39 -2799.621778c -7.27  -4.64c
iter:  17 16:15:01 -2799.621778c -7.04  -4.76c
iter:  18 16:15:23 -2799.621775c -7.19  -4.84c
iter:  19 16:15:45 -2799.621781c -7.72c -4.95c

Converged after 19 iterations.

Dipole moment: (-5.014694, -6.109548, -0.384533) |e|*Ang

Energy contributions relative to reference atoms: (reference = -1626921.717276)

Kinetic:       +241.847709
Potential:     -287.199334
External:        +0.000000
XC:            -2757.056796
Entropy (-ST):   -0.493046
Local:           +3.033163
--------------------------
Free energy:   -2799.868304
Extrapolated:  -2799.621781

Showing only first 2 kpts
 Kpt  Band  Eigenvalues  Occupancy
  0   206     -6.00101    1.99747
  0   207     -5.93423    1.99507
  0   208     -5.67073    1.93344
  0   209     -5.67047    1.93327

  1   206     -6.00351    1.99753
  1   207     -5.91527    1.99405
  1   208     -5.60250    1.87247
  1   209     -5.32101    0.93596


Fermi level: -5.33384

No gap

Forces in eV/Ang:
  0 Cu    0.01473    0.01964   -0.07236
  1 Cu   -0.00005   -0.00168   -0.00850
  2 Cu   -0.01544    0.00638   -0.01578
  3 Cu   -0.28584   -0.13525    0.02546
  4 Cu    0.00664   -0.00199   -0.05862
  5 Cu   -0.04204   -0.00553    0.00197
  6 Cu    0.00821    0.00039    0.00494
  7 Cu   -0.00417   -0.00436   -0.01098
  8 Cu    0.00006    0.00123   -0.06163
  9 Cu    0.01690   -0.00364    0.02084
 10 Cu   -0.00008   -0.00925    0.05086
 11 Cu    0.00010    0.07067    0.00867
 12 Cu   -0.01475    0.01962   -0.07246
 13 Cu    0.01761   -0.01829    0.05769
 14 Cu    0.01592    0.00600   -0.01618
 15 Cu    0.27808   -0.13097    0.02982
 16 Cu   -0.00014   -0.02521   -0.06437
 17 Cu    0.04194   -0.00505    0.00216
 18 Cu   -0.00022    0.05696   -0.13918
 19 Cu    0.00760    0.31473   -0.80948
 20 Cu    0.01002    0.00057   -0.05400
 21 Cu    0.00017    0.05506    0.06423
 22 Cu    0.02698   -0.01298    0.00259
 23 Cu   -0.03331    0.05569    0.00398
 24 Cu    0.00010   -0.00535   -0.07111
 25 Cu   -0.01758   -0.01792    0.05833
 26 Cu    0.00033   -0.00130   -0.00810
 27 Cu   -0.00007    0.01664    0.04736
 28 Cu   -0.00638   -0.00201   -0.05840
 29 Cu   -0.00002    0.00778    0.01757
 30 Cu   -0.00827    0.00055    0.00493
 31 Cu    0.00483   -0.00457   -0.01066
 32 Cu   -0.00995    0.00084   -0.05423
 33 Cu   -0.01691   -0.00391    0.02046
 34 Cu   -0.02698   -0.01307    0.00320
 35 Cu    0.03334    0.05586    0.00409
 36 H    -0.01286    0.80432    0.54192
 37 O    -0.00270    0.25184   -1.95995
 38 C     0.00691    0.90044    1.24243
 39 C    -0.03569    1.66834    6.40514
 40 O     0.03384   -4.31682   -5.71126

BFGS:    6 16:15:55    -2799.621781        2.5491
System changes: positions 

Initializing position-dependent things.

Density initialized from wave functions
                                          
                                          
                                          
                                          
                                          
                                          
                  O                       
                 H                        
                 OC                       
          Cu    CC     Cu                 
            Cu    Cu    Cu                
           Cu Cu Cu Cu Cu                 
             Cu    Cu    CCu              
              Cu     Cu    Cu             
             Cu     Cu    Cu              
               Cu     Cu    Cu            
                 Cu    Cu     Cu          
          Cu    Cu     Cu                 
            Cu    Cu    Cu                
             Cu     Cu    Cu              
                                          
                                          
                                          
                                          

Positions:
   0 Cu     0.000000    0.000000    9.999999    ( 0.0000,  0.0000,  0.0000)
   1 Cu     1.303035    0.752307   12.127846    ( 0.0000,  0.0000,  0.0000)
   2 Cu     0.003068    1.499904   14.263882    ( 0.0000,  0.0000,  0.0000)
   3 Cu     0.029283    0.013539   16.591971    ( 0.0000,  0.0000,  0.0000)
   4 Cu    -1.303035    2.256922    9.999999    ( 0.0000,  0.0000,  0.0000)
   5 Cu     0.000000    3.009230   12.127846    ( 0.0000,  0.0000,  0.0000)
   6 Cu    -1.301375    3.762312   14.261024    ( 0.0000,  0.0000,  0.0000)
   7 Cu    -1.306276    2.255951   16.399735    ( 0.0000,  0.0000,  0.0000)
   8 Cu    -2.606069    4.513845    9.999999    ( 0.0000,  0.0000,  0.0000)
   9 Cu    -1.303035    5.266152   12.127846    ( 0.0000,  0.0000,  0.0000)
  10 Cu    -2.606091    6.025012   14.266986    ( 0.0000,  0.0000,  0.0000)
  11 Cu    -2.606049    4.503443   16.380113    ( 0.0000,  0.0000,  0.0000)
  12 Cu     2.606069    0.000000    9.999999    ( 0.0000,  0.0000,  0.0000)
  13 Cu     3.909104    0.752307   12.127846    ( 0.0000,  0.0000,  0.0000)
  14 Cu     2.603033    1.499894   14.263667    ( 0.0000,  0.0000,  0.0000)
  15 Cu     2.576448    0.013618   16.591478    ( 0.0000,  0.0000,  0.0000)
  16 Cu     1.303035    2.256922    9.999999    ( 0.0000,  0.0000,  0.0000)
  17 Cu     2.606069    3.009230   12.127846    ( 0.0000,  0.0000,  0.0000)
  18 Cu     1.303037    3.764169   14.235340    ( 0.0000,  0.0000,  0.0000)
  19 Cu     1.303924    2.401177   16.296419    ( 0.0000,  0.0000,  0.0000)
  20 Cu     0.000000    4.513845    9.999999    ( 0.0000,  0.0000,  0.0000)
  21 Cu     1.303035    5.266152   12.127846    ( 0.0000,  0.0000,  0.0000)
  22 Cu    -0.009348    6.021325   14.289397    ( 0.0000,  0.0000,  0.0000)
  23 Cu    -0.006877    4.526324   16.394224    ( 0.0000,  0.0000,  0.0000)
  24 Cu     5.212139    0.000000    9.999999    ( 0.0000,  0.0000,  0.0000)
  25 Cu     6.515174    0.752307   12.127846    ( 0.0000,  0.0000,  0.0000)
  26 Cu     5.212099    1.504931   14.261137    ( 0.0000,  0.0000,  0.0000)
  27 Cu     5.212152    0.001673   16.388302    ( 0.0000,  0.0000,  0.0000)
  28 Cu     3.909104    2.256922    9.999999    ( 0.0000,  0.0000,  0.0000)
  29 Cu     5.212139    3.009230   12.127846    ( 0.0000,  0.0000,  0.0000)
  30 Cu     3.907447    3.762295   14.261078    ( 0.0000,  0.0000,  0.0000)
  31 Cu     3.912348    2.255947   16.399832    ( 0.0000,  0.0000,  0.0000)
  32 Cu     2.606069    4.513845    9.999999    ( 0.0000,  0.0000,  0.0000)
  33 Cu     3.909104    5.266152   12.127846    ( 0.0000,  0.0000,  0.0000)
  34 Cu     2.615481    6.021334   14.289454    ( 0.0000,  0.0000,  0.0000)
  35 Cu     2.612953    4.526399   16.394232    ( 0.0000,  0.0000,  0.0000)
  36 H      1.298448    0.440034   20.106048    ( 0.0000,  0.0000,  0.0000)
  37 O      1.304145   -0.103912   19.322409    ( 0.0000,  0.0000,  0.0000)
  38 C      1.297547    0.602660   18.103678    ( 0.0000,  0.0000,  0.0000)
  39 C      1.304989    2.129254   18.179549    ( 0.0000,  0.0000,  0.0000)
  40 O      1.300136    2.936238   19.360080    ( 0.0000,  0.0000,  0.0000)

Unit cell:
           periodic     x           y           z      points  spacing
  1. axis:    yes    7.818208    0.000000    0.000000    36     0.1881
  2. axis:    yes   -3.909104    6.770767    0.000000    36     0.1881
  3. axis:    no     0.000000    0.000000   26.383539   148     0.1783

  Lengths:   7.818208   7.818208  26.383539
  Angles:   90.000000  90.000000 120.000000

Effective grid spacing dv^(1/3) = 0.1938

     iter     time        total  log10-change:
                         energy  eigst   dens
iter:   1 16:16:47 -2799.929203  -1.71
iter:   2 16:17:09 -2799.910424  -2.33  -2.35
iter:   3 16:17:31 -2799.686173  -2.99  -2.38
iter:   4 16:17:53 -2799.668130  -3.59  -2.81
iter:   5 16:18:15 -2799.664679c -3.42  -3.07
iter:   6 16:18:37 -2799.662019c -4.21  -3.38
iter:   7 16:18:59 -2799.662399c -4.14  -3.44
iter:   8 16:19:21 -2799.663358c -4.29  -3.52
iter:   9 16:19:43 -2799.661778c -4.67  -3.74
iter:  10 16:20:05 -2799.661935c -4.44  -3.80
iter:  11 16:20:27 -2799.661824c -5.27  -3.98
iter:  12 16:20:49 -2799.661616c -5.18  -4.11c
iter:  13 16:21:11 -2799.661598c -5.83  -4.30c
iter:  14 16:21:33 -2799.661587c -6.19  -4.44c
iter:  15 16:21:55 -2799.661601c -6.50  -4.64c
iter:  16 16:22:17 -2799.661596c -6.61  -4.72c
iter:  17 16:22:39 -2799.661602c -6.89  -4.96c
iter:  18 16:23:01 -2799.661601c -6.97  -5.05c
iter:  19 16:23:23 -2799.661598c -7.61c -5.21c

Converged after 19 iterations.

Dipole moment: (-3.919886, -7.505186, -0.392130) |e|*Ang

Energy contributions relative to reference atoms: (reference = -1626921.717276)

Kinetic:       +242.488681
Potential:     -287.716234
External:        +0.000000
XC:            -2757.233340
Entropy (-ST):   -0.490567
Local:           +3.044579
--------------------------
Free energy:   -2799.906882
Extrapolated:  -2799.661598

Showing only first 2 kpts
 Kpt  Band  Eigenvalues  Occupancy
  0   206     -6.01491    1.99761
  0   207     -5.93244    1.99456
  0   208     -5.68032    1.93436
  0   209     -5.67759    1.93261

  1   206     -6.01488    1.99761
  1   207     -5.91996    1.99384
  1   208     -5.61096    1.87284
  1   209     -5.33211    0.95067


Fermi level: -5.34198

No gap

Forces in eV/Ang:
  0 Cu    0.01577    0.02005   -0.07214
  1 Cu   -0.00003   -0.00491   -0.00611
  2 Cu   -0.03221   -0.00956   -0.02796
  3 Cu   -0.38025   -0.18264   -0.18131
  4 Cu    0.00721   -0.00085   -0.05890
  5 Cu   -0.04814   -0.00686   -0.00849
  6 Cu   -0.00405   -0.00169    0.00423
  7 Cu    0.01909    0.00044   -0.01111
  8 Cu    0.00006    0.00057   -0.06246
  9 Cu    0.01900   -0.00211    0.02739
 10 Cu   -0.00005   -0.00717    0.04348
 11 Cu    0.00024    0.05076    0.01527
 12 Cu   -0.01583    0.02003   -0.07226
 13 Cu    0.01846   -0.02136    0.05933
 14 Cu    0.03281   -0.00988   -0.02856
 15 Cu    0.36944   -0.17698   -0.16832
 16 Cu   -0.00016   -0.02566   -0.06517
 17 Cu    0.04807   -0.00637   -0.00828
 18 Cu   -0.00013    0.07599   -0.16961
 19 Cu    0.00804    0.32886   -0.48087
 20 Cu    0.01069   -0.00022   -0.05396
 21 Cu    0.00017    0.06474    0.05661
 22 Cu    0.02354    0.00045   -0.01946
 23 Cu   -0.01409    0.03257    0.00322
 24 Cu    0.00010   -0.00622   -0.07055
 25 Cu   -0.01838   -0.02095    0.06013
 26 Cu    0.00019   -0.00252   -0.00727
 27 Cu   -0.00038    0.00795    0.05297
 28 Cu   -0.00690   -0.00089   -0.05863
 29 Cu   -0.00005    0.00747    0.01646
 30 Cu    0.00397   -0.00167    0.00424
 31 Cu   -0.01804    0.00036   -0.01088
 32 Cu   -0.01062    0.00007   -0.05419
 33 Cu   -0.01908   -0.00246    0.02695
 34 Cu   -0.02370    0.00024   -0.01918
 35 Cu    0.01438    0.03317    0.00339
 36 H    -0.01791    1.00116    0.41682
 37 O    -0.00673   -0.43779   -2.05259
 38 C     0.02248    1.35982    2.05843
 39 C    -0.03596    1.88100    5.87802
 40 O     0.01986   -4.27075   -5.86036

BFGS:    7 16:23:32    -2799.661598        2.2978
System changes: positions 

Initializing position-dependent things.

Density initialized from wave functions
                                          
                                          
                                          
                                          
                                          
                                          
                  O                       
                 H                        
                 OC                       
          Cu    CC     Cu                 
            Cu    Cu    Cu                
           Cu Cu Cu Cu Cu                 
             Cu    Cu    CCu              
              Cu     Cu    Cu             
             Cu     Cu    Cu              
               Cu     Cu    Cu            
                 Cu    Cu     Cu          
          Cu    Cu     Cu                 
            Cu    Cu    Cu                
             Cu     Cu    Cu              
                                          
                                          
                                          
                                          

Positions:
   0 Cu     0.000000    0.000000    9.999999    ( 0.0000,  0.0000,  0.0000)
   1 Cu     1.303035    0.752307   12.127846    ( 0.0000,  0.0000,  0.0000)
   2 Cu     0.002631    1.499669   14.263652    ( 0.0000,  0.0000,  0.0000)
   3 Cu     0.024128    0.011016   16.596464    ( 0.0000,  0.0000,  0.0000)
   4 Cu    -1.303035    2.256922    9.999999    ( 0.0000,  0.0000,  0.0000)
   5 Cu     0.000000    3.009230   12.127846    ( 0.0000,  0.0000,  0.0000)
   6 Cu    -1.301315    3.762321   14.261098    ( 0.0000,  0.0000,  0.0000)
   7 Cu    -1.306128    2.255880   16.399618    ( 0.0000,  0.0000,  0.0000)
   8 Cu    -2.606069    4.513845    9.999999    ( 0.0000,  0.0000,  0.0000)
   9 Cu    -1.303035    5.266152   12.127846    ( 0.0000,  0.0000,  0.0000)
  10 Cu    -2.606093    6.025061   14.268295    ( 0.0000,  0.0000,  0.0000)
  11 Cu    -2.606045    4.504327   16.379893    ( 0.0000,  0.0000,  0.0000)
  12 Cu     2.606069    0.000000    9.999999    ( 0.0000,  0.0000,  0.0000)
  13 Cu     3.909104    0.752307   12.127846    ( 0.0000,  0.0000,  0.0000)
  14 Cu     2.603479    1.499652   14.263418    ( 0.0000,  0.0000,  0.0000)
  15 Cu     2.581411    0.011188   16.596143    ( 0.0000,  0.0000,  0.0000)
  16 Cu     1.303035    2.256922    9.999999    ( 0.0000,  0.0000,  0.0000)
  17 Cu     2.606069    3.009230   12.127846    ( 0.0000,  0.0000,  0.0000)
  18 Cu     1.303034    3.765661   14.231413    ( 0.0000,  0.0000,  0.0000)
  19 Cu     1.304099    2.412686   16.279558    ( 0.0000,  0.0000,  0.0000)
  20 Cu     0.000000    4.513845    9.999999    ( 0.0000,  0.0000,  0.0000)
  21 Cu     1.303035    5.266152   12.127846    ( 0.0000,  0.0000,  0.0000)
  22 Cu    -0.009138    6.021326   14.290071    ( 0.0000,  0.0000,  0.0000)
  23 Cu    -0.007522    4.527527   16.394254    ( 0.0000,  0.0000,  0.0000)
  24 Cu     5.212139    0.000000    9.999999    ( 0.0000,  0.0000,  0.0000)
  25 Cu     6.515174    0.752307   12.127846    ( 0.0000,  0.0000,  0.0000)
  26 Cu     5.212101    1.504907   14.260976    ( 0.0000,  0.0000,  0.0000)
  27 Cu     5.212146    0.001954   16.389127    ( 0.0000,  0.0000,  0.0000)
  28 Cu     3.909104    2.256922    9.999999    ( 0.0000,  0.0000,  0.0000)
  29 Cu     5.212139    3.009230   12.127846    ( 0.0000,  0.0000,  0.0000)
  30 Cu     3.907388    3.762305   14.261155    ( 0.0000,  0.0000,  0.0000)
  31 Cu     3.912218    2.255874   16.399723    ( 0.0000,  0.0000,  0.0000)
  32 Cu     2.606069    4.513845    9.999999    ( 0.0000,  0.0000,  0.0000)
  33 Cu     3.909104    5.266152   12.127846    ( 0.0000,  0.0000,  0.0000)
  34 Cu     2.615273    6.021334   14.290139    ( 0.0000,  0.0000,  0.0000)
  35 Cu     2.613605    4.527615   16.394265    ( 0.0000,  0.0000,  0.0000)
  36 H      1.298072    0.450530   20.095998    ( 0.0000,  0.0000,  0.0000)
  37 O      1.303944   -0.109998   19.322634    ( 0.0000,  0.0000,  0.0000)
  38 C      1.297371    0.594856   18.098662    ( 0.0000,  0.0000,  0.0000)
  39 C      1.305043    2.123541   18.173511    ( 0.0000,  0.0000,  0.0000)
  40 O      1.300035    2.920658   19.360726    ( 0.0000,  0.0000,  0.0000)

Unit cell:
           periodic     x           y           z      points  spacing
  1. axis:    yes    7.818208    0.000000    0.000000    36     0.1881
  2. axis:    yes   -3.909104    6.770767    0.000000    36     0.1881
  3. axis:    no     0.000000    0.000000   26.383539   148     0.1783

  Lengths:   7.818208   7.818208  26.383539
  Angles:   90.000000  90.000000 120.000000

Effective grid spacing dv^(1/3) = 0.1938

     iter     time        total  log10-change:
                         energy  eigst   dens
iter:   1 16:24:25 -2799.686396  -2.60
iter:   2 16:24:47 -2799.683132  -3.53  -3.15
iter:   3 16:25:09 -2799.680551c -4.15  -3.18
iter:   4 16:25:31 -2799.680290c -3.97  -3.35
iter:   5 16:25:53 -2799.678573c -4.66  -3.40
iter:   6 16:26:15 -2799.678315c -4.71  -3.75
iter:   7 16:26:37 -2799.678405c -5.17  -4.04c
iter:   8 16:26:59 -2799.678338c -5.16  -4.04c
iter:   9 16:27:20 -2799.678289c -5.77  -4.24c
[...]
   4 Cu    -1.303035    2.256922    9.999999    ( 0.0000,  0.0000,  0.0000)
   5 Cu     0.000000    3.009230   12.127846    ( 0.0000,  0.0000,  0.0000)
   6 Cu    -1.299666    3.762396   14.259673    ( 0.0000,  0.0000,  0.0000)
   7 Cu    -1.304578    2.255985   16.394857    ( 0.0000,  0.0000,  0.0000)
   8 Cu    -2.606069    4.513845    9.999999    ( 0.0000,  0.0000,  0.0000)
   9 Cu    -1.303035    5.266152   12.127846    ( 0.0000,  0.0000,  0.0000)
  10 Cu    -2.607579    6.021884   14.234741    ( 0.0000,  0.0000,  0.0000)
  11 Cu    -2.603588    4.509026   16.386355    ( 0.0000,  0.0000,  0.0000)
  12 Cu     2.606069    0.000000    9.999999    ( 0.0000,  0.0000,  0.0000)
  13 Cu     3.909104    0.752307   12.127846    ( 0.0000,  0.0000,  0.0000)
  14 Cu     2.601880    1.504698   14.257462    ( 0.0000,  0.0000,  0.0000)
  15 Cu     2.613371   -0.001820   16.399904    ( 0.0000,  0.0000,  0.0000)
  16 Cu     1.303035    2.256922    9.999999    ( 0.0000,  0.0000,  0.0000)
  17 Cu     2.606069    3.009230   12.127846    ( 0.0000,  0.0000,  0.0000)
  18 Cu     1.302439    3.765493   14.245340    ( 0.0000,  0.0000,  0.0000)
  19 Cu     1.295739    2.424810   16.340204    ( 0.0000,  0.0000,  0.0000)
  20 Cu     0.000000    4.513845    9.999999    ( 0.0000,  0.0000,  0.0000)
  21 Cu     1.303035    5.266152   12.127846    ( 0.0000,  0.0000,  0.0000)
  22 Cu    -0.000191    6.018498   14.250110    ( 0.0000,  0.0000,  0.0000)
  23 Cu    -0.008574    4.531894   16.390931    ( 0.0000,  0.0000,  0.0000)
  24 Cu     5.212139    0.000000    9.999999    ( 0.0000,  0.0000,  0.0000)
  25 Cu     6.515174    0.752307   12.127846    ( 0.0000,  0.0000,  0.0000)
  26 Cu     5.213718    1.503326   14.259567    ( 0.0000,  0.0000,  0.0000)
  27 Cu     5.211056    0.003200   16.382465    ( 0.0000,  0.0000,  0.0000)
  28 Cu     3.909104    2.256922    9.999999    ( 0.0000,  0.0000,  0.0000)
  29 Cu     5.212139    3.009230   12.127846    ( 0.0000,  0.0000,  0.0000)
  30 Cu     3.906084    3.763704   14.258595    ( 0.0000,  0.0000,  0.0000)
  31 Cu     3.910109    2.253856   16.396839    ( 0.0000,  0.0000,  0.0000)
  32 Cu     2.606069    4.513845    9.999999    ( 0.0000,  0.0000,  0.0000)
  33 Cu     3.909104    5.266152   12.127846    ( 0.0000,  0.0000,  0.0000)
  34 Cu     2.607030    6.019289   14.253750    ( 0.0000,  0.0000,  0.0000)
  35 Cu     2.611156    4.531581   16.389442    ( 0.0000,  0.0000,  0.0000)
  36 H      1.289967   -0.060956   19.829027    ( 0.0000,  0.0000,  0.0000)
  37 O      1.345045   -0.531882   19.073174    ( 0.0000,  0.0000,  0.0000)
  38 C      1.344427    0.237137   18.000823    ( 0.0000,  0.0000,  0.0000)
  39 C      1.326284    1.746738   18.179472    ( 0.0000,  0.0000,  0.0000)
  40 O      1.366682    2.417486   19.441757    ( 0.0000,  0.0000,  0.0000)

Unit cell:
           periodic     x           y           z      points  spacing
  1. axis:    yes    7.818208    0.000000    0.000000    36     0.1881
  2. axis:    yes   -3.909104    6.770767    0.000000    36     0.1881
  3. axis:    no     0.000000    0.000000   26.383539   148     0.1783

  Lengths:   7.818208   7.818208  26.383539
  Angles:   90.000000  90.000000 120.000000

Effective grid spacing dv^(1/3) = 0.1938

     iter     time        total  log10-change:
                         energy  eigst   dens
iter:   1 14:06:33 -2799.738700  -2.36
iter:   2 14:06:55 -2799.732046  -3.17  -2.91
iter:   3 14:07:16 -2799.716440c -3.79  -2.89
iter:   4 14:07:38 -2799.713356c -3.98  -3.23
iter:   5 14:07:59 -2799.710531c -4.09  -3.24
iter:   6 14:08:21 -2799.710176c -4.35  -3.66
iter:   7 14:08:42 -2799.710209c -4.59  -3.71
iter:   8 14:09:04 -2799.710078c -5.15  -3.81
iter:   9 14:09:25 -2799.710257c -5.09  -4.15c
iter:  10 14:09:47 -2799.709910c -5.77  -4.12c
iter:  11 14:10:09 -2799.710018c -5.98  -4.27c
iter:  12 14:10:30 -2799.709947c -6.42  -4.41c
iter:  13 14:10:52 -2799.710013c -6.66  -4.63c
iter:  14 14:11:13 -2799.709955c -6.55  -4.56c
iter:  15 14:11:35 -2799.709967c -7.49c -4.97c

Converged after 15 iterations.

Dipole moment: (-2.362569, -9.480531, -0.393969) |e|*Ang

Energy contributions relative to reference atoms: (reference = -1626921.717276)

Kinetic:       +252.504174
Potential:     -295.161633
External:        +0.000000
XC:            -2759.880576
Entropy (-ST):   -0.479000
Local:           +3.067569
--------------------------
Free energy:   -2799.949467
Extrapolated:  -2799.709967

Showing only first 2 kpts
 Kpt  Band  Eigenvalues  Occupancy
  0   206     -6.01941    1.99790
  0   207     -5.88757    1.99219
  0   208     -5.67787    1.93813
  0   209     -5.67270    1.93495

  1   206     -6.02212    1.99796
  1   207     -5.89368    1.99265
  1   208     -5.61730    1.88947
  1   209     -5.30102    0.83936


Fermi level: -5.33342

No gap

Forces in eV/Ang:
  0 Cu    0.02883    0.02257   -0.07278
  1 Cu   -0.00283    0.02560   -0.06057
  2 Cu   -0.00949    0.00093   -0.05173
  3 Cu    0.20021   -0.06855    0.20100
  4 Cu    0.00790   -0.00325   -0.05573
  5 Cu   -0.03607    0.00091   -0.00248
  6 Cu   -0.05220    0.01024    0.03644
  7 Cu   -0.01136    0.04701    0.02855
  8 Cu   -0.00069    0.00490   -0.06188
  9 Cu    0.01944   -0.03463   -0.03988
 10 Cu    0.03612   -0.03448    0.04242
 11 Cu   -0.06123   -0.04573   -0.04653
 12 Cu   -0.02828    0.02322   -0.07429
 13 Cu    0.02495    0.01440    0.00408
 14 Cu    0.03721   -0.02617   -0.01556
 15 Cu   -0.16905   -0.05083    0.11286
 16 Cu    0.00048   -0.03472   -0.06807
 17 Cu    0.03561    0.00203   -0.00484
 18 Cu    0.01047    0.01198   -0.13951
 19 Cu    0.01653   -0.10773    0.20264
 20 Cu    0.01356    0.00167   -0.05879
 21 Cu    0.00096    0.02192   -0.03534
 22 Cu   -0.08445    0.03469    0.13278
 23 Cu    0.04362   -0.03872   -0.04297
 24 Cu   -0.00016   -0.00885   -0.06494
 25 Cu   -0.02221    0.01111    0.00929
 26 Cu   -0.03854    0.03066    0.01499
 27 Cu    0.02628   -0.04322   -0.00762
 28 Cu   -0.00797   -0.00304   -0.05872
 29 Cu    0.00117    0.00052    0.01782
 30 Cu    0.04476   -0.02213    0.05375
 31 Cu   -0.00297    0.09721    0.00854
 32 Cu   -0.01253    0.00116   -0.05781
 33 Cu   -0.02141   -0.03128   -0.03718
 34 Cu    0.05831    0.01150    0.09929
 35 Cu    0.01555   -0.04603   -0.03243
 36 H    -0.28463    2.82274    4.34895
 37 O     0.33343   -3.51429   -3.32922
 38 C    -0.07140    2.44513   -0.61442
 39 C     0.25566    1.66409    5.50400
 40 O    -0.24133   -3.52872   -6.06703

BFGS:  215 14:11:44    -2799.709967        2.0047
System changes: positions 

Initializing position-dependent things.

Density initialized from wave functions
                                           
                                           
                                           
                                           
                                           
                                           
                                           
                   O                       
                 H                         
           Cu    OC    Cu                  
            Cu   C Cu    Cu                
            Cu    Cu    Cu                 
             CCu    Cu    CCu              
                                           
              CCu    Cu    CCu             
                Cu    Cu     Cu            
                                           
           Cu    CCu   CCu    Cu           
            Cu     Cu    Cu                
                                           
              Cu    Cu     Cu              
                                           
                                           
                                           
                                           

Positions:
   0 Cu     0.000000    0.000000    9.999999    ( 0.0000,  0.0000,  0.0000)
   1 Cu     1.303035    0.752307   12.127846    ( 0.0000,  0.0000,  0.0000)
   2 Cu     0.003346    1.504253   14.257955    ( 0.0000,  0.0000,  0.0000)
   3 Cu    -0.007042    0.000500   16.387411    ( 0.0000,  0.0000,  0.0000)
   4 Cu    -1.303035    2.256922    9.999999    ( 0.0000,  0.0000,  0.0000)
   5 Cu     0.000000    3.009230   12.127846    ( 0.0000,  0.0000,  0.0000)
   6 Cu    -1.299468    3.762305   14.258829    ( 0.0000,  0.0000,  0.0000)
   7 Cu    -1.304396    2.256201   16.392798    ( 0.0000,  0.0000,  0.0000)
   8 Cu    -2.606069    4.513845    9.999999    ( 0.0000,  0.0000,  0.0000)
   9 Cu    -1.303035    5.266152   12.127846    ( 0.0000,  0.0000,  0.0000)
  10 Cu    -2.607827    6.021562   14.226041    ( 0.0000,  0.0000,  0.0000)
  11 Cu    -2.603100    4.508927   16.376768    ( 0.0000,  0.0000,  0.0000)
  12 Cu     2.606069    0.000000    9.999999    ( 0.0000,  0.0000,  0.0000)
  13 Cu     3.909104    0.752307   12.127846    ( 0.0000,  0.0000,  0.0000)
  14 Cu     2.601139    1.505865   14.255737    ( 0.0000,  0.0000,  0.0000)
  15 Cu     2.615690    0.000541   16.386281    ( 0.0000,  0.0000,  0.0000)
  16 Cu     1.303035    2.256922    9.999999    ( 0.0000,  0.0000,  0.0000)
  17 Cu     2.606069    3.009230   12.127846    ( 0.0000,  0.0000,  0.0000)
  18 Cu     1.302379    3.765249   14.251954    ( 0.0000,  0.0000,  0.0000)
  19 Cu     1.298619    2.426943   16.347773    ( 0.0000,  0.0000,  0.0000)
  20 Cu     0.000000    4.513845    9.999999    ( 0.0000,  0.0000,  0.0000)
  21 Cu     1.303035    5.266152   12.127846    ( 0.0000,  0.0000,  0.0000)
  22 Cu     0.000218    6.018135   14.246529    ( 0.0000,  0.0000,  0.0000)
  23 Cu    -0.009560    4.533776   16.391066    ( 0.0000,  0.0000,  0.0000)
  24 Cu     5.212139    0.000000    9.999999    ( 0.0000,  0.0000,  0.0000)
  25 Cu     6.515174    0.752307   12.127846    ( 0.0000,  0.0000,  0.0000)
  26 Cu     5.214187    1.503168   14.258600    ( 0.0000,  0.0000,  0.0000)
  27 Cu     5.210212    0.002919   16.377163    ( 0.0000,  0.0000,  0.0000)
  28 Cu     3.909104    2.256922    9.999999    ( 0.0000,  0.0000,  0.0000)
  29 Cu     5.212139    3.009230   12.127846    ( 0.0000,  0.0000,  0.0000)
  30 Cu     3.905840    3.763898   14.257339    ( 0.0000,  0.0000,  0.0000)
  31 Cu     3.910571    2.253549   16.395664    ( 0.0000,  0.0000,  0.0000)
  32 Cu     2.606069    4.513845    9.999999    ( 0.0000,  0.0000,  0.0000)
  33 Cu     3.909104    5.266152   12.127846    ( 0.0000,  0.0000,  0.0000)
  34 Cu     2.606790    6.019226   14.251693    ( 0.0000,  0.0000,  0.0000)
  35 Cu     2.611602    4.532220   16.390006    ( 0.0000,  0.0000,  0.0000)
  36 H      1.304372   -0.208935   19.784818    ( 0.0000,  0.0000,  0.0000)
  37 O      1.347433   -0.627289   18.995641    ( 0.0000,  0.0000,  0.0000)
  38 C      1.347076    0.209783   17.946559    ( 0.0000,  0.0000,  0.0000)
  39 C      1.300616    1.715178   18.173936    ( 0.0000,  0.0000,  0.0000)
  40 O      1.326002    2.362484   19.448788    ( 0.0000,  0.0000,  0.0000)

Unit cell:
           periodic     x           y           z      points  spacing
  1. axis:    yes    7.818208    0.000000    0.000000    36     0.1881
  2. axis:    yes   -3.909104    6.770767    0.000000    36     0.1881
  3. axis:    no     0.000000    0.000000   26.383539   148     0.1783

  Lengths:   7.818208   7.818208  26.383539
  Angles:   90.000000  90.000000 120.000000

Effective grid spacing dv^(1/3) = 0.1938

     iter     time        total  log10-change:
                         energy  eigst   dens
iter:   1 14:12:36 -2799.762009  -1.14
iter:   2 14:12:58 -2799.771965  -2.03  -2.66
iter:   3 14:13:20 -2799.761076c -2.67  -2.71
iter:   4 14:13:41 -2799.728252c -2.72  -2.75
iter:   5 14:14:03 -2799.718736c -3.24  -2.96
iter:   6 14:14:24 -2799.708467c -3.22  -3.08
iter:   7 14:14:46 -2799.709764c -3.61  -3.33
iter:   8 14:15:08 -2799.708055c -4.20  -3.33
iter:   9 14:15:29 -2799.708989c -4.35  -3.53
iter:  10 14:15:51 -2799.708028c -5.16  -3.50
iter:  11 14:16:12 -2799.707164c -4.88  -3.75
iter:  12 14:16:34 -2799.707308c -5.05  -3.93
iter:  13 14:16:56 -2799.707357c -5.64  -3.85
iter:  14 14:17:17 -2799.707422c -5.38  -3.91
iter:  15 14:17:39 -2799.707429c -6.03  -4.28c
iter:  16 14:18:00 -2799.707381c -6.23  -4.42c
iter:  17 14:18:22 -2799.707398c -6.48  -4.35c
iter:  18 14:18:43 -2799.707455c -6.40  -4.50c
iter:  19 14:19:05 -2799.707458c -6.95  -4.77c
iter:  20 14:19:27 -2799.707475c -7.15  -4.84c
iter:  21 14:19:48 -2799.707462c -7.60c -4.94c

Converged after 21 iterations.

Dipole moment: (-2.574866, -9.316374, -0.406470) |e|*Ang

Energy contributions relative to reference atoms: (reference = -1626921.717276)

Kinetic:       +252.307067
Potential:     -295.051063
External:        +0.000000
XC:            -2759.809153
Entropy (-ST):   -0.477170
Local:           +3.084272
--------------------------
Free energy:   -2799.946047
Extrapolated:  -2799.707462

Showing only first 2 kpts
 Kpt  Band  Eigenvalues  Occupancy
  0   206     -6.04234    1.99810
  0   207     -5.89257    1.99153
  0   208     -5.68957    1.93727
  0   209     -5.68554    1.93478

  1   206     -6.03421    1.99794
  1   207     -5.90561    1.99256
  1   208     -5.61670    1.87423
  1   209     -5.32492    0.89226


Fermi level: -5.34655

No gap

Forces in eV/Ang:
  0 Cu    0.03131    0.02298   -0.07256
  1 Cu   -0.00265    0.03231   -0.07279
  2 Cu   -0.01688   -0.00291   -0.04655
  3 Cu    0.15256   -0.07815    0.16950
  4 Cu    0.00823   -0.00300   -0.05599
  5 Cu   -0.03110    0.00602    0.00106
  6 Cu   -0.05047    0.01007    0.03525
  7 Cu   -0.01120    0.04735    0.03826
  8 Cu   -0.00071    0.00597   -0.06197
  9 Cu    0.02407   -0.03999   -0.05362
 10 Cu    0.04187   -0.03246    0.08781
 11 Cu   -0.07453   -0.04956   -0.02214
 12 Cu   -0.03032    0.02360   -0.07454
 13 Cu    0.02609    0.01656   -0.00132
 14 Cu    0.05205   -0.03276   -0.01471
 15 Cu   -0.09274   -0.09729    0.03366
 16 Cu    0.00053   -0.03633   -0.06817
 17 Cu    0.03083    0.00685   -0.00357
 18 Cu    0.01245    0.01613   -0.17373
 19 Cu   -0.00084   -0.13768    0.15907
 20 Cu    0.01385    0.00216   -0.05902
 21 Cu    0.00223    0.01397   -0.03805
 22 Cu   -0.08594    0.03719    0.13013
 23 Cu    0.06465   -0.06264   -0.05005
 24 Cu   -0.00067   -0.00955   -0.06354
 25 Cu   -0.02345    0.01138    0.00390
 26 Cu   -0.04760    0.03477    0.02224
 27 Cu    0.04306   -0.04014    0.00825
 28 Cu   -0.00844   -0.00295   -0.05889
 29 Cu    0.00098    0.00027    0.01386
 30 Cu    0.04308   -0.02917    0.05886
 31 Cu   -0.00049    0.11239    0.00533
 32 Cu   -0.01281    0.00122   -0.05756
 33 Cu   -0.02765   -0.03577   -0.05034
 34 Cu    0.05561    0.00828    0.09547
 35 Cu    0.00739   -0.05317   -0.03811
 36 H    -0.23743    2.49382    4.28051
 37 O     0.29563   -2.66438   -3.84680
 38 C    -0.19677    2.13254    0.28665
 39 C     0.27086    1.38061    5.67231
 40 O    -0.20042   -3.43619   -6.14919

BFGS:  216 14:19:58    -2799.707462        2.0966
System changes: positions 

Initializing position-dependent things.

Density initialized from wave functions
                                           
                                           
                                           
                                           
                                           
                                           
                                           
                   O                       
                 H                         
           Cu    OC    Cu                  
            Cu   C Cu    Cu                
            Cu    Cu    Cu                 
             CCu    Cu    CCu              
                                           
              CCu    Cu    CCu             
                Cu    Cu     Cu            
                                           
           Cu    CCu   CCu    Cu           
            Cu     Cu    Cu                
                                           
              Cu    Cu     Cu              
                                           
                                           
                                           
                                           

Positions:
   0 Cu     0.000000    0.000000    9.999999    ( 0.0000,  0.0000,  0.0000)
   1 Cu     1.303035    0.752307   12.127846    ( 0.0000,  0.0000,  0.0000)
   2 Cu     0.003453    1.504819   14.257350    ( 0.0000,  0.0000,  0.0000)
   3 Cu    -0.007959    0.001686   16.382190    ( 0.0000,  0.0000,  0.0000)
   4 Cu    -1.303035    2.256922    9.999999    ( 0.0000,  0.0000,  0.0000)
   5 Cu     0.000000    3.009230   12.127846    ( 0.0000,  0.0000,  0.0000)
   6 Cu    -1.298979    3.762195   14.258162    ( 0.0000,  0.0000,  0.0000)
   7 Cu    -1.303822    2.256525   16.391399    ( 0.0000,  0.0000,  0.0000)
   8 Cu    -2.606069    4.513845    9.999999    ( 0.0000,  0.0000,  0.0000)
   9 Cu    -1.303035    5.266152   12.127846    ( 0.0000,  0.0000,  0.0000)
  10 Cu    -2.608301    6.021181   14.222997    ( 0.0000,  0.0000,  0.0000)
  11 Cu    -2.602442    4.507688   16.370327    ( 0.0000,  0.0000,  0.0000)
  12 Cu     2.606069    0.000000    9.999999    ( 0.0000,  0.0000,  0.0000)
  13 Cu     3.909104    0.752307   12.127846    ( 0.0000,  0.0000,  0.0000)
  14 Cu     2.600568    1.506866   14.255501    ( 0.0000,  0.0000,  0.0000)
  15 Cu     2.616316    0.003785   16.381040    ( 0.0000,  0.0000,  0.0000)
  16 Cu     1.303035    2.256922    9.999999    ( 0.0000,  0.0000,  0.0000)
  17 Cu     2.606069    3.009230   12.127846    ( 0.0000,  0.0000,  0.0000)
  18 Cu     1.302439    3.763189   14.255238    ( 0.0000,  0.0000,  0.0000)
  19 Cu     1.299315    2.430642   16.353633    ( 0.0000,  0.0000,  0.0000)
  20 Cu     0.000000    4.513845    9.999999    ( 0.0000,  0.0000,  0.0000)
  21 Cu     1.303035    5.266152   12.127846    ( 0.0000,  0.0000,  0.0000)
  22 Cu     0.000672    6.017387   14.243264    ( 0.0000,  0.0000,  0.0000)
  23 Cu    -0.010362    4.535945   16.392234    ( 0.0000,  0.0000,  0.0000)
  24 Cu     5.212139    0.000000    9.999999    ( 0.0000,  0.0000,  0.0000)
  25 Cu     6.515174    0.752307   12.127846    ( 0.0000,  0.0000,  0.0000)
  26 Cu     5.214708    1.502808   14.257926    ( 0.0000,  0.0000,  0.0000)
  27 Cu     5.209803    0.001837   16.375339    ( 0.0000,  0.0000,  0.0000)
  28 Cu     3.909104    2.256922    9.999999    ( 0.0000,  0.0000,  0.0000)
  29 Cu     5.212139    3.009230   12.127846    ( 0.0000,  0.0000,  0.0000)
  30 Cu     3.905239    3.764241   14.256415    ( 0.0000,  0.0000,  0.0000)
  31 Cu     3.910714    2.253289   16.394453    ( 0.0000,  0.0000,  0.0000)
  32 Cu     2.606069    4.513845    9.999999    ( 0.0000,  0.0000,  0.0000)
  33 Cu     3.909104    5.266152   12.127846    ( 0.0000,  0.0000,  0.0000)
  34 Cu     2.606918    6.018840   14.249616    ( 0.0000,  0.0000,  0.0000)
  35 Cu     2.611665    4.533521   16.391069    ( 0.0000,  0.0000,  0.0000)
  36 H      1.367702   -0.305658   19.732750    ( 0.0000,  0.0000,  0.0000)
  37 O      1.345185   -0.671294   18.940677    ( 0.0000,  0.0000,  0.0000)
  38 C      1.348938    0.195161   17.941584    ( 0.0000,  0.0000,  0.0000)
  39 C      1.275624    1.691129   18.183691    ( 0.0000,  0.0000,  0.0000)
  40 O      1.328177    2.319677   19.467071    ( 0.0000,  0.0000,  0.0000)

Unit cell:
           periodic     x           y           z      points  spacing
  1. axis:    yes    7.818208    0.000000    0.000000    36     0.1881
  2. axis:    yes   -3.909104    6.770767    0.000000    36     0.1881
  3. axis:    no     0.000000    0.000000   26.383539   148     0.1783

  Lengths:   7.818208   7.818208  26.383539
  Angles:   90.000000  90.000000 120.000000

Effective grid spacing dv^(1/3) = 0.1938

     iter     time        total  log10-change:
                         energy  eigst   dens
iter:   1 14:20:50 -2799.725147  -1.46
srun: Job step aborted: Waiting up to 32 seconds for job step to finish.
slurmstepd: error: *** STEP 6685297.0 ON c052 CANCELLED AT 2023-09-22T14:20:57 ***
slurmstepd: error: *** JOB 6685297 ON c052 CANCELLED AT 2023-09-22T14:20:57 ***
