
  ___ ___ ___ _ _ _  
 |   |   |_  | | | | 
 | | | | | . | | | | 
 |__ |  _|___|_____|  22.8.0
 |___|_|             

User:   s204775@c093.nifl.fysik.dtu.dk
Date:   Fri Sep 22 17:01:28 2023
Arch:   x86_64
Pid:    52907
CWD:    /home/cat/s204775/projects/Bachelor_project/OCCOH_Cu
Python: 3.10.4
gpaw:   /home/modules/software/GPAW/22.8.0-intel-2022a/lib/python3.10/site-packages/gpaw
_gpaw:  /home/modules/software/GPAW/22.8.0-intel-2022a/lib/python3.10/site-packages/
        _gpaw.cpython-310-x86_64-linux-gnu.so
ase:    /home/modules/software/ASE/3.22.1-intel-2022a/lib/python3.10/site-packages/ase (version 3.22.1)
numpy:  /home/modules/software/SciPy-bundle/2022.05-intel-2022a/lib/python3.10/site-packages/numpy (version 1.22.3)
scipy:  /home/modules/software/SciPy-bundle/2022.05-intel-2022a/lib/python3.10/site-packages/scipy (version 1.8.1)
libxc:  5.2.3
units:  Angstrom and eV
cores: 40
OpenMP: False
OMP_NUM_THREADS: 1

Input parameters:
  basis: dzp
  h: 0.18
  kpts: {gamma: True,
         size: (4, 4, 1)}
  xc: BEEF-vdW

System changes: positions, numbers, cell, pbc, initial_charges, initial_magmoms 

Initialize ...

species:
  Cu:
    name: Copper
    id: f1c4d45d90492f1bbfdcb091e8418fdf
    Z: 29.0
    valence: 11
    core: 18
    charge: 0.0
    file: /home/modules/software/GPAW-setups/0.9.20000/Cu.PBE.gz
    compensation charges: {type: gauss,
                           rc: 0.33,
                           lmax: 2}
    cutoffs: {filter: 2.06,
              core: 2.43}
    valence states:
      #              energy  rcut
      - 4s(1.00)    -4.609   1.164
      - 4p(0.00)    -0.698   1.164
      - 3d(10.00)    -5.039   1.058
      -  s          22.603   1.164
      -  p          26.513   1.164
      -  d          22.172   1.058
  
    # LCAO basis set for Cu:
    #   Name: dzp
    #   File: /home/modules/software/GPAW-setups/0.9.20000/Cu.dzp.basis.gz
    #   Number of radial functions: 5
    #   Number of spherical harmonics: 15
    #     l=0, rc=8.9688 Bohr: 4s-sz confined orbital
    #     l=2, rc=5.1719 Bohr: 3d-sz confined orbital
    #     l=0, rc=5.3281 Bohr: 4s-dz split-valence wave
    #     l=2, rc=3.1406 Bohr: 3d-dz split-valence wave
    #     l=1, rc=8.9688 Bohr: p-type Gaussian polarization
    #   Number of RI-basis functions 0

  H:
    name: Hydrogen
    id: d65de229564ff8ea4db303e23b6d1ecf
    Z: 1.0
    valence: 1
    core: 0
    charge: 0.0
    file: /home/modules/software/GPAW-setups/0.9.20000/H.PBE.gz
    compensation charges: {type: gauss,
                           rc: 0.15,
                           lmax: 2}
    cutoffs: {filter: 0.85,
              core: 0.53}
    valence states:
      #              energy  rcut
      - 1s(1.00)    -6.494   0.476
      -  s          20.717   0.476
      -  p           0.000   0.476
  
    # LCAO basis set for H:
    #   Name: dzp
    #   File: /home/modules/software/GPAW-setups/0.9.20000/H.dzp.basis.gz
    #   Number of radial functions: 3
    #   Number of spherical harmonics: 5
    #     l=0, rc=6.4219 Bohr: 1s-sz confined orbital
    #     l=0, rc=3.6094 Bohr: 1s-dz split-valence wave
    #     l=1, rc=6.4219 Bohr: p-type Gaussian polarization
    #   Number of RI-basis functions 0

  O:
    name: Oxygen
    id: 32ecd46bf208036f09c70b0ec9a88b78
    Z: 8.0
    valence: 6
    core: 2
    charge: 0.0
    file: /home/modules/software/GPAW-setups/0.9.20000/O.PBE.gz
    compensation charges: {type: gauss,
                           rc: 0.21,
                           lmax: 2}
    cutoffs: {filter: 1.17,
              core: 0.83}
    valence states:
      #              energy  rcut
      - 2s(2.00)   -23.961   0.688
      - 2p(4.00)    -9.029   0.598
      -  s           3.251   0.688
      -  p          18.182   0.598
      -  d           0.000   0.619
  
    # LCAO basis set for O:
    #   Name: dzp
    #   File: /home/modules/software/GPAW-setups/0.9.20000/O.dzp.basis.gz
    #   Number of radial functions: 5
    #   Number of spherical harmonics: 13
    #     l=0, rc=4.3438 Bohr: 2s-sz confined orbital
    #     l=1, rc=5.3906 Bohr: 2p-sz confined orbital
    #     l=0, rc=2.2969 Bohr: 2s-dz split-valence wave
    #     l=1, rc=2.8906 Bohr: 2p-dz split-valence wave
    #     l=2, rc=5.3906 Bohr: d-type Gaussian polarization
    #   Number of RI-basis functions 0

  C:
    name: Carbon
    id: 4aa54d4b901d75f77cc0ea3eec22967b
    Z: 6.0
    valence: 4
    core: 2
    charge: 0.0
    file: /home/modules/software/GPAW-setups/0.9.20000/C.PBE.gz
    compensation charges: {type: gauss,
                           rc: 0.20,
                           lmax: 2}
    cutoffs: {filter: 1.14,
              core: 1.14}
    valence states:
      #              energy  rcut
      - 2s(2.00)   -13.751   0.635
      - 2p(2.00)    -5.284   0.635
      -  s          13.461   0.635
      -  p          21.927   0.635
      -  d           0.000   0.635
  
    # LCAO basis set for C:
    #   Name: dzp
    #   File: /home/modules/software/GPAW-setups/0.9.20000/C.dzp.basis.gz
    #   Number of radial functions: 5
    #   Number of spherical harmonics: 13
    #     l=0, rc=5.5469 Bohr: 2s-sz confined orbital
    #     l=1, rc=6.6719 Bohr: 2p-sz confined orbital
    #     l=0, rc=3.0312 Bohr: 2s-dz split-valence wave
    #     l=1, rc=3.7500 Bohr: 2p-dz split-valence wave
    #     l=2, rc=6.6719 Bohr: d-type Gaussian polarization
    #   Number of RI-basis functions 0

Reference energy: -1626921.717276  # eV

Spin-paired calculation

Convergence criteria:
 Maximum [total energy] change in last 3 cyles: 0.0005 eV / electron
 Maximum integral of absolute [dens]ity change: 0.0001 electrons / valence electron
 Maximum integral of absolute [eigenst]ate change: 4e-08 eV^2 / valence electron
 Maximum number of scf [iter]ations: 333
 (Square brackets indicate name in SCF output, whereas a 'c' in
 the SCF output indicates the quantity has converged.)

Symmetries present (total): 1

  ( 1  0  0)
  ( 0  1  0)
  ( 0  0  1)

16 k-points: 4 x 4 x 1 Monkhorst-Pack grid + [1/8,1/8,0.000000]
10 k-points in the irreducible part of the Brillouin zone
       k-points in crystal coordinates                weights
   0:     0.00000000    0.00000000    0.00000000          1/16
   1:     0.00000000    0.25000000    0.00000000          2/16
   2:     0.00000000    0.50000000    0.00000000          1/16
   3:     0.25000000   -0.25000000    0.00000000          2/16
   4:     0.25000000    0.00000000    0.00000000          2/16
   5:     0.25000000    0.25000000    0.00000000          2/16
   6:     0.25000000    0.50000000    0.00000000          2/16
   7:     0.50000000    0.00000000    0.00000000          1/16
   8:     0.50000000    0.25000000    0.00000000          2/16
   9:     0.50000000    0.50000000    0.00000000          1/16

Wave functions: Uniform real-space grid
  Kinetic energy operator: 8*3+1=25 point O(h^6) finite-difference Laplacian
  ScaLapack parameters: grid=1x1, blocksize=None
  Wavefunction extrapolation:
    Improved wavefunction reuse through dual PAW basis 

Occupation numbers: Fermi-Dirac:
  width: 0.1000  # eV
 

Eigensolver
   Davidson(niter=2) 

Densities:
  Coarse grid: 36*36*148 grid
  Fine grid: 72*72*296 grid
  Total Charge: 0.000000 

Density mixing:
  Method: separate
  Backend: pulay
  Linear mixing parameter: 0.05
  old densities: 5
  Damping of long wavelength oscillations: 50 

Hamiltonian:
  XC and Coulomb potentials evaluated on a 72*72*296 grid
  Using the BEEF-vdW Exchange-Correlation functional
  Interpolation: tri-quintic (5. degree polynomial)
  Poisson solver: FastPoissonSolver using
    Stencil: 8*3+1=25 point O(h^6) finite-difference Laplacian
    FFT axes: [0, 1]
    FST axes: [2]
 

XC parameters: BEEF-vdW with 2 nearest neighbor stencil

Memory estimate:
  Process memory now: 214.32 MiB
  Calculator: 442.67 MiB
    Density: 50.21 MiB
      Arrays: 9.37 MiB
      Localized functions: 37.28 MiB
      Mixer: 3.56 MiB
    Hamiltonian: 8.94 MiB
      Arrays: 6.13 MiB
      XC: 0.00 MiB
      Poisson: 0.00 MiB
      vbar: 2.81 MiB
    Wavefunctions: 383.52 MiB
      Arrays psit_nG: 181.54 MiB
      Eigensolver: 195.03 MiB
      Projections: 0.69 MiB
      Projectors: 6.27 MiB

Total number of cores used: 40
Parallelization over k-points: 10
Domain decomposition: 1 x 1 x 4

Number of atoms: 41
Number of atomic orbitals: 597
Number of bands in calculation: 255
Number of valence electrons: 417
Bands to converge: occupied

... initialized

Initializing position-dependent things.

Density initialized from atomic densities
Creating initial wave functions:
  255 bands from LCAO basis set

                                           
                                           
                                           
                                           
                                           
                                           
                                           
                   O                       
                 H                         
           Cu    OC    Cu                  
            Cu   C Cu    Cu                
            Cu    Cu    Cu                 
             CCu    Cu    CCu              
                                           
              CCu    Cu    CCu             
                Cu    Cu     Cu            
                                           
           Cu    CCu   CCu    Cu           
            Cu     Cu    Cu                
                                           
              Cu    Cu     Cu              
                                           
                                           
                                           
                                           

Positions:
   0 Cu     0.000000    0.000000    9.999999    ( 0.0000,  0.0000,  0.0000)
   1 Cu     1.303035    0.752307   12.127846    ( 0.0000,  0.0000,  0.0000)
   2 Cu     0.003453    1.504819   14.257350    ( 0.0000,  0.0000,  0.0000)
   3 Cu    -0.007959    0.001686   16.382190    ( 0.0000,  0.0000,  0.0000)
   4 Cu    -1.303035    2.256922    9.999999    ( 0.0000,  0.0000,  0.0000)
   5 Cu     0.000000    3.009230   12.127846    ( 0.0000,  0.0000,  0.0000)
   6 Cu    -1.298979    3.762195   14.258162    ( 0.0000,  0.0000,  0.0000)
   7 Cu    -1.303822    2.256525   16.391399    ( 0.0000,  0.0000,  0.0000)
   8 Cu    -2.606069    4.513845    9.999999    ( 0.0000,  0.0000,  0.0000)
   9 Cu    -1.303035    5.266152   12.127846    ( 0.0000,  0.0000,  0.0000)
  10 Cu    -2.608301    6.021181   14.222997    ( 0.0000,  0.0000,  0.0000)
  11 Cu    -2.602442    4.507688   16.370327    ( 0.0000,  0.0000,  0.0000)
  12 Cu     2.606069    0.000000    9.999999    ( 0.0000,  0.0000,  0.0000)
  13 Cu     3.909104    0.752307   12.127846    ( 0.0000,  0.0000,  0.0000)
  14 Cu     2.600568    1.506866   14.255501    ( 0.0000,  0.0000,  0.0000)
  15 Cu     2.616316    0.003785   16.381040    ( 0.0000,  0.0000,  0.0000)
  16 Cu     1.303035    2.256922    9.999999    ( 0.0000,  0.0000,  0.0000)
  17 Cu     2.606069    3.009230   12.127846    ( 0.0000,  0.0000,  0.0000)
  18 Cu     1.302439    3.763189   14.255238    ( 0.0000,  0.0000,  0.0000)
  19 Cu     1.299315    2.430642   16.353633    ( 0.0000,  0.0000,  0.0000)
  20 Cu     0.000000    4.513845    9.999999    ( 0.0000,  0.0000,  0.0000)
  21 Cu     1.303035    5.266152   12.127846    ( 0.0000,  0.0000,  0.0000)
  22 Cu     0.000672    6.017387   14.243264    ( 0.0000,  0.0000,  0.0000)
  23 Cu    -0.010362    4.535945   16.392234    ( 0.0000,  0.0000,  0.0000)
  24 Cu     5.212139    0.000000    9.999999    ( 0.0000,  0.0000,  0.0000)
  25 Cu     6.515174    0.752307   12.127846    ( 0.0000,  0.0000,  0.0000)
  26 Cu     5.214708    1.502808   14.257926    ( 0.0000,  0.0000,  0.0000)
  27 Cu     5.209803    0.001837   16.375339    ( 0.0000,  0.0000,  0.0000)
  28 Cu     3.909104    2.256922    9.999999    ( 0.0000,  0.0000,  0.0000)
  29 Cu     5.212139    3.009230   12.127846    ( 0.0000,  0.0000,  0.0000)
  30 Cu     3.905239    3.764241   14.256415    ( 0.0000,  0.0000,  0.0000)
  31 Cu     3.910714    2.253289   16.394453    ( 0.0000,  0.0000,  0.0000)
  32 Cu     2.606069    4.513845    9.999999    ( 0.0000,  0.0000,  0.0000)
  33 Cu     3.909104    5.266152   12.127846    ( 0.0000,  0.0000,  0.0000)
  34 Cu     2.606918    6.018840   14.249616    ( 0.0000,  0.0000,  0.0000)
  35 Cu     2.611665    4.533521   16.391069    ( 0.0000,  0.0000,  0.0000)
  36 H      1.367702   -0.305658   19.732750    ( 0.0000,  0.0000,  0.0000)
  37 O      1.345185   -0.671294   18.940677    ( 0.0000,  0.0000,  0.0000)
  38 C      1.348938    0.195161   17.941584    ( 0.0000,  0.0000,  0.0000)
  39 C      1.275624    1.691129   18.183691    ( 0.0000,  0.0000,  0.0000)
  40 O      1.328177    2.319677   19.467071    ( 0.0000,  0.0000,  0.0000)

Unit cell:
           periodic     x           y           z      points  spacing
  1. axis:    yes    7.818208    0.000000    0.000000    36     0.1881
  2. axis:    yes   -3.909104    6.770767    0.000000    36     0.1881
  3. axis:    no     0.000000    0.000000   26.383539   148     0.1783

  Lengths:   7.818208   7.818208  26.383539
  Angles:   90.000000  90.000000 120.000000

Effective grid spacing dv^(1/3) = 0.1938

     iter     time        total  log10-change:
                         energy  eigst   dens
iter:   1 17:02:10 -2873.958440
iter:   2 17:02:32 -2939.796180  +0.83  -1.00
iter:   3 17:02:53 -2826.472155  -0.13  -0.96
iter:   4 17:03:15 -2805.272502  -0.90  -1.24
iter:   5 17:03:37 -2801.914787  -1.00  -1.41
iter:   6 17:03:59 -2802.197661  -0.83  -1.51
iter:   7 17:04:20 -2801.260688  -1.96  -1.63
iter:   8 17:04:42 -2803.047148  -1.24  -1.64
iter:   9 17:05:03 -2800.192434  -1.75  -1.64
iter:  10 17:05:25 -2800.008561  -1.93  -1.79
iter:  11 17:05:47 -2801.322131  -1.88  -1.98
iter:  12 17:06:08 -2800.429068  -1.55  -1.88
iter:  13 17:06:30 -2800.250770  -1.89  -1.98
iter:  14 17:06:52 -2799.597978  -2.15  -2.10
iter:  15 17:07:13 -2799.607192  -3.31  -2.60
iter:  16 17:07:35 -2799.578625c -3.00  -2.56
iter:  17 17:07:57 -2799.566698c -3.55  -2.68
iter:  18 17:08:18 -2799.572054c -3.45  -2.80
iter:  19 17:08:40 -2799.552187c -3.48  -2.76
iter:  20 17:09:02 -2799.550198c -3.69  -3.08
iter:  21 17:09:23 -2799.546566c -4.02  -3.17
iter:  22 17:09:45 -2799.546297c -4.71  -3.39
iter:  23 17:10:06 -2799.545981c -4.71  -3.46
iter:  24 17:10:28 -2799.545789c -5.17  -3.72
iter:  25 17:10:50 -2799.545498c -5.55  -3.81
iter:  26 17:11:11 -2799.545492c -6.23  -3.77
iter:  27 17:11:33 -2799.545759c -5.61  -3.84
iter:  28 17:11:55 -2799.545677c -5.81  -3.97
iter:  29 17:12:16 -2799.545619c -6.28  -4.11c
iter:  30 17:12:38 -2799.545663c -6.25  -4.19c
iter:  31 17:12:59 -2799.545641c -6.55  -4.38c
iter:  32 17:13:21 -2799.545648c -6.86  -4.53c
iter:  33 17:13:43 -2799.545641c -7.17  -4.65c
iter:  34 17:14:04 -2799.545626c -7.33  -4.74c
iter:  35 17:14:26 -2799.545611c -7.70c -4.82c

Converged after 35 iterations.

Dipole moment: (-2.285778, -10.015733, -0.393250) |e|*Ang

Energy contributions relative to reference atoms: (reference = -1626921.717276)

Kinetic:       +255.411050
Potential:     -297.309573
External:        +0.000000
XC:            -2760.493226
Entropy (-ST):   -0.477703
Local:           +3.084989
--------------------------
Free energy:   -2799.784462
Extrapolated:  -2799.545611

Showing only first 2 kpts
 Kpt  Band  Eigenvalues  Occupancy
  0   206     -6.02585    1.99808
  0   207     -5.87806    1.99159
  0   208     -5.67530    1.93785
  0   209     -5.67189    1.93576

  1   206     -6.02167    1.99799
  1   207     -5.89203    1.99268
  1   208     -5.59496    1.86633
  1   209     -5.31240    0.90566


Fermi level: -5.33132

No gap

Forces in eV/Ang:
  0 Cu    0.03195    0.02327   -0.07268
  1 Cu   -0.00173    0.03420   -0.07471
  2 Cu   -0.01837   -0.01238   -0.04374
  3 Cu    0.17271   -0.09072    0.15379
  4 Cu    0.00801   -0.00302   -0.05647
  5 Cu   -0.02884    0.00855    0.00170
  6 Cu   -0.05641    0.01131    0.03855
  7 Cu   -0.01595    0.04185    0.05064
  8 Cu   -0.00073    0.00611   -0.06126
  9 Cu    0.02382   -0.04202   -0.05977
 10 Cu    0.05289   -0.02310    0.11189
 11 Cu   -0.08915   -0.03166   -0.00471
 12 Cu   -0.03054    0.02361   -0.07333
 13 Cu    0.02560    0.01907   -0.00160
 14 Cu    0.06063   -0.04809   -0.01208
 15 Cu   -0.10140   -0.12510    0.00521
 16 Cu    0.00077   -0.03660   -0.06840
 17 Cu    0.02930    0.00858   -0.00484
 18 Cu    0.01245    0.05604   -0.19183
 19 Cu   -0.01967   -0.24138    0.24540
 20 Cu    0.01400    0.00262   -0.05935
 21 Cu    0.00352    0.00780   -0.03924
 22 Cu   -0.09433    0.05026    0.14185
 23 Cu    0.07252   -0.08001   -0.06651
 24 Cu   -0.00104   -0.00983   -0.06256
 25 Cu   -0.02391    0.01215   -0.00102
 26 Cu   -0.05635    0.04006    0.02970
 27 Cu    0.05000   -0.01752    0.01250
 28 Cu   -0.00858   -0.00288   -0.05852
 29 Cu    0.00023   -0.00015    0.01177
 30 Cu    0.05152   -0.03786    0.06304
 31 Cu    0.00122    0.12186    0.00707
 32 Cu   -0.01309    0.00096   -0.05753
 33 Cu   -0.02885   -0.03814   -0.05703
 34 Cu    0.05058    0.01555    0.10342
 35 Cu    0.01225   -0.06491   -0.04844
 36 H     0.11477    3.05533    6.16204
 37 O    -0.08301   -3.68904   -4.95036
 38 C    -0.31626    2.42844   -0.46062
 39 C     0.55356    1.37992    5.64638
 40 O    -0.31783   -3.33612   -6.15341

      Step     Time          Energy         fmax
BFGS:    0 17:14:36    -2799.545611        7.0068
System changes: positions 

Initializing position-dependent things.

Density initialized from wave functions
                                           
                                           
                                           
                                           
                                           
                                           
                                           
                   O                       
                 HC                        
           Cu    Ou    Cu                  
            Cu   C Cu    Cu                
            Cu    Cu    Cu                 
             CCu    Cu    CCu              
                                           
              CCu    Cu    CCu             
                Cu    Cu     Cu            
                                           
           Cu    CCu   CCu    Cu           
            Cu     Cu    Cu                
                                           
              Cu    Cu     Cu              
                                           
                                           
                                           
                                           

Positions:
   0 Cu     0.000000    0.000000    9.999999    ( 0.0000,  0.0000,  0.0000)
   1 Cu     1.303035    0.752307   12.127846    ( 0.0000,  0.0000,  0.0000)
   2 Cu     0.003191    1.504642   14.256725    ( 0.0000,  0.0000,  0.0000)
   3 Cu    -0.005492    0.000390   16.384387    ( 0.0000,  0.0000,  0.0000)
   4 Cu    -1.303035    2.256922    9.999999    ( 0.0000,  0.0000,  0.0000)
   5 Cu     0.000000    3.009230   12.127846    ( 0.0000,  0.0000,  0.0000)
   6 Cu    -1.299785    3.762357   14.258713    ( 0.0000,  0.0000,  0.0000)
   7 Cu    -1.304050    2.257123   16.392122    ( 0.0000,  0.0000,  0.0000)
   8 Cu    -2.606069    4.513845    9.999999    ( 0.0000,  0.0000,  0.0000)
   9 Cu    -1.303035    5.266152   12.127846    ( 0.0000,  0.0000,  0.0000)
  10 Cu    -2.607545    6.020851   14.224595    ( 0.0000,  0.0000,  0.0000)
  11 Cu    -2.603716    4.507236   16.370260    ( 0.0000,  0.0000,  0.0000)
  12 Cu     2.606069    0.000000    9.999999    ( 0.0000,  0.0000,  0.0000)
  13 Cu     3.909104    0.752307   12.127846    ( 0.0000,  0.0000,  0.0000)
  14 Cu     2.601434    1.506179   14.255328    ( 0.0000,  0.0000,  0.0000)
  15 Cu     2.614867    0.001998   16.381114    ( 0.0000,  0.0000,  0.0000)
  16 Cu     1.303035    2.256922    9.999999    ( 0.0000,  0.0000,  0.0000)
  17 Cu     2.606069    3.009230   12.127846    ( 0.0000,  0.0000,  0.0000)
  18 Cu     1.302617    3.763990   14.252498    ( 0.0000,  0.0000,  0.0000)
  19 Cu     1.299034    2.427194   16.357139    ( 0.0000,  0.0000,  0.0000)
  20 Cu     0.000000    4.513845    9.999999    ( 0.0000,  0.0000,  0.0000)
  21 Cu     1.303035    5.266152   12.127846    ( 0.0000,  0.0000,  0.0000)
  22 Cu    -0.000676    6.018105   14.245290    ( 0.0000,  0.0000,  0.0000)
  23 Cu    -0.009326    4.534802   16.391284    ( 0.0000,  0.0000,  0.0000)
  24 Cu     5.212139    0.000000    9.999999    ( 0.0000,  0.0000,  0.0000)
  25 Cu     6.515174    0.752307   12.127846    ( 0.0000,  0.0000,  0.0000)
  26 Cu     5.213903    1.503380   14.258350    ( 0.0000,  0.0000,  0.0000)
  27 Cu     5.210517    0.001587   16.375518    ( 0.0000,  0.0000,  0.0000)
  28 Cu     3.909104    2.256922    9.999999    ( 0.0000,  0.0000,  0.0000)
  29 Cu     5.212139    3.009230   12.127846    ( 0.0000,  0.0000,  0.0000)
  30 Cu     3.905975    3.763700   14.257316    ( 0.0000,  0.0000,  0.0000)
  31 Cu     3.910731    2.255030   16.394554    ( 0.0000,  0.0000,  0.0000)
  32 Cu     2.606069    4.513845    9.999999    ( 0.0000,  0.0000,  0.0000)
  33 Cu     3.909104    5.266152   12.127846    ( 0.0000,  0.0000,  0.0000)
  34 Cu     2.607641    6.019062   14.251093    ( 0.0000,  0.0000,  0.0000)
  35 Cu     2.611840    4.532594   16.390377    ( 0.0000,  0.0000,  0.0000)
  36 H      1.369342   -0.262010   19.820779    ( 0.0000,  0.0000,  0.0000)
  37 O      1.343999   -0.723995   18.869958    ( 0.0000,  0.0000,  0.0000)
  38 C      1.344420    0.229853   17.935004    ( 0.0000,  0.0000,  0.0000)
  39 C      1.283532    1.710842   18.264354    ( 0.0000,  0.0000,  0.0000)
  40 O      1.323637    2.272018   19.379165    ( 0.0000,  0.0000,  0.0000)

Unit cell:
           periodic     x           y           z      points  spacing
  1. axis:    yes    7.818208    0.000000    0.000000    36     0.1881
  2. axis:    yes   -3.909104    6.770767    0.000000    36     0.1881
  3. axis:    no     0.000000    0.000000   26.383539   148     0.1783

  Lengths:   7.818208   7.818208  26.383539
  Angles:   90.000000  90.000000 120.000000

Effective grid spacing dv^(1/3) = 0.1938

     iter     time        total  log10-change:
                         energy  eigst   dens
iter:   1 17:15:28 -2803.616341  -0.82
iter:   2 17:15:50 -2802.179544  -1.63  -2.12
iter:   3 17:16:12 -2801.654535  -1.94  -2.15
iter:   4 17:16:34 -2801.303870  -1.95  -2.15
iter:   5 17:16:56 -2800.834361  -2.19  -2.20
iter:   6 17:17:18 -2800.782751  -2.23  -2.54
iter:   7 17:17:40 -2800.659322c -2.59  -2.47
iter:   8 17:18:01 -2800.642799c -2.80  -2.89
iter:   9 17:18:23 -2800.641277c -3.05  -3.05
iter:  10 17:18:45 -2800.641815c -3.55  -3.15
iter:  11 17:19:07 -2800.633719c -3.89  -3.16
iter:  12 17:19:29 -2800.633732c -4.51  -3.45
iter:  13 17:19:51 -2800.636452c -4.24  -3.48
iter:  14 17:20:13 -2800.634826c -4.71  -3.37
iter:  15 17:20:35 -2800.634729c -5.32  -3.83
iter:  16 17:20:57 -2800.634905c -4.96  -3.89
iter:  17 17:21:19 -2800.634600c -5.16  -3.83
iter:  18 17:21:41 -2800.634576c -5.62  -4.26c
iter:  19 17:22:03 -2800.634522c -6.11  -4.36c
iter:  20 17:22:25 -2800.634527c -6.61  -4.45c
iter:  21 17:22:47 -2800.634584c -6.15  -4.53c
iter:  22 17:23:09 -2800.634562c -6.81  -4.55c
iter:  23 17:23:31 -2800.634522c -6.86  -4.69c
iter:  24 17:23:53 -2800.634520c -6.92  -4.84c
iter:  25 17:24:15 -2800.634532c -7.20  -4.92c
iter:  26 17:24:37 -2800.634533c -7.73c -5.04c

Converged after 26 iterations.

Dipole moment: (-2.508312, -10.005148, -0.120669) |e|*Ang

Energy contributions relative to reference atoms: (reference = -1626921.717276)

Kinetic:       +254.618597
Potential:     -297.724780
External:        +0.000000
XC:            -2760.358305
Entropy (-ST):   -0.473493
Local:           +3.066702
--------------------------
Free energy:   -2800.871279
Extrapolated:  -2800.634533

Showing only first 2 kpts
 Kpt  Band  Eigenvalues  Occupancy
  0   206     -5.75048    1.99846
  0   207     -5.61217    1.99389
  0   208     -5.38841    1.94420
  0   209     -5.38528    1.94247

  1   206     -5.76150    1.99862
  1   207     -5.60559    1.99348
  1   208     -5.28476    1.85027
  1   209     -5.01629    0.91496


Fermi level: -5.03334

No gap

Forces in eV/Ang:
  0 Cu    0.02955    0.02414   -0.07456
  1 Cu   -0.00177    0.03351   -0.06899
  2 Cu   -0.01309   -0.00272   -0.03467
  3 Cu    0.12334   -0.01152    0.12672
  4 Cu    0.00809   -0.00087   -0.05575
  5 Cu   -0.03046    0.00672    0.00573
  6 Cu   -0.04286    0.00872    0.02329
  7 Cu   -0.00303    0.02728    0.03614
  8 Cu   -0.00077    0.00330   -0.06063
  9 Cu    0.02256   -0.04022   -0.06343
 10 Cu    0.03518   -0.02168    0.09790
 11 Cu   -0.06084   -0.08179   -0.03112
 12 Cu   -0.02842    0.02481   -0.07452
 13 Cu    0.02630    0.01451    0.00044
 14 Cu    0.04102   -0.02691   -0.01111
 15 Cu   -0.07543   -0.02814    0.00132
 16 Cu    0.00106   -0.03463   -0.06467
 17 Cu    0.03069    0.00629    0.00030
 18 Cu    0.00840    0.03500   -0.18397
 19 Cu   -0.01999   -0.32782    0.40491
 20 Cu    0.01564    0.00214   -0.05746
 21 Cu    0.00290    0.01587   -0.03715
 22 Cu   -0.06351    0.02877    0.13351
 23 Cu    0.07115   -0.09920   -0.06601
 24 Cu   -0.00083   -0.01205   -0.06293
 25 Cu   -0.02473    0.00810    0.00154
 26 Cu   -0.03811    0.03004    0.01622
 27 Cu    0.03721   -0.00803    0.01687
 28 Cu   -0.00894   -0.00083   -0.05754
 29 Cu    0.00040    0.00377    0.00955
 30 Cu    0.03967   -0.02357    0.04141
 31 Cu   -0.00803    0.08163    0.00107
 32 Cu   -0.01484    0.00059   -0.05577
 33 Cu   -0.02687   -0.03622   -0.05873
 34 Cu    0.03659    0.00664    0.09835
 35 Cu   -0.00780   -0.08289   -0.05087
 36 H    -0.09387   -1.31248   -2.29420
 37 O     0.09074    1.08665    3.76052
 38 C    -0.22504    1.50829   -0.95947
 39 C     0.32790   -0.04483    1.55402
 40 O    -0.17131   -1.26071   -1.89640

BFGS:    1 17:24:47    -2800.634533        3.9154
System changes: positions 

Initializing position-dependent things.

Density initialized from wave functions
                                           
                                           
                                           
                                           
                                           
                                           
                                           
                   O                       
                 HC                        
           Cu    Ou    Cu                  
            Cu   C Cu    Cu                
            Cu    Cu    Cu                 
             CCu    Cu    CCu              
                                           
              CCu    Cu    CCu             
                Cu    Cu     Cu            
                                           
           Cu    CCu   CCu    Cu           
            Cu     Cu    Cu                
                                           
              Cu    Cu     Cu              
                                           
                                           
                                           
                                           

Positions:
   0 Cu     0.000000    0.000000    9.999999    ( 0.0000,  0.0000,  0.0000)
   1 Cu     1.303035    0.752307   12.127846    ( 0.0000,  0.0000,  0.0000)
   2 Cu     0.002971    1.504576   14.256156    ( 0.0000,  0.0000,  0.0000)
   3 Cu    -0.003428    0.000020   16.386452    ( 0.0000,  0.0000,  0.0000)
   4 Cu    -1.303035    2.256922    9.999999    ( 0.0000,  0.0000,  0.0000)
   5 Cu     0.000000    3.009230   12.127846    ( 0.0000,  0.0000,  0.0000)
   6 Cu    -1.300493    3.762500   14.259117    ( 0.0000,  0.0000,  0.0000)
   7 Cu    -1.304128    2.257588   16.392727    ( 0.0000,  0.0000,  0.0000)
   8 Cu    -2.606069    4.513845    9.999999    ( 0.0000,  0.0000,  0.0000)
   9 Cu    -1.303035    5.266152   12.127846    ( 0.0000,  0.0000,  0.0000)
  10 Cu    -2.606948    6.020505   14.226174    ( 0.0000,  0.0000,  0.0000)
  11 Cu    -2.604743    4.506064   16.369831    ( 0.0000,  0.0000,  0.0000)
  12 Cu     2.606069    0.000000    9.999999    ( 0.0000,  0.0000,  0.0000)
  13 Cu     3.909104    0.752307   12.127846    ( 0.0000,  0.0000,  0.0000)
  14 Cu     2.602128    1.505704   14.255151    ( 0.0000,  0.0000,  0.0000)
  15 Cu     2.613615    0.001323   16.381144    ( 0.0000,  0.0000,  0.0000)
  16 Cu     1.303035    2.256922    9.999999    ( 0.0000,  0.0000,  0.0000)
  17 Cu     2.606069    3.009230   12.127846    ( 0.0000,  0.0000,  0.0000)
  18 Cu     1.302759    3.764592   14.249575    ( 0.0000,  0.0000,  0.0000)
  19 Cu     1.298719    2.422224   16.363152    ( 0.0000,  0.0000,  0.0000)
  20 Cu     0.000000    4.513845    9.999999    ( 0.0000,  0.0000,  0.0000)
  21 Cu     1.303035    5.266152   12.127846    ( 0.0000,  0.0000,  0.0000)
  22 Cu    -0.001751    6.018610   14.247418    ( 0.0000,  0.0000,  0.0000)
  23 Cu    -0.008200    4.533282   16.390241    ( 0.0000,  0.0000,  0.0000)
  24 Cu     5.212139    0.000000    9.999999    ( 0.0000,  0.0000,  0.0000)
  25 Cu     6.515174    0.752307   12.127846    ( 0.0000,  0.0000,  0.0000)
  26 Cu     5.213258    1.503878   14.258638    ( 0.0000,  0.0000,  0.0000)
  27 Cu     5.211135    0.001437   16.375774    ( 0.0000,  0.0000,  0.0000)
  28 Cu     3.909104    2.256922    9.999999    ( 0.0000,  0.0000,  0.0000)
  29 Cu     5.212139    3.009230   12.127846    ( 0.0000,  0.0000,  0.0000)
  30 Cu     3.906629    3.763294   14.258021    ( 0.0000,  0.0000,  0.0000)
  31 Cu     3.910627    2.256414   16.394585    ( 0.0000,  0.0000,  0.0000)
  32 Cu     2.606069    4.513845    9.999999    ( 0.0000,  0.0000,  0.0000)
  33 Cu     3.909104    5.266152   12.127846    ( 0.0000,  0.0000,  0.0000)
  34 Cu     2.608251    6.019188   14.252658    ( 0.0000,  0.0000,  0.0000)
  35 Cu     2.611764    4.531328   16.389580    ( 0.0000,  0.0000,  0.0000)
  36 H      1.368355   -0.272363   19.804632    ( 0.0000,  0.0000,  0.0000)
  37 O      1.345019   -0.718175   18.908648    ( 0.0000,  0.0000,  0.0000)
  38 C      1.340651    0.255847   17.921041    ( 0.0000,  0.0000,  0.0000)
  39 C      1.289244    1.713516   18.298598    ( 0.0000,  0.0000,  0.0000)
  40 O      1.320584    2.247191   19.339125    ( 0.0000,  0.0000,  0.0000)

Unit cell:
           periodic     x           y           z      points  spacing
  1. axis:    yes    7.818208    0.000000    0.000000    36     0.1881
  2. axis:    yes   -3.909104    6.770767    0.000000    36     0.1881
  3. axis:    no     0.000000    0.000000   26.383539   148     0.1783

  Lengths:   7.818208   7.818208  26.383539
  Angles:   90.000000  90.000000 120.000000

Effective grid spacing dv^(1/3) = 0.1938

     iter     time        total  log10-change:
                         energy  eigst   dens
iter:   1 17:25:38 -2804.264967  -1.39
iter:   2 17:26:00 -2802.416136  -1.71  -1.90
iter:   3 17:26:22 -2801.445470  -2.23  -1.99
iter:   4 17:26:44 -2800.945210  -2.41  -2.23
iter:   5 17:27:06 -2800.853564  -2.89  -2.50
iter:   6 17:27:28 -2800.819418c -2.77  -2.71
iter:   7 17:27:50 -2800.800447c -3.01  -2.94
iter:   8 17:28:12 -2800.804742c -3.17  -3.13
iter:   9 17:28:34 -2800.803111c -3.83  -3.05
iter:  10 17:28:56 -2800.797445c -3.93  -3.06
iter:  11 17:29:18 -2800.797996c -4.36  -3.43
iter:  12 17:29:40 -2800.795640c -4.51  -3.38
iter:  13 17:30:02 -2800.795548c -5.20  -3.85
iter:  14 17:30:24 -2800.795601c -5.24  -3.91
iter:  15 17:30:46 -2800.795545c -5.70  -4.01c
iter:  16 17:31:07 -2800.795584c -5.78  -4.24c
iter:  17 17:31:29 -2800.795605c -6.18  -4.41c
iter:  18 17:31:51 -2800.795580c -6.50  -4.46c
iter:  19 17:32:13 -2800.795580c -6.49  -4.48c
iter:  20 17:32:35 -2800.795579c -7.25  -4.70c
iter:  21 17:32:57 -2800.795583c -6.94  -4.87c
iter:  22 17:33:19 -2800.795572c -7.35  -4.88c
iter:  23 17:33:41 -2800.795575c -8.09c -5.20c

Converged after 23 iterations.

Dipole moment: (-2.608634, -9.790455, -0.038267) |e|*Ang

Energy contributions relative to reference atoms: (reference = -1626921.717276)

Kinetic:       +262.059851
Potential:     -303.661369
External:        +0.000000
XC:            -2762.031214
Entropy (-ST):   -0.468098
Local:           +3.071206
--------------------------
Free energy:   -2801.029625
Extrapolated:  -2800.795575

Showing only first 2 kpts
 Kpt  Band  Eigenvalues  Occupancy
  0   206     -5.69331    1.99887
  0   207     -5.51135    1.99306
  0   208     -5.30392    1.94604
  0   209     -5.30024    1.94407

  1   206     -5.67541    1.99865
  1   207     -5.51868    1.99354
  1   208     -5.18101    1.82683
  1   209     -4.95493    1.04762


Fermi level: -4.94540

No gap

Forces in eV/Ang:
  0 Cu    0.02943    0.02429   -0.07713
  1 Cu   -0.00136    0.03208   -0.06595
  2 Cu   -0.00759   -0.00055   -0.02152
  3 Cu    0.06206   -0.00389    0.14420
  4 Cu    0.00900    0.00103   -0.05760
  5 Cu   -0.03262    0.00543    0.00823
  6 Cu   -0.02950    0.00652    0.01228
  7 Cu   -0.00106    0.01966    0.02225
  8 Cu   -0.00048    0.00244   -0.06325
  9 Cu    0.02183   -0.03871   -0.06358
 10 Cu    0.02057   -0.01654    0.08504
 11 Cu   -0.03702   -0.06552   -0.00750
 12 Cu   -0.02866    0.02484   -0.07719
 13 Cu    0.02877    0.00972    0.00033
 14 Cu    0.02534   -0.01450   -0.00739
 15 Cu   -0.02882   -0.01751    0.02988
 16 Cu    0.00093   -0.03323   -0.06366
 17 Cu    0.03273    0.00497    0.00368
 18 Cu    0.00560    0.01672   -0.16050
 19 Cu   -0.00834   -0.28949    0.31590
 20 Cu    0.01565    0.00068   -0.05741
 21 Cu    0.00253    0.02514   -0.03323
 22 Cu   -0.04129    0.01873    0.12873
 23 Cu    0.06611   -0.10724   -0.05575
 24 Cu   -0.00054   -0.01281   -0.06428
 25 Cu   -0.02747    0.00417    0.00225
 26 Cu   -0.02414    0.01782    0.01385
 27 Cu    0.02677   -0.00266    0.01453
 28 Cu   -0.00962    0.00103   -0.05891
 29 Cu    0.00032    0.00602    0.00991
 30 Cu    0.02723   -0.01355    0.02624
 31 Cu   -0.00810    0.05282   -0.00513
 32 Cu   -0.01511   -0.00049   -0.05600
 33 Cu   -0.02550   -0.03518   -0.05770
 34 Cu    0.02771    0.00642    0.09591
 35 Cu   -0.02167   -0.09011   -0.04403
 36 H    -0.03330   -0.62155   -0.93424
 37 O     0.05173    1.10685    1.34524
 38 C    -0.20387    0.43758   -0.07214
 39 C     0.15124   -2.27564   -2.98251
 40 O    -0.00323    1.31029    2.84332

BFGS:    2 17:33:51    -2800.795575        3.7546
System changes: positions 

Initializing position-dependent things.

Density initialized from wave functions
                                           
                                           
                                           
                                           
                                           
                                           
                                           
                   O                       
                 HC                        
           Cu    Ou    Cu                  
            Cu   C Cu    Cu                
            Cu    Cu    Cu                 
             CCu    Cu    CCu              
                                           
              CCu    Cu    CCu             
                Cu    Cu     Cu            
                                           
           Cu    CCu   CCu    Cu           
            Cu     Cu    Cu                
                                           
              Cu    Cu     Cu              
                                           
                                           
                                           
                                           

Positions:
   0 Cu     0.000000    0.000000    9.999999    ( 0.0000,  0.0000,  0.0000)
   1 Cu     1.303035    0.752307   12.127846    ( 0.0000,  0.0000,  0.0000)
   2 Cu     0.002832    1.504554   14.255775    ( 0.0000,  0.0000,  0.0000)
   3 Cu    -0.002215   -0.000105   16.388531    ( 0.0000,  0.0000,  0.0000)
   4 Cu    -1.303035    2.256922    9.999999    ( 0.0000,  0.0000,  0.0000)
   5 Cu     0.000000    3.009230   12.127846    ( 0.0000,  0.0000,  0.0000)
   6 Cu    -1.300997    3.762608   14.259354    ( 0.0000,  0.0000,  0.0000)
   7 Cu    -1.304158    2.257920   16.393125    ( 0.0000,  0.0000,  0.0000)
   8 Cu    -2.606069    4.513845    9.999999    ( 0.0000,  0.0000,  0.0000)
   9 Cu    -1.303035    5.266152   12.127846    ( 0.0000,  0.0000,  0.0000)
  10 Cu    -2.606570    6.020236   14.227501    ( 0.0000,  0.0000,  0.0000)
  11 Cu    -2.605410    4.505039   16.369627    ( 0.0000,  0.0000,  0.0000)
  12 Cu     2.606069    0.000000    9.999999    ( 0.0000,  0.0000,  0.0000)
  13 Cu     3.909104    0.752307   12.127846    ( 0.0000,  0.0000,  0.0000)
  14 Cu     2.602582    1.505425   14.255024    ( 0.0000,  0.0000,  0.0000)
  15 Cu     2.612971    0.000975   16.381465    ( 0.0000,  0.0000,  0.0000)
  16 Cu     1.303035    2.256922    9.999999    ( 0.0000,  0.0000,  0.0000)
  17 Cu     2.606069    3.009230   12.127846    ( 0.0000,  0.0000,  0.0000)
  18 Cu     1.302856    3.764930   14.247082    ( 0.0000,  0.0000,  0.0000)
  19 Cu     1.298544    2.417787   16.368174    ( 0.0000,  0.0000,  0.0000)
  20 Cu     0.000000    4.513845    9.999999    ( 0.0000,  0.0000,  0.0000)
  21 Cu     1.303035    5.266152   12.127846    ( 0.0000,  0.0000,  0.0000)
  22 Cu    -0.002476    6.018942   14.249357    ( 0.0000,  0.0000,  0.0000)
  23 Cu    -0.007194    4.531730   16.389366    ( 0.0000,  0.0000,  0.0000)
  24 Cu     5.212139    0.000000    9.999999    ( 0.0000,  0.0000,  0.0000)
  25 Cu     6.515174    0.752307   12.127846    ( 0.0000,  0.0000,  0.0000)
  26 Cu     5.212830    1.504201   14.258860    ( 0.0000,  0.0000,  0.0000)
  27 Cu     5.211584    0.001370   16.375998    ( 0.0000,  0.0000,  0.0000)
  28 Cu     3.909104    2.256922    9.999999    ( 0.0000,  0.0000,  0.0000)
  29 Cu     5.212139    3.009230   12.127846    ( 0.0000,  0.0000,  0.0000)
  30 Cu     3.907094    3.763043   14.258487    ( 0.0000,  0.0000,  0.0000)
  31 Cu     3.910510    2.257343   16.394539    ( 0.0000,  0.0000,  0.0000)
  32 Cu     2.606069    4.513845    9.999999    ( 0.0000,  0.0000,  0.0000)
  33 Cu     3.909104    5.266152   12.127846    ( 0.0000,  0.0000,  0.0000)
  34 Cu     2.608708    6.019288   14.254097    ( 0.0000,  0.0000,  0.0000)
  35 Cu     2.611512    4.530027   16.388896    ( 0.0000,  0.0000,  0.0000)
  36 H      1.367682   -0.282792   19.788345    ( 0.0000,  0.0000,  0.0000)
  37 O      1.345886   -0.703825   18.935576    ( 0.0000,  0.0000,  0.0000)
  38 C      1.337488    0.267447   17.916282    ( 0.0000,  0.0000,  0.0000)
  39 C      1.292365    1.690077   18.275905    ( 0.0000,  0.0000,  0.0000)
  40 O      1.319736    2.254504   19.358786    ( 0.0000,  0.0000,  0.0000)

Unit cell:
           periodic     x           y           z      points  spacing
  1. axis:    yes    7.818208    0.000000    0.000000    36     0.1881
  2. axis:    yes   -3.909104    6.770767    0.000000    36     0.1881
  3. axis:    no     0.000000    0.000000   26.383539   148     0.1783

  Lengths:   7.818208   7.818208  26.383539
  Angles:   90.000000  90.000000 120.000000

Effective grid spacing dv^(1/3) = 0.1938

     iter     time        total  log10-change:
                         energy  eigst   dens
iter:   1 17:34:43 -2801.212062  -1.67
iter:   2 17:35:05 -2801.071692  -2.48  -2.53
iter:   3 17:35:28 -2801.048636c -2.82  -2.52
iter:   4 17:35:50 -2800.961526c -2.87  -2.55
iter:   5 17:36:12 -2800.911635c -3.60  -2.66
iter:   6 17:36:34 -2800.902978c -3.48  -3.05
iter:   7 17:36:57 -2800.903900c -3.34  -3.20
iter:   8 17:37:19 -2800.898718c -3.75  -3.19
iter:   9 17:37:41 -2800.895472c -4.17  -3.41
iter:  10 17:38:03 -2800.895264c -4.46  -3.66
iter:  11 17:38:26 -2800.895455c -5.24  -3.68
iter:  12 17:38:48 -2800.895363c -5.56  -3.76
iter:  13 17:39:10 -2800.895168c -5.21  -3.91
iter:  14 17:39:32 -2800.895165c -6.00  -4.22c
iter:  15 17:39:55 -2800.895205c -6.01  -4.28c
iter:  16 17:40:17 -2800.895242c -6.25  -4.38c
iter:  17 17:40:39 -2800.895263c -6.43  -4.41c
iter:  18 17:41:01 -2800.895191c -6.27  -4.33c
iter:  19 17:41:23 -2800.895179c -6.86  -4.71c
iter:  20 17:41:46 -2800.895180c -7.65c -4.89c

Converged after 20 iterations.

Dipole moment: (-2.623631, -9.579395, -0.167166) |e|*Ang

Energy contributions relative to reference atoms: (reference = -1626921.717276)

Kinetic:       +259.690713
Potential:     -301.578561
External:        +0.000000
XC:            -2761.847968
Entropy (-ST):   -0.470790
Local:           +3.076031
--------------------------
Free energy:   -2801.130575
Extrapolated:  -2800.895180

Showing only first 2 kpts
 Kpt  Band  Eigenvalues  Occupancy
  0   206     -5.83742    1.99890
  0   207     -5.65334    1.99312
  0   208     -5.43909    1.94283
  0   209     -5.43694    1.94163

  1   206     -5.80486    1.99848
  1   207     -5.65779    1.99342
  1   208     -5.29897    1.78655
  1   209     -5.11640    1.14838


Fermi level: -5.08650

No gap

Forces in eV/Ang:
  0 Cu    0.02983    0.02391   -0.07632
  1 Cu   -0.00119    0.03001   -0.06272
  2 Cu   -0.00576    0.00152   -0.02062
  3 Cu    0.02544   -0.01833    0.13028
  4 Cu    0.00932    0.00165   -0.05698
  5 Cu   -0.03525    0.00557    0.00558
  6 Cu   -0.01668    0.00327    0.01109
  7 Cu   -0.00689    0.01595    0.01584
  8 Cu   -0.00023    0.00280   -0.06436
  9 Cu    0.02281   -0.03777   -0.05939
 10 Cu    0.01030   -0.01060    0.07497
 11 Cu   -0.02124   -0.02979    0.01506
 12 Cu   -0.02922    0.02421   -0.07668
 13 Cu    0.03017    0.00787    0.00067
 14 Cu    0.01643   -0.00575   -0.01250
 15 Cu   -0.01270   -0.03387    0.03100
 16 Cu    0.00074   -0.03325   -0.06411
 17 Cu    0.03533    0.00534    0.00163
 18 Cu    0.00358   -0.00171   -0.12659
 19 Cu    0.00177   -0.26060    0.25032
 20 Cu    0.01476    0.00063   -0.05718
 21 Cu    0.00238    0.02959   -0.02944
 22 Cu   -0.02711    0.01450    0.12127
 23 Cu    0.05319   -0.08864   -0.05102
 24 Cu   -0.00041   -0.01298   -0.06532
 25 Cu   -0.02901    0.00306    0.00351
 26 Cu   -0.01475    0.00699    0.01709
 27 Cu    0.01905   -0.00719    0.00794
 28 Cu   -0.00977    0.00159   -0.05778
 29 Cu    0.00020    0.00537    0.01016
 30 Cu    0.01555   -0.00839    0.02171
 31 Cu   -0.00126    0.03510   -0.00544
 32 Cu   -0.01448   -0.00033   -0.05622
 33 Cu   -0.02602   -0.03469   -0.05338
 34 Cu    0.02283    0.00884    0.08987
 35 Cu   -0.02229   -0.07208   -0.04160
 36 H     0.01613    0.47147    0.96379
 37 O    -0.04579    0.20883   -1.07810
 38 C    -0.15913   -0.08148    0.46316
 39 C     0.18805   -0.25788    0.52138
 40 O    -0.11918   -0.39070   -0.66520

BFGS:    3 17:41:55    -2800.895180        1.0991
System changes: positions 

Initializing position-dependent things.

Density initialized from wave functions
                                           
                                           
                                           
                                           
                                           
                                           
                                           
                   O                       
                 HC                        
           Cu    Ou    Cu                  
            Cu   C Cu    Cu                
            Cu    Cu    Cu                 
             CCu    Cu    CCu              
                                           
              CCu    Cu    CCu             
                Cu    Cu     Cu            
                                           
           Cu    CCu   CCu    Cu           
            Cu     Cu    Cu                
                                           
              Cu    Cu     Cu              
                                           
                                           
                                           
                                           

Positions:
   0 Cu     0.000000    0.000000    9.999999    ( 0.0000,  0.0000,  0.0000)
   1 Cu     1.303035    0.752307   12.127846    ( 0.0000,  0.0000,  0.0000)
   2 Cu     0.002766    1.504574   14.255537    ( 0.0000,  0.0000,  0.0000)
   3 Cu    -0.001931   -0.000297   16.390080    ( 0.0000,  0.0000,  0.0000)
   4 Cu    -1.303035    2.256922    9.999999    ( 0.0000,  0.0000,  0.0000)
   5 Cu     0.000000    3.009230   12.127846    ( 0.0000,  0.0000,  0.0000)
   6 Cu    -1.301191    3.762647   14.259479    ( 0.0000,  0.0000,  0.0000)
   7 Cu    -1.304234    2.258105   16.393307    ( 0.0000,  0.0000,  0.0000)
   8 Cu    -2.606069    4.513845    9.999999    ( 0.0000,  0.0000,  0.0000)
   9 Cu    -1.303035    5.266152   12.127846    ( 0.0000,  0.0000,  0.0000)
  10 Cu    -2.606453    6.020110   14.228386    ( 0.0000,  0.0000,  0.0000)
  11 Cu    -2.605653    4.504667   16.369799    ( 0.0000,  0.0000,  0.0000)
  12 Cu     2.606069    0.000000    9.999999    ( 0.0000,  0.0000,  0.0000)
  13 Cu     3.909104    0.752307   12.127846    ( 0.0000,  0.0000,  0.0000)
  14 Cu     2.602771    1.505362   14.254879    ( 0.0000,  0.0000,  0.0000)
  15 Cu     2.612836    0.000605   16.381841    ( 0.0000,  0.0000,  0.0000)
  16 Cu     1.303035    2.256922    9.999999    ( 0.0000,  0.0000,  0.0000)
  17 Cu     2.606069    3.009230   12.127846    ( 0.0000,  0.0000,  0.0000)
  18 Cu     1.302898    3.764905   14.245579    ( 0.0000,  0.0000,  0.0000)
  19 Cu     1.298565    2.414682   16.371169    ( 0.0000,  0.0000,  0.0000)
  20 Cu     0.000000    4.513845    9.999999    ( 0.0000,  0.0000,  0.0000)
  21 Cu     1.303035    5.266152   12.127846    ( 0.0000,  0.0000,  0.0000)
  22 Cu    -0.002788    6.019107   14.250793    ( 0.0000,  0.0000,  0.0000)
  23 Cu    -0.006561    4.530666   16.388763    ( 0.0000,  0.0000,  0.0000)
  24 Cu     5.212139    0.000000    9.999999    ( 0.0000,  0.0000,  0.0000)
  25 Cu     6.515174    0.752307   12.127846    ( 0.0000,  0.0000,  0.0000)
  26 Cu     5.212660    1.504282   14.259058    ( 0.0000,  0.0000,  0.0000)
  27 Cu     5.211807    0.001291   16.376095    ( 0.0000,  0.0000,  0.0000)
  28 Cu     3.909104    2.256922    9.999999    ( 0.0000,  0.0000,  0.0000)
  29 Cu     5.212139    3.009230   12.127846    ( 0.0000,  0.0000,  0.0000)
  30 Cu     3.907276    3.762948   14.258736    ( 0.0000,  0.0000,  0.0000)
  31 Cu     3.910491    2.257747   16.394471    ( 0.0000,  0.0000,  0.0000)
  32 Cu     2.606069    4.513845    9.999999    ( 0.0000,  0.0000,  0.0000)
  33 Cu     3.909104    5.266152   12.127846    ( 0.0000,  0.0000,  0.0000)
  34 Cu     2.608975    6.019390   14.255162    ( 0.0000,  0.0000,  0.0000)
  35 Cu     2.611239    4.529160   16.388404    ( 0.0000,  0.0000,  0.0000)
  36 H      1.367830   -0.278331   19.797673    ( 0.0000,  0.0000,  0.0000)
  37 O      1.345404   -0.699966   18.924783    ( 0.0000,  0.0000,  0.0000)
  38 C      1.335613    0.266107   17.921765    ( 0.0000,  0.0000,  0.0000)
  39 C      1.294470    1.685218   18.278372    ( 0.0000,  0.0000,  0.0000)
  40 O      1.318455    2.251820   19.354721    ( 0.0000,  0.0000,  0.0000)

Unit cell:
           periodic     x           y           z      points  spacing
  1. axis:    yes    7.818208    0.000000    0.000000    36     0.1881
  2. axis:    yes   -3.909104    6.770767    0.000000    36     0.1881
  3. axis:    no     0.000000    0.000000   26.383539   148     0.1783

  Lengths:   7.818208   7.818208  26.383539
  Angles:   90.000000  90.000000 120.000000

Effective grid spacing dv^(1/3) = 0.1938

     iter     time        total  log10-change:
                         energy  eigst   dens
iter:   1 17:42:47 -2800.947791  -2.81
iter:   2 17:43:09 -2800.936207  -3.50  -2.91
iter:   3 17:43:31 -2800.926007c -4.01  -2.95
iter:   4 17:43:53 -2800.919771c -4.45  -3.15
iter:   5 17:44:16 -2800.919977c -4.10  -3.58
iter:   6 17:44:38 -2800.918278c -4.30  -3.58
iter:   7 17:45:00 -2800.918071c -5.05  -3.93
iter:   8 17:45:22 -2800.918195c -5.40  -4.04c
iter:   9 17:45:44 -2800.918219c -5.62  -3.97
iter:  10 17:46:06 -2800.918101c -6.13  -4.36c
iter:  11 17:46:28 -2800.918076c -6.54  -4.51c
iter:  12 17:46:50 -2800.918156c -6.75  -4.53c
iter:  13 17:47:12 -2800.918160c -6.68  -4.63c
iter:  14 17:47:34 -2800.918143c -7.00  -4.60c
iter:  15 17:47:56 -2800.918114c -7.25  -4.77c
iter:  16 17:48:18 -2800.918114c -7.45c -4.87c

Converged after 16 iterations.

Dipole moment: (-2.671252, -9.507936, -0.139704) |e|*Ang

Energy contributions relative to reference atoms: (reference = -1626921.717276)

Kinetic:       +259.946949
Potential:     -301.813449
External:        +0.000000
XC:            -2761.895020
Entropy (-ST):   -0.471836
Local:           +3.079324
--------------------------
Free energy:   -2801.154032
Extrapolated:  -2800.918114

Showing only first 2 kpts
 Kpt  Band  Eigenvalues  Occupancy
  0   206     -5.80465    1.99888
  0   207     -5.62661    1.99337
  0   208     -5.41002    1.94357
  0   209     -5.40774    1.94231

  1   206     -5.77564    1.99850
  1   207     -5.62880    1.99351
  1   208     -5.26526    1.78019
  1   209     -5.08467    1.14192


Fermi level: -5.05609

No gap

Forces in eV/Ang:
  0 Cu    0.02931    0.02395   -0.07606
  1 Cu   -0.00097    0.02920   -0.06144
  2 Cu   -0.00278    0.00207   -0.01283
  3 Cu    0.02158   -0.00987    0.12165
  4 Cu    0.00930    0.00172   -0.05637
  5 Cu   -0.03619    0.00525    0.00398
  6 Cu   -0.01245    0.00020    0.00803
  7 Cu   -0.00566    0.00870    0.01612
  8 Cu   -0.00019    0.00247   -0.06352
  9 Cu    0.02275   -0.03707   -0.05687
 10 Cu    0.00697   -0.00563    0.06688
 11 Cu   -0.01590   -0.02679    0.01279
 12 Cu   -0.02882    0.02425   -0.07634
 13 Cu    0.03007    0.00692    0.00163
 14 Cu    0.01098   -0.00314   -0.00743
 15 Cu   -0.02205   -0.02114    0.03949
 16 Cu    0.00071   -0.03288   -0.06382
 17 Cu    0.03632    0.00491    0.00050
 18 Cu    0.00285   -0.00940   -0.10971
 19 Cu    0.00725   -0.25121    0.23194
 20 Cu    0.01483    0.00056   -0.05650
 21 Cu    0.00213    0.03142   -0.02788
 22 Cu   -0.01978    0.01147    0.11111
 23 Cu    0.04782   -0.08250   -0.04565
 24 Cu   -0.00032   -0.01307   -0.06476
 25 Cu   -0.02916    0.00251    0.00420
 26 Cu   -0.01135    0.00588    0.01616
 27 Cu    0.01527   -0.00290    0.01252
 28 Cu   -0.00970    0.00167   -0.05693
 29 Cu    0.00010    0.00568    0.01014
 30 Cu    0.01163   -0.00846    0.01687
 31 Cu   -0.00181    0.02308   -0.00172
 32 Cu   -0.01460   -0.00028   -0.05576
 33 Cu   -0.02556   -0.03436   -0.05133
 34 Cu    0.01811    0.00767    0.08142
 35 Cu   -0.02236   -0.06714   -0.03693
 36 H    -0.00699    0.06658    0.15458
 37 O     0.03376    0.40966    0.02187
 38 C    -0.14848    0.02589    0.12323
 39 C     0.16490   -0.30393    0.20605
 40 O    -0.08385   -0.22084   -0.31446

BFGS:    4 17:48:28    -2800.918114        0.4116
System changes: positions 

Initializing position-dependent things.

Density initialized from wave functions
                                           
                                           
                                           
                                           
                                           
                                           
                                           
                   O                       
                 HC                        
           Cu    Ou    Cu                  
            Cu   C Cu    Cu                
            Cu    Cu    Cu                 
             CCu    Cu    CCu              
                                           
              CCu    Cu    CCu             
                Cu    Cu     Cu            
                                           
           Cu    CCu   CCu    Cu           
            Cu     Cu    Cu                
                                           
              Cu    Cu     Cu              
                                           
                                           
                                           
                                           

Positions:
   0 Cu     0.000000    0.000000    9.999999    ( 0.0000,  0.0000,  0.0000)
   1 Cu     1.303035    0.752307   12.127846    ( 0.0000,  0.0000,  0.0000)
   2 Cu     0.002650    1.504620   14.255085    ( 0.0000,  0.0000,  0.0000)
   3 Cu    -0.001111   -0.000633   16.393691    ( 0.0000,  0.0000,  0.0000)
   4 Cu    -1.303035    2.256922    9.999999    ( 0.0000,  0.0000,  0.0000)
   5 Cu     0.000000    3.009230   12.127846    ( 0.0000,  0.0000,  0.0000)
   6 Cu    -1.301637    3.762690   14.259752    ( 0.0000,  0.0000,  0.0000)
   7 Cu    -1.304395    2.258437   16.393803    ( 0.0000,  0.0000,  0.0000)
   8 Cu    -2.606069    4.513845    9.999999    ( 0.0000,  0.0000,  0.0000)
   9 Cu    -1.303035    5.266152   12.127846    ( 0.0000,  0.0000,  0.0000)
  10 Cu    -2.606179    6.019884   14.230425    ( 0.0000,  0.0000,  0.0000)
  11 Cu    -2.606227    4.503763   16.370108    ( 0.0000,  0.0000,  0.0000)
  12 Cu     2.606069    0.000000    9.999999    ( 0.0000,  0.0000,  0.0000)
  13 Cu     3.909104    0.752307   12.127846    ( 0.0000,  0.0000,  0.0000)
  14 Cu     2.603176    1.505210   14.254633    ( 0.0000,  0.0000,  0.0000)
  15 Cu     2.612189   -0.000092   16.382881    ( 0.0000,  0.0000,  0.0000)
  16 Cu     1.303035    2.256922    9.999999    ( 0.0000,  0.0000,  0.0000)
  17 Cu     2.606069    3.009230   12.127846    ( 0.0000,  0.0000,  0.0000)
  18 Cu     1.302995    3.764771   14.242154    ( 0.0000,  0.0000,  0.0000)
  19 Cu     1.298689    2.407258   16.378248    ( 0.0000,  0.0000,  0.0000)
  20 Cu     0.000000    4.513845    9.999999    ( 0.0000,  0.0000,  0.0000)
  21 Cu     1.303035    5.266152   12.127846    ( 0.0000,  0.0000,  0.0000)
  22 Cu    -0.003485    6.019488   14.254111    ( 0.0000,  0.0000,  0.0000)
  23 Cu    -0.005095    4.528192   16.387379    ( 0.0000,  0.0000,  0.0000)
  24 Cu     5.212139    0.000000    9.999999    ( 0.0000,  0.0000,  0.0000)
  25 Cu     6.515174    0.752307   12.127846    ( 0.0000,  0.0000,  0.0000)
  26 Cu     5.212262    1.504504   14.259527    ( 0.0000,  0.0000,  0.0000)
  27 Cu     5.212312    0.001177   16.376437    ( 0.0000,  0.0000,  0.0000)
  28 Cu     3.909104    2.256922    9.999999    ( 0.0000,  0.0000,  0.0000)
  29 Cu     5.212139    3.009230   12.127846    ( 0.0000,  0.0000,  0.0000)
  30 Cu     3.907690    3.762679   14.259293    ( 0.0000,  0.0000,  0.0000)
  31 Cu     3.910426    2.258596   16.394397    ( 0.0000,  0.0000,  0.0000)
  32 Cu     2.606069    4.513845    9.999999    ( 0.0000,  0.0000,  0.0000)
  33 Cu     3.909104    5.266152   12.127846    ( 0.0000,  0.0000,  0.0000)
  34 Cu     2.609561    6.019616   14.257602    ( 0.0000,  0.0000,  0.0000)
  35 Cu     2.610611    4.527140   16.387287    ( 0.0000,  0.0000,  0.0000)
  36 H      1.367669   -0.275902   19.803931    ( 0.0000,  0.0000,  0.0000)
  37 O      1.345984   -0.688165   18.923501    ( 0.0000,  0.0000,  0.0000)
  38 C      1.331079    0.268496   17.926008    ( 0.0000,  0.0000,  0.0000)
  39 C      1.299509    1.673272   18.281639    ( 0.0000,  0.0000,  0.0000)
  40 O      1.315897    2.246277   19.347838    ( 0.0000,  0.0000,  0.0000)

Unit cell:
           periodic     x           y           z      points  spacing
  1. axis:    yes    7.818208    0.000000    0.000000    36     0.1881
  2. axis:    yes   -3.909104    6.770767    0.000000    36     0.1881
  3. axis:    no     0.000000    0.000000   26.383539   148     0.1783

  Lengths:   7.818208   7.818208  26.383539
  Angles:   90.000000  90.000000 120.000000

Effective grid spacing dv^(1/3) = 0.1938

     iter     time        total  log10-change:
                         energy  eigst   dens
iter:   1 17:49:20 -2801.174965  -2.54
iter:   2 17:49:42 -2801.094108  -2.77  -2.42
iter:   3 17:50:04 -2800.962918  -3.33  -2.49
iter:   4 17:50:26 -2800.934111c -4.12  -2.85
iter:   5 17:50:48 -2800.934284c -4.16  -3.46
iter:   6 17:51:11 -2800.933545c -4.44  -3.57
iter:   7 17:51:33 -2800.932834c -4.98  -3.76
iter:   8 17:51:55 -2800.932955c -5.26  -3.95
iter:   9 17:52:17 -2800.933220c -5.43  -3.88
iter:  10 17:52:39 -2800.932936c -5.52  -3.96
iter:  11 17:53:01 -2800.932774c -5.87  -4.23c
iter:  12 17:53:23 -2800.932797c -6.55  -4.43c
iter:  13 17:53:45 -2800.932890c -6.00  -4.39c
iter:  14 17:54:07 -2800.932877c -6.94  -4.63c
iter:  15 17:54:30 -2800.932872c -7.02  -4.65c
iter:  16 17:54:52 -2800.932856c -7.18  -4.79c
iter:  17 17:55:14 -2800.932829c -7.41c -5.01c

Converged after 17 iterations.

Dipole moment: (-2.746289, -9.325479, -0.118824) |e|*Ang

Energy contributions relative to reference atoms: (reference = -1626921.717276)

Kinetic:       +261.336714
Potential:     -302.871811
External:        +0.000000
XC:            -2762.245546
Entropy (-ST):   -0.472570
Local:           +3.084100
--------------------------
Free energy:   -2801.169114
Extrapolated:  -2800.932829

Showing only first 2 kpts
 Kpt  Band  Eigenvalues  Occupancy
  0   206     -5.78473    1.99891
  0   207     -5.60716    1.99355
  0   208     -5.38901    1.94429
  0   209     -5.38643    1.94287

  1   206     -5.75292    1.99850
  1   207     -5.60816    1.99362
  1   208     -5.23284    1.75965
  1   209     -5.06842    1.17155


Fermi level: -5.03377

No gap

Forces in eV/Ang:
  0 Cu    0.02845    0.02355   -0.07591
  1 Cu   -0.00075    0.02718   -0.05852
  2 Cu    0.00167    0.00050   -0.00222
  3 Cu   -0.00481   -0.00284    0.09235
  4 Cu    0.00918    0.00235   -0.05585
  5 Cu   -0.03872    0.00424    0.00122
  6 Cu   -0.00332   -0.00139    0.00092
  7 Cu   -0.00305   -0.00034    0.01122
  8 Cu    0.00000    0.00193   -0.06360
  9 Cu    0.02327   -0.03506   -0.05132
 10 Cu   -0.00115    0.00114    0.05081
 11 Cu   -0.00267   -0.01488    0.01031
 12 Cu   -0.02816    0.02370   -0.07626
 13 Cu    0.03104    0.00383    0.00377
 14 Cu    0.00023    0.00043   -0.00366
 15 Cu   -0.01715   -0.00776    0.04756
 16 Cu    0.00056   -0.03178   -0.06338
 17 Cu    0.03887    0.00407   -0.00149
 18 Cu    0.00099   -0.02119   -0.07522
 19 Cu    0.01873   -0.22829    0.16487
 20 Cu    0.01464    0.00036   -0.05559
 21 Cu    0.00174    0.03737   -0.02263
 22 Cu   -0.00486    0.00365    0.08437
 23 Cu    0.03340   -0.06376   -0.03886
 24 Cu   -0.00015   -0.01334   -0.06457
 25 Cu   -0.03037    0.00048    0.00638
 26 Cu   -0.00274   -0.00034    0.00933
 27 Cu    0.00622   -0.00232    0.01615
 28 Cu   -0.00943    0.00224   -0.05587
 29 Cu   -0.00002    0.00579    0.01073
 30 Cu    0.00327   -0.00256    0.00551
 31 Cu   -0.00176    0.00165    0.00124
 32 Cu   -0.01461   -0.00022   -0.05532
 33 Cu   -0.02540   -0.03306   -0.04640
 34 Cu    0.00964    0.00485    0.06036
 35 Cu   -0.02255   -0.05122   -0.03245
 36 H    -0.00982    0.05175    0.01649
 37 O     0.02945    0.12092    0.35128
 38 C    -0.11840   -0.02980   -0.09733
 39 C     0.12069   -0.21483   -0.11520
 40 O    -0.03408   -0.00281    0.12177

BFGS:    5 17:55:24    -2800.932829        0.3727
System changes: positions 

Initializing position-dependent things.

Density initialized from wave functions
                                           
                                           
                                           
                                           
                                           
                                           
                                           
                   O                       
                 H                         
           Cu    OC    Cu                  
            Cu   C Cu    Cu                
            Cu    Cu    Cu                 
             CCu    Cu    CCu              
                                           
              CCu    Cu    CCu             
                Cu    Cu     Cu            
                                           
           Cu    CCu   CCu    Cu           
            Cu     Cu    Cu                
                                           
              Cu    Cu     Cu              
                                           
                                           
                                           
                                           

Positions:
   0 Cu     0.000000    0.000000    9.999999    ( 0.0000,  0.0000,  0.0000)
   1 Cu     1.303035    0.752307   12.127846    ( 0.0000,  0.0000,  0.0000)
   2 Cu     0.002600    1.504649   14.254731    ( 0.0000,  0.0000,  0.0000)
   3 Cu    -0.000655   -0.000928   16.397819    ( 0.0000,  0.0000,  0.0000)
   4 Cu    -1.303035    2.256922    9.999999    ( 0.0000,  0.0000,  0.0000)
   5 Cu     0.000000    3.009230   12.127846    ( 0.0000,  0.0000,  0.0000)
   6 Cu    -1.302006    3.762705   14.259952    ( 0.0000,  0.0000,  0.0000)
   7 Cu    -1.304557    2.258664   16.394346    ( 0.0000,  0.0000,  0.0000)
   8 Cu    -2.606069    4.513845    9.999999    ( 0.0000,  0.0000,  0.0000)
   9 Cu    -1.303035    5.266152   12.127846    ( 0.0000,  0.0000,  0.0000)
  10 Cu    -2.606012    6.019747   14.232762    ( 0.0000,  0.0000,  0.0000)
  11 Cu    -2.606671    4.502868   16.370485    ( 0.0000,  0.0000,  0.0000)
  12 Cu     2.606069    0.000000    9.999999    ( 0.0000,  0.0000,  0.0000)
  13 Cu     3.909104    0.752307   12.127846    ( 0.0000,  0.0000,  0.0000)
  14 Cu     2.603458    1.505101   14.254389    ( 0.0000,  0.0000,  0.0000)
  15 Cu     2.611443   -0.000724   16.384457    ( 0.0000,  0.0000,  0.0000)
  16 Cu     1.303035    2.256922    9.999999    ( 0.0000,  0.0000,  0.0000)
  17 Cu     2.606069    3.009230   12.127846    ( 0.0000,  0.0000,  0.0000)
  18 Cu     1.303080    3.764298   14.238421    ( 0.0000,  0.0000,  0.0000)
  19 Cu     1.299129    2.397918   16.386091    ( 0.0000,  0.0000,  0.0000)
  20 Cu     0.000000    4.513845    9.999999    ( 0.0000,  0.0000,  0.0000)
  21 Cu     1.303035    5.266152   12.127846    ( 0.0000,  0.0000,  0.0000)
  22 Cu    -0.004055    6.019812   14.257912    ( 0.0000,  0.0000,  0.0000)
  23 Cu    -0.003485    4.525344   16.385697    ( 0.0000,  0.0000,  0.0000)
  24 Cu     5.212139    0.000000    9.999999    ( 0.0000,  0.0000,  0.0000)
  25 Cu     6.515174    0.752307   12.127846    ( 0.0000,  0.0000,  0.0000)
  26 Cu     5.211940    1.504646   14.260002    ( 0.0000,  0.0000,  0.0000)
  27 Cu     5.212770    0.001039   16.376972    ( 0.0000,  0.0000,  0.0000)
  28 Cu     3.909104    2.256922    9.999999    ( 0.0000,  0.0000,  0.0000)
  29 Cu     5.212139    3.009230   12.127846    ( 0.0000,  0.0000,  0.0000)
  30 Cu     3.908037    3.762458   14.259770    ( 0.0000,  0.0000,  0.0000)
  31 Cu     3.910347    2.259214   16.394369    ( 0.0000,  0.0000,  0.0000)
  32 Cu     2.606069    4.513845    9.999999    ( 0.0000,  0.0000,  0.0000)
  33 Cu     3.909104    5.266152   12.127846    ( 0.0000,  0.0000,  0.0000)
  34 Cu     2.610141    6.019855   14.260366    ( 0.0000,  0.0000,  0.0000)
  35 Cu     2.609771    4.524831   16.385907    ( 0.0000,  0.0000,  0.0000)
  36 H      1.367413   -0.272353   19.810139    ( 0.0000,  0.0000,  0.0000)
  37 O      1.346645   -0.679574   18.927982    ( 0.0000,  0.0000,  0.0000)
  38 C      1.325778    0.269968   17.926903    ( 0.0000,  0.0000,  0.0000)
  39 C      1.305251    1.661742   18.282669    ( 0.0000,  0.0000,  0.0000)
  40 O      1.313503    2.241897   19.344593    ( 0.0000,  0.0000,  0.0000)

Unit cell:
           periodic     x           y           z      points  spacing
  1. axis:    yes    7.818208    0.000000    0.000000    36     0.1881
  2. axis:    yes   -3.909104    6.770767    0.000000    36     0.1881
  3. axis:    no     0.000000    0.000000   26.383539   148     0.1783

  Lengths:   7.818208   7.818208  26.383539
  Angles:   90.000000  90.000000 120.000000

Effective grid spacing dv^(1/3) = 0.1938

     iter     time        total  log10-change:
                         energy  eigst   dens
iter:   1 17:56:16 -2801.058342  -2.68
iter:   2 17:56:38 -2801.020216  -3.03  -2.57
iter:   3 17:57:00 -2800.951863c -3.64  -2.64
iter:   4 17:57:22 -2800.941231c -4.39  -3.05
iter:   5 17:57:44 -2800.941427c -4.32  -3.57
iter:   6 17:58:06 -2800.940847c -4.87  -3.72
iter:   7 17:58:28 -2800.940567c -5.28  -3.97
iter:   8 17:58:50 -2800.940749c -5.54  -4.01c
iter:   9 17:59:12 -2800.940909c -5.61  -3.93
iter:  10 17:59:34 -2800.940771c -6.09  -4.21c
iter:  11 17:59:56 -2800.940672c -6.37  -4.36c
iter:  12 18:00:18 -2800.940730c -6.53  -4.57c
iter:  13 18:00:40 -2800.940726c -6.75  -4.53c
iter:  14 18:01:02 -2800.940728c -7.47c -4.80c

Converged after 14 iterations.

Dipole moment: (-2.784301, -9.187063, -0.115883) |e|*Ang

Energy contributions relative to reference atoms: (reference = -1626921.717276)

Kinetic:       +262.133728
Potential:     -303.473391
External:        +0.000000
XC:            -2762.452864
Entropy (-ST):   -0.472763
Local:           +3.088180
--------------------------
Free energy:   -2801.177109
Extrapolated:  -2800.940728

Showing only first 2 kpts
 Kpt  Band  Eigenvalues  Occupancy
  0   206     -5.78644    1.99894
  0   207     -5.60682    1.99365
  0   208     -5.38749    1.94447
  0   209     -5.38447    1.94281

  1   206     -5.74956    1.99847
  1   207     -5.60712    1.99367
  1   208     -5.22185    1.73964
  1   209     -5.07377    1.20628


Fermi level: -5.03192

No gap

Forces in eV/Ang:
  0 Cu    0.02783    0.02333   -0.07835
  1 Cu   -0.00046    0.02399   -0.05686
  2 Cu    0.00381   -0.00065    0.00926
  3 Cu   -0.03539   -0.00581    0.04172
  4 Cu    0.00947    0.00283   -0.05857
  5 Cu   -0.04200    0.00333   -0.00386
  6 Cu    0.00512   -0.00298   -0.00417
  7 Cu   -0.00137   -0.00657    0.00381
  8 Cu    0.00021    0.00162   -0.06637
  9 Cu    0.02372   -0.03235   -0.04606
 10 Cu   -0.00692    0.00609    0.03343
 11 Cu    0.00804   -0.00108    0.01310
 12 Cu   -0.02777    0.02326   -0.07858
 13 Cu    0.03225   -0.00022    0.00548
 14 Cu   -0.00682    0.00275    0.00110
 15 Cu    0.00072   -0.00597    0.04556
 16 Cu    0.00032   -0.03080   -0.06649
 17 Cu    0.04219    0.00338   -0.00588
 18 Cu   -0.00067   -0.02682   -0.03028
 19 Cu    0.02816   -0.18385    0.08599
 20 Cu    0.01429   -0.00013   -0.05771
 21 Cu    0.00125    0.04433   -0.01848
 22 Cu    0.00784   -0.00257    0.04734
 23 Cu    0.01776   -0.04013   -0.03058
 24 Cu    0.00003   -0.01331   -0.06703
 25 Cu   -0.03197   -0.00227    0.00798
 26 Cu    0.00414   -0.00581    0.00492
 27 Cu   -0.00267   -0.00129    0.01753
 28 Cu   -0.00950    0.00270   -0.05777
 29 Cu   -0.00022    0.00610    0.00967
 30 Cu   -0.00457    0.00168   -0.00320
 31 Cu    0.00027   -0.01478    0.00202
 32 Cu   -0.01443   -0.00039   -0.05804
 33 Cu   -0.02492   -0.03130   -0.04223
 34 Cu    0.00106    0.00211    0.03362
 35 Cu   -0.02151   -0.03306   -0.02709
 36 H    -0.01138    0.10422    0.00603
 37 O     0.01050   -0.10409    0.37011
 38 C    -0.07539   -0.18676   -0.11207
 39 C     0.06798    0.01197   -0.06253
 40 O    -0.01825    0.04338    0.17626

BFGS:    6 18:01:12    -2800.940728        0.3846
System changes: positions 

Initializing position-dependent things.

Density initialized from wave functions
                                           
                                           
                                           
                                           
                                           
                                           
                                           
                   O                       
                 H                         
           Cu    OC    Cu                  
            Cu   C Cu    Cu                
            Cu    Cu    Cu                 
             CCu    Cu    CCu              
                                           
              CCu    Cu    CCu             
                Cu    Cu     Cu            
                                           
           Cu    CCu   CCu    Cu           
            Cu     Cu    Cu                
                                           
              Cu    Cu     Cu              
                                           
                                           
                                           
                                           

Positions:
   0 Cu     0.000000    0.000000    9.999999    ( 0.0000,  0.0000,  0.0000)
   1 Cu     1.303035    0.752307   12.127846    ( 0.0000,  0.0000,  0.0000)
   2 Cu     0.002627    1.504657   14.254654    ( 0.0000,  0.0000,  0.0000)
   3 Cu    -0.001016   -0.001286   16.401433    ( 0.0000,  0.0000,  0.0000)
   4 Cu    -1.303035    2.256922    9.999999    ( 0.0000,  0.0000,  0.0000)
   5 Cu     0.000000    3.009230   12.127846    ( 0.0000,  0.0000,  0.0000)
   6 Cu    -1.302173    3.762662   14.260022    ( 0.0000,  0.0000,  0.0000)
   7 Cu    -1.304699    2.258714   16.394790    ( 0.0000,  0.0000,  0.0000)
   8 Cu    -2.606069    4.513845    9.999999    ( 0.0000,  0.0000,  0.0000)
   9 Cu    -1.303035    5.266152   12.127846    ( 0.0000,  0.0000,  0.0000)
  10 Cu    -2.606014    6.019756   14.235034    ( 0.0000,  0.0000,  0.0000)
  11 Cu    -2.606844    4.502224   16.371015    ( 0.0000,  0.0000,  0.0000)
  12 Cu     2.606069    0.000000    9.999999    ( 0.0000,  0.0000,  0.0000)
  13 Cu     3.909104    0.752307   12.127846    ( 0.0000,  0.0000,  0.0000)
  14 Cu     2.603544    1.505069   14.254238    ( 0.0000,  0.0000,  0.0000)
  15 Cu     2.610984   -0.001330   16.386382    ( 0.0000,  0.0000,  0.0000)
  16 Cu     1.303035    2.256922    9.999999    ( 0.0000,  0.0000,  0.0000)
  17 Cu     2.606069    3.009230   12.127846    ( 0.0000,  0.0000,  0.0000)
  18 Cu     1.303128    3.763486   14.235254    ( 0.0000,  0.0000,  0.0000)
  19 Cu     1.299960    2.387957   16.393182    ( 0.0000,  0.0000,  0.0000)
  20 Cu     0.000000    4.513845    9.999999    ( 0.0000,  0.0000,  0.0000)
  21 Cu     1.303035    5.266152   12.127846    ( 0.0000,  0.0000,  0.0000)
  22 Cu    -0.004320    6.019998   14.261443    ( 0.0000,  0.0000,  0.0000)
  23 Cu    -0.002023    4.522603   16.383940    ( 0.0000,  0.0000,  0.0000)
  24 Cu     5.212139    0.000000    9.999999    ( 0.0000,  0.0000,  0.0000)
  25 Cu     6.515174    0.752307   12.127846    ( 0.0000,  0.0000,  0.0000)
  26 Cu     5.211783    1.504640   14.260435    ( 0.0000,  0.0000,  0.0000)
  27 Cu     5.213044    0.000914   16.377668    ( 0.0000,  0.0000,  0.0000)
  28 Cu     3.909104    2.256922    9.999999    ( 0.0000,  0.0000,  0.0000)
  29 Cu     5.212139    3.009230   12.127846    ( 0.0000,  0.0000,  0.0000)
  30 Cu     3.908199    3.762331   14.260056    ( 0.0000,  0.0000,  0.0000)
  31 Cu     3.910304    2.259394   16.394377    ( 0.0000,  0.0000,  0.0000)
  32 Cu     2.606069    4.513845    9.999999    ( 0.0000,  0.0000,  0.0000)
  33 Cu     3.909104    5.266152   12.127846    ( 0.0000,  0.0000,  0.0000)
  34 Cu     2.610572    6.020064   14.262923    ( 0.0000,  0.0000,  0.0000)
  35 Cu     2.608780    4.522594   16.384425    ( 0.0000,  0.0000,  0.0000)
  36 H      1.367046   -0.267213   19.815917    ( 0.0000,  0.0000,  0.0000)
  37 O      1.347170   -0.675713   18.936043    ( 0.0000,  0.0000,  0.0000)
  38 C      1.320669    0.267120   17.926319    ( 0.0000,  0.0000,  0.0000)
  39 C      1.310562    1.654481   18.283873    ( 0.0000,  0.0000,  0.0000)
  40 O      1.311337    2.238846   19.343944    ( 0.0000,  0.0000,  0.0000)

Unit cell:
           periodic     x           y           z      points  spacing
  1. axis:    yes    7.818208    0.000000    0.000000    36     0.1881
  2. axis:    yes   -3.909104    6.770767    0.000000    36     0.1881
  3. axis:    no     0.000000    0.000000   26.383539   148     0.1783

  Lengths:   7.818208   7.818208  26.383539
  Angles:   90.000000  90.000000 120.000000

Effective grid spacing dv^(1/3) = 0.1938

     iter     time        total  log10-change:
                         energy  eigst   dens
iter:   1 18:02:03 -2800.986878  -2.87
iter:   2 18:02:25 -2800.974486  -3.38  -2.80
iter:   3 18:02:47 -2800.949563c -4.04  -2.86
iter:   4 18:03:09 -2800.946841c -4.66  -3.33
iter:   5 18:03:31 -2800.947030c -4.59  -3.72
iter:   6 18:03:53 -2800.946625c -5.16  -3.86
iter:   7 18:04:15 -2800.946495c -5.49  -4.07c
iter:   8 18:04:37 -2800.946606c -5.90  -4.15c
iter:   9 18:04:59 -2800.946700c -5.96  -4.13c
iter:  10 18:05:21 -2800.946632c -6.52  -4.41c
iter:  11 18:05:43 -2800.946564c -6.76  -4.55c
iter:  12 18:06:04 -2800.946607c -6.76  -4.71c
iter:  13 18:06:26 -2800.946608c -7.53c -4.86c

Converged after 13 iterations.

Dipole moment: (-2.760632, -9.144748, -0.119375) |e|*Ang

Energy contributions relative to reference atoms: (reference = -1626921.717276)

Kinetic:       +262.203671
Potential:     -303.504287
External:        +0.000000
XC:            -2762.495218
Entropy (-ST):   -0.472627
Local:           +3.085540
--------------------------
Free energy:   -2801.182921
Extrapolated:  -2800.946608

Showing only first 2 kpts
 Kpt  Band  Eigenvalues  Occupancy
  0   206     -5.79232    1.99897
  0   207     -5.61004    1.99364
  0   208     -5.39120    1.94468
  0   209     -5.38742    1.94262

  1   206     -5.75209    1.99846
  1   207     -5.61075    1.99369
  1   208     -5.22230    1.73309
  1   209     -5.07989    1.21970


Fermi level: -5.03522

No gap

Forces in eV/Ang:
  0 Cu    0.02768    0.02319   -0.07637
  1 Cu   -0.00046    0.02134   -0.05306
  2 Cu    0.00505   -0.00272    0.01779
  3 Cu   -0.05608   -0.01474   -0.00872
  4 Cu    0.00941    0.00309   -0.05726
  5 Cu   -0.04460    0.00159   -0.00626
  6 Cu    0.00800   -0.00217   -0.00689
  7 Cu    0.00028   -0.00772   -0.00169
  8 Cu    0.00034    0.00148   -0.06458
  9 Cu    0.02387   -0.02935   -0.03885
 10 Cu   -0.00824    0.00787    0.01715
 11 Cu    0.01288    0.00762    0.01447
 12 Cu   -0.02779    0.02299   -0.07665
 13 Cu    0.03282   -0.00336    0.00948
 14 Cu   -0.00981    0.00097    0.00545
 15 Cu    0.02091   -0.01127    0.04019
 16 Cu    0.00014   -0.03043   -0.06524
 17 Cu    0.04482    0.00221   -0.00785
 18 Cu   -0.00149   -0.02405    0.01248
 19 Cu    0.03159   -0.10283    0.01081
 20 Cu    0.01392   -0.00040   -0.05590
 21 Cu    0.00104    0.04973   -0.01297
 22 Cu    0.01342   -0.00650    0.00665
 23 Cu    0.00285   -0.01604   -0.02344
 24 Cu    0.00015   -0.01308   -0.06476
 25 Cu   -0.03261   -0.00423    0.01166
 26 Cu    0.00724   -0.00745   -0.00042
 27 Cu   -0.00868   -0.00243    0.01898
 28 Cu   -0.00929    0.00296   -0.05594
 29 Cu   -0.00035    0.00580    0.01079
 30 Cu   -0.00721    0.00481   -0.00831
 31 Cu    0.00246   -0.02048    0.00268
 32 Cu   -0.01417   -0.00045   -0.05670
 33 Cu   -0.02453   -0.02915   -0.03637
 34 Cu   -0.00526   -0.00149    0.00636
 35 Cu   -0.01585   -0.01482   -0.02174
 36 H    -0.01607    0.15951    0.03578
 37 O    -0.00105   -0.19813    0.25487
 38 C    -0.03868   -0.24148    0.04046
 39 C     0.01918    0.10789   -0.00887
 40 O    -0.00642    0.02618    0.14918

BFGS:    7 18:06:36    -2800.946608        0.3228
System changes: positions 

Initializing position-dependent things.

Density initialized from wave functions
                                           
                                           
                                           
                                           
                                           
                                           
                                           
                   O                       
                 H                         
           Cu    OC    Cu                  
            Cu   C Cu    Cu                
            Cu    Cu    Cu                 
             CCu    Cu    CCu              
                                           
              CCu    Cu    CCu             
                Cu    Cu     Cu            
                                           
           Cu    CCu   CCu    Cu           
            Cu     Cu    Cu                
                                           
              Cu    Cu     Cu              
                                           
                                           
                                           
                                           

Positions:
   0 Cu     0.000000    0.000000    9.999999    ( 0.0000,  0.0000,  0.0000)
   1 Cu     1.303035    0.752307   12.127846    ( 0.0000,  0.0000,  0.0000)
   2 Cu     0.002768    1.504602   14.254957    ( 0.0000,  0.0000,  0.0000)
   3 Cu    -0.002658   -0.002060   16.405310    ( 0.0000,  0.0000,  0.0000)
   4 Cu    -1.303035    2.256922    9.999999    ( 0.0000,  0.0000,  0.0000)
   5 Cu     0.000000    3.009230   12.127846    ( 0.0000,  0.0000,  0.0000)
   6 Cu    -1.302205    3.762574   14.259957    ( 0.0000,  0.0000,  0.0000)
   7 Cu    -1.304857    2.258621   16.395259    ( 0.0000,  0.0000,  0.0000)
   8 Cu    -2.606069    4.513845    9.999999    ( 0.0000,  0.0000,  0.0000)
   9 Cu    -1.303035    5.266152   12.127846    ( 0.0000,  0.0000,  0.0000)
  10 Cu    -2.606184    6.019930   14.237986    ( 0.0000,  0.0000,  0.0000)
  11 Cu    -2.606770    4.501656   16.371947    ( 0.0000,  0.0000,  0.0000)
  12 Cu     2.606069    0.000000    9.999999    ( 0.0000,  0.0000,  0.0000)
  13 Cu     3.909104    0.752307   12.127846    ( 0.0000,  0.0000,  0.0000)
  14 Cu     2.603437    1.505039   14.254189    ( 0.0000,  0.0000,  0.0000)
  15 Cu     2.610965   -0.002311   16.389447    ( 0.0000,  0.0000,  0.0000)
  16 Cu     1.303035    2.256922    9.999999    ( 0.0000,  0.0000,  0.0000)
  17 Cu     2.606069    3.009230   12.127846    ( 0.0000,  0.0000,  0.0000)
  18 Cu     1.303152    3.762064   14.231969    ( 0.0000,  0.0000,  0.0000)
  19 Cu     1.301582    2.374615   16.401425    ( 0.0000,  0.0000,  0.0000)
  20 Cu     0.000000    4.513845    9.999999    ( 0.0000,  0.0000,  0.0000)
  21 Cu     1.303035    5.266152   12.127846    ( 0.0000,  0.0000,  0.0000)
  22 Cu    -0.004346    6.020071   14.265554    ( 0.0000,  0.0000,  0.0000)
  23 Cu    -0.000307    4.519153   16.381427    ( 0.0000,  0.0000,  0.0000)
  24 Cu     5.212139    0.000000    9.999999    ( 0.0000,  0.0000,  0.0000)
  25 Cu     6.515174    0.752307   12.127846    ( 0.0000,  0.0000,  0.0000)
  26 Cu     5.211755    1.504480   14.260914    ( 0.0000,  0.0000,  0.0000)
  27 Cu     5.213168    0.000709   16.378879    ( 0.0000,  0.0000,  0.0000)
  28 Cu     3.909104    2.256922    9.999999    ( 0.0000,  0.0000,  0.0000)
  29 Cu     5.212139    3.009230   12.127846    ( 0.0000,  0.0000,  0.0000)
  30 Cu     3.908241    3.762290   14.260209    ( 0.0000,  0.0000,  0.0000)
  31 Cu     3.910315    2.259183   16.394445    ( 0.0000,  0.0000,  0.0000)
  32 Cu     2.606069    4.513845    9.999999    ( 0.0000,  0.0000,  0.0000)
  33 Cu     3.909104    5.266152   12.127846    ( 0.0000,  0.0000,  0.0000)
  34 Cu     2.610947    6.020262   14.265949    ( 0.0000,  0.0000,  0.0000)
  35 Cu     2.607325    4.519737   16.382266    ( 0.0000,  0.0000,  0.0000)
  36 H      1.366261   -0.257652   19.823686    ( 0.0000,  0.0000,  0.0000)
  37 O      1.347794   -0.674932   18.949535    ( 0.0000,  0.0000,  0.0000)
  38 C      1.314023    0.258573   17.927839    ( 0.0000,  0.0000,  0.0000)
  39 C      1.316982    1.648397   18.285641    ( 0.0000,  0.0000,  0.0000)
  40 O      1.308696    2.235419   19.345540    ( 0.0000,  0.0000,  0.0000)

Unit cell:
           periodic     x           y           z      points  spacing
  1. axis:    yes    7.818208    0.000000    0.000000    36     0.1881
  2. axis:    yes   -3.909104    6.770767    0.000000    36     0.1881
  3. axis:    no     0.000000    0.000000   26.383539   148     0.1783

  Lengths:   7.818208   7.818208  26.383539
  Angles:   90.000000  90.000000 120.000000

Effective grid spacing dv^(1/3) = 0.1938

     iter     time        total  log10-change:
                         energy  eigst   dens
iter:   1 18:07:28 -2800.960556  -2.68
iter:   2 18:07:50 -2800.955938  -3.49  -3.21
iter:   3 18:08:12 -2800.953495c -4.11  -3.30
iter:   4 18:08:34 -2800.952878c -4.53  -3.58
iter:   5 18:08:56 -2800.952681c -4.41  -3.61
[...]
  1. axis:    yes    7.818208    0.000000    0.000000    36     0.1881
  2. axis:    yes   -3.909104    6.770767    0.000000    36     0.1881
  3. axis:    no     0.000000    0.000000   26.383539   148     0.1783

  Lengths:   7.818208   7.818208  26.383539
  Angles:   90.000000  90.000000 120.000000

Effective grid spacing dv^(1/3) = 0.1938

     iter     time        total  log10-change:
                         energy  eigst   dens
iter:   1 19:07:44 -2803.908770  -0.77
iter:   2 19:08:06 -2802.081315  -1.46  -1.90
iter:   3 19:08:28 -2801.308524  -2.03  -2.05
iter:   4 19:08:50 -2800.976390  -2.45  -2.27
iter:   5 19:09:12 -2800.940989  -2.87  -2.63
iter:   6 19:09:34 -2800.920275c -2.71  -2.69
iter:   7 19:09:56 -2800.901348c -3.06  -2.94
iter:   8 19:10:18 -2800.920121c -3.17  -2.99
iter:   9 19:10:40 -2800.910672c -4.14  -2.93
iter:  10 19:11:02 -2800.905103c -4.05  -3.07
iter:  11 19:11:24 -2800.899219c -3.77  -3.08
iter:  12 19:11:47 -2800.899081c -4.58  -3.46
iter:  13 19:12:09 -2800.899156c -5.22  -3.61
iter:  14 19:12:31 -2800.899092c -4.74  -3.59
iter:  15 19:12:53 -2800.899000c -5.17  -3.58
iter:  16 19:13:15 -2800.899080c -5.67  -3.71
iter:  17 19:13:37 -2800.898565c -4.66  -3.70
iter:  18 19:13:59 -2800.898300c -4.98  -3.68
iter:  19 19:14:21 -2800.898184c -5.37  -4.01c
iter:  20 19:14:43 -2800.898178c -5.32  -4.00
iter:  21 19:15:05 -2800.898130c -5.73  -4.26c
iter:  22 19:15:27 -2800.898145c -6.48  -4.46c
iter:  23 19:15:49 -2800.898155c -6.63  -4.59c
iter:  24 19:16:11 -2800.898162c -7.02  -4.70c
iter:  25 19:16:33 -2800.898166c -6.82  -4.79c
iter:  26 19:16:55 -2800.898166c -7.54c -4.78c

Converged after 26 iterations.

Dipole moment: (-2.573074, -10.216656, -0.218796) |e|*Ang

Energy contributions relative to reference atoms: (reference = -1626921.717276)

Kinetic:       +256.294311
Potential:     -298.945040
External:        +0.000000
XC:            -2761.080736
Entropy (-ST):   -0.476873
Local:           +3.071737
--------------------------
Free energy:   -2801.136602
Extrapolated:  -2800.898166

Showing only first 2 kpts
 Kpt  Band  Eigenvalues  Occupancy
  0   206     -5.88549    1.99880
  0   207     -5.69417    1.99189
  0   208     -5.49986    1.94475
  0   209     -5.49102    1.93980

  1   206     -5.85923    1.99844
  1   207     -5.70673    1.99285
  1   208     -5.38437    1.83459
  1   209     -5.14814    1.02192


Fermi level: -5.14376

No gap

Forces in eV/Ang:
  0 Cu    0.03056    0.02237   -0.07381
  1 Cu    0.00276    0.02538   -0.02956
  2 Cu    0.00831   -0.00493    0.02064
  3 Cu   -0.15365   -0.13360   -0.11636
  4 Cu    0.00845    0.00038   -0.05432
  5 Cu   -0.02702   -0.00347    0.03263
  6 Cu    0.01045    0.00355    0.00302
  7 Cu   -0.02741   -0.02785   -0.00418
  8 Cu    0.00033    0.00177   -0.06670
  9 Cu    0.01714   -0.02495   -0.01736
 10 Cu   -0.01473    0.01476    0.04717
 11 Cu    0.02184    0.04582    0.03573
 12 Cu   -0.03030    0.02167   -0.07377
 13 Cu    0.01884    0.01180    0.02069
 14 Cu   -0.02147   -0.00175   -0.01383
 15 Cu    0.07402   -0.10084   -0.08386
 16 Cu   -0.00038   -0.03093   -0.06363
 17 Cu    0.02816   -0.00613    0.03337
 18 Cu   -0.00309   -0.05774   -0.01860
 19 Cu   -0.00921   -0.22863   -0.07879
 20 Cu    0.01262   -0.00147   -0.05423
 21 Cu   -0.00067    0.02797    0.00537
 22 Cu    0.04222   -0.03806    0.07534
 23 Cu   -0.02056   -0.00905    0.01951
 24 Cu   -0.00027   -0.01010   -0.06042
 25 Cu   -0.02182    0.01154    0.01591
 26 Cu    0.01241   -0.00718   -0.00304
 27 Cu   -0.03807   -0.01198   -0.07828
 28 Cu   -0.00826    0.00020   -0.05323
 29 Cu   -0.00131   -0.00408    0.01150
 30 Cu   -0.00714    0.01320   -0.00737
 31 Cu   -0.01261   -0.06047   -0.00833
 32 Cu   -0.01297   -0.00170   -0.05381
 33 Cu   -0.01595   -0.02656   -0.01691
 34 Cu   -0.03507   -0.03299    0.08467
 35 Cu   -0.02937   -0.04718    0.02238
 36 H    -0.01970   -0.05106   -0.39220
 37 O     0.01956   -0.05387   -0.64096
 38 C    -0.00376    0.07815    0.69555
 39 C     0.12610    0.09509   -0.05432
 40 O    -0.10417    0.18262   -0.02577

BFGS:   18 19:17:05    -2800.898166        0.6999
System changes: positions 

Initializing position-dependent things.

Density initialized from wave functions
                                           
                                           
                                           
                                           
                                           
                                           
                                           
                   O                       
                 H                         
           Cu    OC    Cu                  
                 C Cu                      
            Cu    Cu    CCu                
             CCu    Cu    CCu              
                                           
              CCu    Cu    CCu             
                Cu    Cu     Cu            
                                           
           Cu    CCu   CCu    Cu           
            Cu     Cu    Cu                
                                           
              Cu    Cu     Cu              
                                           
                                           
                                           
                                           

Positions:
   0 Cu     0.000000    0.000000    9.999999    ( 0.0000,  0.0000,  0.0000)
   1 Cu     1.303035    0.752307   12.127846    ( 0.0000,  0.0000,  0.0000)
   2 Cu     0.003278    1.503224   14.261458    ( 0.0000,  0.0000,  0.0000)
   3 Cu    -0.001434   -0.006057   16.423312    ( 0.0000,  0.0000,  0.0000)
   4 Cu    -1.303035    2.256922    9.999999    ( 0.0000,  0.0000,  0.0000)
   5 Cu     0.000000    3.009230   12.127846    ( 0.0000,  0.0000,  0.0000)
   6 Cu    -1.302544    3.762505   14.258945    ( 0.0000,  0.0000,  0.0000)
   7 Cu    -1.303697    2.257853   16.395617    ( 0.0000,  0.0000,  0.0000)
   8 Cu    -2.606069    4.513845    9.999999    ( 0.0000,  0.0000,  0.0000)
   9 Cu    -1.303035    5.266152   12.127846    ( 0.0000,  0.0000,  0.0000)
  10 Cu    -2.606053    6.020857   14.243777    ( 0.0000,  0.0000,  0.0000)
  11 Cu    -2.606059    4.504528   16.378513    ( 0.0000,  0.0000,  0.0000)
  12 Cu     2.606069    0.000000    9.999999    ( 0.0000,  0.0000,  0.0000)
  13 Cu     3.909104    0.752307   12.127846    ( 0.0000,  0.0000,  0.0000)
  14 Cu     2.603099    1.503252   14.260166    ( 0.0000,  0.0000,  0.0000)
  15 Cu     2.608571   -0.005215   16.420113    ( 0.0000,  0.0000,  0.0000)
  16 Cu     1.303035    2.256922    9.999999    ( 0.0000,  0.0000,  0.0000)
  17 Cu     2.606069    3.009230   12.127846    ( 0.0000,  0.0000,  0.0000)
  18 Cu     1.303139    3.761361   14.241811    ( 0.0000,  0.0000,  0.0000)
  19 Cu     1.307243    2.369166   16.412430    ( 0.0000,  0.0000,  0.0000)
  20 Cu     0.000000    4.513845    9.999999    ( 0.0000,  0.0000,  0.0000)
  21 Cu     1.303035    5.266152   12.127846    ( 0.0000,  0.0000,  0.0000)
  22 Cu    -0.004174    6.020673   14.262995    ( 0.0000,  0.0000,  0.0000)
  23 Cu    -0.001102    4.519733   16.375437    ( 0.0000,  0.0000,  0.0000)
  24 Cu     5.212139    0.000000    9.999999    ( 0.0000,  0.0000,  0.0000)
  25 Cu     6.515174    0.752307   12.127846    ( 0.0000,  0.0000,  0.0000)
  26 Cu     5.212073    1.504029   14.260928    ( 0.0000,  0.0000,  0.0000)
  27 Cu     5.212454    0.000729   16.388970    ( 0.0000,  0.0000,  0.0000)
  28 Cu     3.909104    2.256922    9.999999    ( 0.0000,  0.0000,  0.0000)
  29 Cu     5.212139    3.009230   12.127846    ( 0.0000,  0.0000,  0.0000)
  30 Cu     3.908508    3.762384   14.259481    ( 0.0000,  0.0000,  0.0000)
  31 Cu     3.910973    2.258048   16.395890    ( 0.0000,  0.0000,  0.0000)
  32 Cu     2.606069    4.513845    9.999999    ( 0.0000,  0.0000,  0.0000)
  33 Cu     3.909104    5.266152   12.127846    ( 0.0000,  0.0000,  0.0000)
  34 Cu     2.610361    6.020736   14.263498    ( 0.0000,  0.0000,  0.0000)
  35 Cu     2.607752    4.520621   16.376280    ( 0.0000,  0.0000,  0.0000)
  36 H      1.348673   -0.167388   19.900294    ( 0.0000,  0.0000,  0.0000)
  37 O      1.340394   -0.675034   19.070945    ( 0.0000,  0.0000,  0.0000)
  38 C      1.303391    0.186765   17.995010    ( 0.0000,  0.0000,  0.0000)
  39 C      1.305564    1.604146   18.299337    ( 0.0000,  0.0000,  0.0000)
  40 O      1.306099    2.182642   19.366792    ( 0.0000,  0.0000,  0.0000)

Unit cell:
           periodic     x           y           z      points  spacing
  1. axis:    yes    7.818208    0.000000    0.000000    36     0.1881
  2. axis:    yes   -3.909104    6.770767    0.000000    36     0.1881
  3. axis:    no     0.000000    0.000000   26.383539   148     0.1783

  Lengths:   7.818208   7.818208  26.383539
  Angles:   90.000000  90.000000 120.000000

Effective grid spacing dv^(1/3) = 0.1938

     iter     time        total  log10-change:
                         energy  eigst   dens
iter:   1 19:17:57 -2802.630433  -0.87
iter:   2 19:18:19 -2802.344126  -1.53  -1.98
iter:   3 19:18:40 -2801.205733  -2.19  -2.02
iter:   4 19:19:02 -2801.006156  -2.31  -2.43
iter:   5 19:19:24 -2801.001363c -2.62  -2.78
iter:   6 19:19:46 -2800.986230c -3.11  -2.83
iter:   7 19:20:07 -2800.980946c -3.34  -2.99
iter:   8 19:20:29 -2800.985146c -3.57  -3.16
iter:   9 19:20:51 -2800.981594c -3.67  -3.16
iter:  10 19:21:13 -2800.979281c -4.63  -3.36
iter:  11 19:21:34 -2800.978649c -4.25  -3.53
iter:  12 19:21:56 -2800.978987c -4.91  -3.81
iter:  13 19:22:18 -2800.979255c -5.34  -3.94
iter:  14 19:22:40 -2800.979176c -5.06  -3.91
iter:  15 19:23:01 -2800.979003c -5.54  -3.77
iter:  16 19:23:23 -2800.979003c -5.92  -4.11c
iter:  17 19:23:45 -2800.979052c -5.42  -4.08c
iter:  18 19:24:07 -2800.979000c -6.44  -4.54c
iter:  19 19:24:28 -2800.978960c -6.66  -4.67c
iter:  20 19:24:50 -2800.978967c -6.73  -4.77c
iter:  21 19:25:12 -2800.978962c -7.26  -4.94c
iter:  22 19:25:33 -2800.978952c -7.22  -5.01c
iter:  23 19:25:55 -2800.978968c -7.97c -5.12c

Converged after 23 iterations.

Dipole moment: (-2.476351, -9.721078, -0.160797) |e|*Ang

Energy contributions relative to reference atoms: (reference = -1626921.717276)

Kinetic:       +259.198741
Potential:     -301.204799
External:        +0.000000
XC:            -2761.816695
Entropy (-ST):   -0.475146
Local:           +3.081358
--------------------------
Free energy:   -2801.216541
Extrapolated:  -2800.978968

Showing only first 2 kpts
 Kpt  Band  Eigenvalues  Occupancy
  0   206     -5.82782    1.99887
  0   207     -5.64615    1.99305
  0   208     -5.43540    1.94421
  0   209     -5.42943    1.94088

  1   206     -5.79613    1.99844
  1   207     -5.64919    1.99326
  1   208     -5.29741    1.79526
  1   209     -5.10191    1.10765


Fermi level: -5.08029

No gap

Forces in eV/Ang:
  0 Cu    0.02929    0.02311   -0.07562
  1 Cu   -0.00051    0.02175   -0.03848
  2 Cu    0.00236    0.00054   -0.00318
  3 Cu   -0.01775   -0.00272    0.01379
  4 Cu    0.00913    0.00167   -0.05712
  5 Cu   -0.03753   -0.00494    0.01070
  6 Cu    0.00265    0.00108    0.00663
  7 Cu   -0.00431   -0.00007    0.00231
  8 Cu    0.00063    0.00205   -0.06566
  9 Cu    0.01917   -0.02388   -0.02282
 10 Cu   -0.00203    0.00207   -0.00254
 11 Cu    0.00176    0.00433    0.00000
 12 Cu   -0.02942    0.02241   -0.07628
 13 Cu    0.02694    0.00174    0.01682
 14 Cu   -0.00449    0.00285    0.00072
 15 Cu    0.00510   -0.00411   -0.00677
 16 Cu   -0.00050   -0.03101   -0.06569
 17 Cu    0.03796   -0.00278    0.00864
 18 Cu   -0.00017   -0.00484   -0.00771
 19 Cu   -0.02546   -0.00127    0.02115
 20 Cu    0.01349   -0.00084   -0.05542
 21 Cu    0.00088    0.04021   -0.00294
 22 Cu    0.00284   -0.00337    0.01607
 23 Cu   -0.00119    0.00041    0.02430
 24 Cu    0.00009   -0.01168   -0.06342
 25 Cu   -0.02603    0.00269    0.01844
 26 Cu    0.00051    0.00003    0.00035
 27 Cu   -0.00179   -0.00010   -0.01576
 28 Cu   -0.00862    0.00141   -0.05550
 29 Cu   -0.00096    0.00028    0.01044
 30 Cu   -0.00204    0.00202    0.00387
 31 Cu   -0.00353   -0.00277   -0.00311
 32 Cu   -0.01404   -0.00060   -0.05608
 33 Cu   -0.01989   -0.02522   -0.02260
 34 Cu   -0.00025   -0.00243    0.01383
 35 Cu   -0.00392   -0.00514    0.02195
 36 H    -0.02276    0.01283    0.02801
 37 O    -0.00304    0.01309   -0.02514
 38 C     0.02057    0.01673    0.00771
 39 C    -0.00526    0.03828   -0.02096
 40 O    -0.01090    0.00490   -0.02819

BFGS:   19 19:26:05    -2800.978968        0.0440
Timing:                                      incl.     excl.
-------------------------------------------------------------------
Density initialized from wave functions:    19.110    19.110   0.2% |
 Symmetrize density:                         0.001     0.001   0.0% |
Forces:                                    195.994   195.994   2.3% ||
Hamiltonian:                                59.842     0.003   0.0% |
 Atomic:                                     2.412     0.015   0.0% |
  XC Correction:                             2.397     2.397   0.0% |
 Calculate atomic Hamiltonians:              0.539     0.539   0.0% |
 Communicate:                                0.244     0.244   0.0% |
 Hartree integrate/restrict:                 0.177     0.177   0.0% |
 Initialize Hamiltonian:                     0.000     0.000   0.0% |
 Poisson:                                    3.539     0.146   0.0% |
  Communicate from 1D:                       0.321     0.321   0.0% |
  Communicate from 2D:                       0.550     0.550   0.0% |
  Communicate to 1D:                         0.162     0.162   0.0% |
  Communicate to 2D:                         0.657     0.657   0.0% |
  FFT 1D:                                    0.919     0.919   0.0% |
  FFT 2D:                                    0.784     0.784   0.0% |
 XC 3D grid:                                52.712    14.732   0.2% |
  VdW-DF integral:                          37.980     2.047   0.0% |
   Convolution:                              3.339     3.339   0.0% |
   FFT:                                      2.293     2.293   0.0% |
   gather:                                  11.044    11.044   0.1% |
   hmm1:                                     0.684     0.684   0.0% |
   hmm2:                                     1.443     1.443   0.0% |
   iFFT:                                     2.152     2.152   0.0% |
   potential:                               10.898     0.286   0.0% |
    collect:                                 0.749     0.749   0.0% |
    p1:                                      6.542     6.542   0.1% |
    p2:                                      2.191     2.191   0.0% |
    sum:                                     1.130     1.130   0.0% |
   splines:                                  4.079     4.079   0.0% |
 vbar:                                       0.218     0.218   0.0% |
LCAO initialization:                        10.195     1.721   0.0% |
 LCAO eigensolver:                           2.770     0.002   0.0% |
  Calculate projections:                     0.000     0.000   0.0% |
  DenseAtomicCorrection:                     0.000     0.000   0.0% |
  Distribute overlap matrix:                 2.539     2.539   0.0% |
  Orbital Layouts:                           0.190     0.190   0.0% |
  Potential matrix:                          0.008     0.008   0.0% |
  Sum over cells:                            0.031     0.031   0.0% |
 LCAO to grid:                               4.834     4.834   0.1% |
 Set positions (LCAO WFS):                   0.871     0.678   0.0% |
  Basic WFS set positions:                   0.001     0.001   0.0% |
  Basis functions set positions:             0.000     0.000   0.0% |
  P tci:                                     0.000     0.000   0.0% |
  ST tci:                                    0.126     0.126   0.0% |
  mktci:                                     0.065     0.065   0.0% |
Redistribute:                                0.011     0.011   0.0% |
SCF-cycle:                                7885.702    61.802   0.7% |
 Davidson:                                6811.057  2055.791  23.7% |--------|
  Apply hamiltonian:                       201.993   201.993   2.3% ||
  Subspace diag:                           771.998     0.051   0.0% |
   calc_h_matrix:                          403.662   206.152   2.4% ||
    Apply hamiltonian:                     197.510   197.510   2.3% ||
   diagonalize:                             19.241    19.241   0.2% |
   rotate_psi:                             349.044   349.044   4.0% |-|
  calc. matrices:                         3031.945  1390.126  16.0% |-----|
   Apply hamiltonian:                     1641.820  1641.820  18.9% |-------|
  diagonalize:                              83.848    83.848   1.0% |
  rotate_psi:                              665.482   665.482   7.7% |--|
 Density:                                   19.744     0.008   0.0% |
  Atomic density matrices:                   2.027     2.027   0.0% |
  Mix:                                       5.531     5.531   0.1% |
  Multipole moments:                         0.178     0.178   0.0% |
  Pseudo density:                           12.000    11.991   0.1% |
   Symmetrize density:                       0.009     0.009   0.0% |
 Hamiltonian:                              941.575     0.039   0.0% |
  Atomic:                                   40.802     0.232   0.0% |
   XC Correction:                           40.570    40.570   0.5% |
  Calculate atomic Hamiltonians:             9.495     9.495   0.1% |
  Communicate:                               4.622     4.622   0.1% |
  Hartree integrate/restrict:                3.023     3.023   0.0% |
  Poisson:                                  60.177     2.296   0.0% |
   Communicate from 1D:                      5.430     5.430   0.1% |
   Communicate from 2D:                      9.759     9.759   0.1% |
   Communicate to 1D:                        2.727     2.727   0.0% |
   Communicate to 2D:                       11.186    11.186   0.1% |
   FFT 1D:                                  15.471    15.471   0.2% |
   FFT 2D:                                  13.307    13.307   0.2% |
  XC 3D grid:                              822.816   249.353   2.9% ||
   VdW-DF integral:                        573.464    34.644   0.4% |
    Convolution:                            56.522    56.522   0.7% |
    FFT:                                    38.838    38.838   0.4% |
    gather:                                187.026   187.026   2.2% ||
    hmm1:                                   11.170    11.170   0.1% |
    hmm2:                                   23.752    23.752   0.3% |
    iFFT:                                   36.669    36.669   0.4% |
    potential:                             184.839     4.825   0.1% |
     collect:                               12.495    12.495   0.1% |
     p1:                                   111.172   111.172   1.3% ||
     p2:                                    37.459    37.459   0.4% |
     sum:                                   18.889    18.889   0.2% |
    splines:                                 0.002     0.002   0.0% |
  vbar:                                      0.600     0.600   0.0% |
 Orthonormalize:                            51.523     0.004   0.0% |
  calc_s_matrix:                             4.825     4.825   0.1% |
  inverse-cholesky:                         36.846    36.846   0.4% |
  projections:                               0.001     0.001   0.0% |
  rotate_psi_s:                              9.847     9.847   0.1% |
Set symmetry:                                0.002     0.002   0.0% |
Other:                                     506.063   506.063   5.8% |-|
-------------------------------------------------------------------
Total:                                              8676.919 100.0%

Memory usage: 1.31 GiB
Date: Fri Sep 22 19:26:05 2023
