
  ___ ___ ___ _ _ _  
 |   |   |_  | | | | 
 | | | | | . | | | | 
 |__ |  _|___|_____|  22.8.0
 |___|_|             

User:   s204775@c180.nifl.fysik.dtu.dk
Date:   Sun Oct  8 17:28:49 2023
Arch:   x86_64
Pid:    175882
CWD:    /home/cat/s204775/projects/Bachelor_project/clean_slabs
Python: 3.10.4
gpaw:   /home/modules/software/GPAW/22.8.0-intel-2022a/lib/python3.10/site-packages/gpaw
_gpaw:  /home/modules/software/GPAW/22.8.0-intel-2022a/lib/python3.10/site-packages/
        _gpaw.cpython-310-x86_64-linux-gnu.so
ase:    /home/modules/software/ASE/3.22.1-intel-2022a/lib/python3.10/site-packages/ase (version 3.22.1)
numpy:  /home/modules/software/SciPy-bundle/2022.05-intel-2022a/lib/python3.10/site-packages/numpy (version 1.22.3)
scipy:  /home/modules/software/SciPy-bundle/2022.05-intel-2022a/lib/python3.10/site-packages/scipy (version 1.8.1)
libxc:  5.2.3
units:  Angstrom and eV
cores: 40
OpenMP: False
OMP_NUM_THREADS: 1

Input parameters:
  basis: dzp
  h: 0.18
  kpts: {size: (4, 4, 1)}
  maxiter: 3000
  xc: BEEF-vdW

System changes: positions, numbers, cell, pbc, initial_charges, initial_magmoms 

Initialize ...

species:
  Ag:
    name: Silver
    id: 33ddeab48f408598355e2011f1241e14
    Z: 47.0
    valence: 17
    core: 30
    charge: 0.0
    file: /home/modules/software/GPAW-setups/0.9.20000/Ag.PBE.gz
    compensation charges: {type: gauss,
                           rc: 0.40,
                           lmax: 2}
    cutoffs: {filter: 2.35,
              core: 2.19}
    valence states:
      #              energy  rcut
      - 5s(1.00)    -4.401   1.286
      - 4p(6.00)   -58.577   1.328
      - 5p(0.00)    -0.738   1.328
      - 4d(10.00)    -7.446   1.180
      -  s          22.811   1.286
      -  d          19.766   1.180
  
    # LCAO basis set for Ag:
    #   Name: dzp
    #   File: /home/modules/software/GPAW-setups/0.9.20000/Ag.dzp.basis.gz
    #   Number of radial functions: 9
    #   Number of spherical harmonics: 27
    #     l=0, rc=9.2812 Bohr: 5s-sz confined orbital
    #     l=1, rc=3.3750 Bohr: 4p-sz confined orbital
    #     l=1, rc=14.2344 Bohr: 5p-sz confined orbital
    #     l=2, rc=5.4531 Bohr: 4d-sz confined orbital
    #     l=0, rc=5.5156 Bohr: 5s-dz split-valence wave
    #     l=1, rc=2.3281 Bohr: 4p-dz split-valence wave
    #     l=1, rc=8.7656 Bohr: 5p-dz split-valence wave
    #     l=2, rc=3.2656 Bohr: 4d-dz split-valence wave
    #     l=1, rc=9.2812 Bohr: p-type Gaussian polarization
    #   Number of RI-basis functions 0

Reference energy: -5205521.748734  # eV

Spin-paired calculation

Convergence criteria:
 Maximum [total energy] change in last 3 cyles: 0.0005 eV / electron
 Maximum integral of absolute [dens]ity change: 0.0001 electrons / valence electron
 Maximum integral of absolute [eigenst]ate change: 4e-08 eV^2 / valence electron
 Maximum number of scf [iter]ations: 3000
 (Square brackets indicate name in SCF output, whereas a 'c' in
 the SCF output indicates the quantity has converged.)

Symmetries present (total): 6

  ( 1  1  0)  ( 1  0  0)  ( 0  1  0)  ( 0 -1  0)  (-1  0  0)  (-1 -1  0)
  ( 0 -1  0)  ( 0  1  0)  (-1 -1  0)  (-1  0  0)  ( 1  1  0)  ( 1  0  0)
  ( 0  0  1)  ( 0  0  1)  ( 0  0  1)  ( 0  0  1)  ( 0  0  1)  ( 0  0  1)
Note: your k-points are not as symmetric as your crystal!

16 k-points: 4 x 4 x 1 Monkhorst-Pack grid
6 k-points in the irreducible part of the Brillouin zone
       k-points in crystal coordinates                weights
   0:     0.12500000   -0.12500000    0.00000000          2/16
   1:     0.12500000    0.12500000    0.00000000          2/16
   2:     0.37500000   -0.37500000    0.00000000          2/16
   3:     0.37500000   -0.12500000    0.00000000          4/16
   4:     0.37500000    0.12500000    0.00000000          4/16
   5:     0.37500000    0.37500000    0.00000000          2/16

Wave functions: Uniform real-space grid
  Kinetic energy operator: 8*3+1=25 point O(h^6) finite-difference Laplacian
  ScaLapack parameters: grid=1x1, blocksize=None
  Wavefunction extrapolation:
    Improved wavefunction reuse through dual PAW basis 

Occupation numbers: Fermi-Dirac:
  width: 0.1000  # eV
 

Eigensolver
   Davidson(niter=2) 

Densities:
  Coarse grid: 44*44*152 grid
  Fine grid: 88*88*304 grid
  Total Charge: 0.000000 

Density mixing:
  Method: separate
  Backend: pulay
  Linear mixing parameter: 0.05
  old densities: 5
  Damping of long wavelength oscillations: 50 

Hamiltonian:
  XC and Coulomb potentials evaluated on a 88*88*304 grid
  Using the BEEF-vdW Exchange-Correlation functional
  Interpolation: tri-quintic (5. degree polynomial)
  Poisson solver: FastPoissonSolver using
    Stencil: 8*3+1=25 point O(h^6) finite-difference Laplacian
    FFT axes: [0, 1]
    FST axes: [2]
 

XC parameters: BEEF-vdW with 2 nearest neighbor stencil

Memory estimate:
  Process memory now: 184.49 MiB
  Calculator: 373.40 MiB
    Density: 16.06 MiB
      Arrays: 2.88 MiB
      Localized functions: 12.07 MiB
      Mixer: 1.11 MiB
    Hamiltonian: 2.80 MiB
      Arrays: 1.88 MiB
      XC: 0.00 MiB
      Poisson: 0.00 MiB
      vbar: 0.92 MiB
    Wavefunctions: 354.53 MiB
      Arrays psit_nG: 247.26 MiB
      Eigensolver: 104.65 MiB
      Projections: 0.55 MiB
      Projectors: 2.07 MiB

Total number of cores used: 40
Parallelization over k-points: 2
Domain decomposition: 2 x 2 x 5

Number of atoms: 36
Number of atomic orbitals: 972
Number of bands in calculation: 372
Number of valence electrons: 612
Bands to converge: occupied

... initialized

Initializing position-dependent things.

Density initialized from atomic densities
Creating initial wave functions:
  372 bands from LCAO basis set

                                                  
                                                  
                                                  
                                                  
                                                  
                  Ag     Ag     Ag                
                                                  
            Ag     AAg    AAg     Ag              
              Ag     AAg    AAg     Ag            
                                                  
               AAg    AAg    AAg                  
                                                  
                 Ag     Ag     Ag                 
                                                  
           Ag     AAg    AAg     Ag               
                                                  
            Ag      Ag     Ag                     
              Ag      Ag     Ag                   
                                                  
                                                  
                                                  
                                                  

Positions:
   0 Ag    -0.000000    0.000000    9.999999    ( 0.0000,  0.0000,  0.0000)
   1 Ag     1.496122    0.863786   12.443156    ( 0.0000,  0.0000,  0.0000)
   2 Ag    -0.000000    1.721500   14.879470    ( 0.0000,  0.0000,  0.0000)
   3 Ag     2.990772    0.000104   17.332927    ( 0.0000,  0.0000,  0.0000)
   4 Ag    -1.496122    2.591359    9.999999    ( 0.0000,  0.0000,  0.0000)
   5 Ag     0.000000    3.455145   12.443156    ( 0.0000,  0.0000,  0.0000)
   6 Ag    -1.490401    4.322235   14.880555    ( 0.0000,  0.0000,  0.0000)
   7 Ag     1.495476    2.590033   17.332927    ( 0.0000,  0.0000,  0.0000)
   8 Ag    -2.992244    5.182718    9.999999    ( 0.0000,  0.0000,  0.0000)
   9 Ag    -1.496122    6.046505   12.443156    ( 0.0000,  0.0000,  0.0000)
  10 Ag    -2.997503    6.913327   14.879470    ( 0.0000,  0.0000,  0.0000)
  11 Ag     0.000000    5.182718   17.332986    ( 0.0000,  0.0000,  0.0000)
  12 Ag     2.992244    0.000000    9.999999    ( 0.0000,  0.0000,  0.0000)
  13 Ag     4.488366    0.863786   12.443156    ( 0.0000,  0.0000,  0.0000)
  14 Ag     2.995517    1.729463   14.878053    ( 0.0000,  0.0000,  0.0000)
  15 Ag     5.985960    0.000104   17.332927    ( 0.0000,  0.0000,  0.0000)
  16 Ag     1.496122    2.591359    9.999999    ( 0.0000,  0.0000,  0.0000)
  17 Ag     2.992244    3.455145   12.443156    ( 0.0000,  0.0000,  0.0000)
  18 Ag     1.490401    4.322235   14.880555    ( 0.0000,  0.0000,  0.0000)
  19 Ag     4.488366    2.591359   17.331088    ( 0.0000,  0.0000,  0.0000)
  20 Ag     0.000000    5.182718    9.999999    ( 0.0000,  0.0000,  0.0000)
  21 Ag     1.496122    6.046505   12.443156    ( 0.0000,  0.0000,  0.0000)
  22 Ag     0.000000    6.903685   14.880555    ( 0.0000,  0.0000,  0.0000)
  23 Ag     2.993069    5.183941   17.332927    ( 0.0000,  0.0000,  0.0000)
  24 Ag     5.984488    0.000000    9.999999    ( 0.0000,  0.0000,  0.0000)
  25 Ag     7.480609    0.863786   12.443156    ( 0.0000,  0.0000,  0.0000)
  26 Ag     5.981214    1.729463   14.878053    ( 0.0000,  0.0000,  0.0000)
  27 Ag     8.976731   -0.000000   17.337351    ( 0.0000,  0.0000,  0.0000)
  28 Ag     4.488366    2.591359    9.999999    ( 0.0000,  0.0000,  0.0000)
  29 Ag     5.984488    3.455145   12.443156    ( 0.0000,  0.0000,  0.0000)
  30 Ag     4.488366    4.315152   14.878053    ( 0.0000,  0.0000,  0.0000)
  31 Ag     7.481256    2.590033   17.332927    ( 0.0000,  0.0000,  0.0000)
  32 Ag     2.992244    5.182718    9.999999    ( 0.0000,  0.0000,  0.0000)
  33 Ag     4.488366    6.046505   12.443156    ( 0.0000,  0.0000,  0.0000)
  34 Ag     2.997503    6.913327   14.879470    ( 0.0000,  0.0000,  0.0000)
  35 Ag     5.983662    5.183941   17.332927    ( 0.0000,  0.0000,  0.0000)

Unit cell:
           periodic     x           y           z      points  spacing
  1. axis:    yes    8.976731    0.000000    0.000000    44     0.1767
  2. axis:    yes   -4.488366    7.774077    0.000000    44     0.1767
  3. axis:    no     0.000000    0.000000   27.329469   152     0.1798

  Lengths:   8.976731   8.976731  27.329469
  Angles:   90.000000  90.000000 120.000000

Effective grid spacing dv^(1/3) = 0.1864

     iter     time        total  log10-change:
                         energy  eigst   dens
iter:   1 17:30:03 -5340.881435
iter:   2 17:30:40 -5340.502468  -1.13  -1.53
iter:   3 17:31:17 -5338.381420  -1.22  -1.55
iter:   4 17:31:55 -5338.791732  -1.67  -1.82
iter:   5 17:32:32 -5338.812043  -2.78  -2.06
iter:   6 17:33:09 -5340.192929  -2.01  -2.05
iter:   7 17:33:46 -5339.450163  -2.87  -2.02
iter:   8 17:34:24 -5338.979015  -2.79  -2.10
iter:   9 17:35:01 -5338.986454  -3.91  -2.19
iter:  10 17:35:38 -5338.845063c -1.35  -2.20
iter:  11 17:36:16 -5338.259494  -2.15  -2.30
iter:  12 17:36:53 -5338.247674  -3.79  -2.95
iter:  13 17:37:30 -5338.255249c -3.86  -3.11
iter:  14 17:38:08 -5338.250429c -4.19  -3.17
iter:  15 17:38:45 -5338.250104c -4.90  -3.32
iter:  16 17:39:22 -5338.249932c -4.86  -3.45
iter:  17 17:39:59 -5338.249901c -5.24  -3.68
iter:  18 17:40:37 -5338.249918c -5.67  -3.81
iter:  19 17:41:14 -5338.249914c -6.11  -3.86
iter:  20 17:41:51 -5338.249775c -5.70  -3.91
iter:  21 17:42:29 -5338.249767c -6.79  -4.14c
iter:  22 17:43:06 -5338.249767c -6.15  -4.15c
iter:  23 17:43:43 -5338.249730c -5.93  -4.20c
iter:  24 17:44:20 -5338.249729c -6.39  -4.27c
iter:  25 17:44:58 -5338.249748c -6.45  -4.43c
iter:  26 17:45:35 -5338.249713c -6.83  -4.55c
iter:  27 17:46:12 -5338.249716c -7.68c -4.93c

Converged after 27 iterations.

Dipole moment: (-4.383423, -7.657115, -0.002683) |e|*Ang

Energy contributions relative to reference atoms: (reference = -5205521.748734)

Kinetic:       +860.512933
Potential:     -840.914231
External:        +0.000000
XC:            -5361.364641
Entropy (-ST):   -0.319827
Local:           +3.676137
--------------------------
Free energy:   -5338.409630
Extrapolated:  -5338.249716

Showing only first 2 kpts
 Kpt  Band  Eigenvalues  Occupancy
  0   304     -5.41470    1.99934
  0   305     -5.20958    1.99490
  0   306     -5.20610    1.99472
  0   307     -4.59446    0.90950

  1   304     -5.37953    1.99907
  1   305     -5.30604    1.99805
  1   306     -4.77667    1.67523
  1   307     -4.77582    1.67293


Fermi level: -4.61261

No gap

Forces in eV/Ang:
  0 Ag    0.00000    0.00000   -0.02425
  1 Ag   -0.01718   -0.00992    0.00814
  2 Ag    0.00000    0.00490    0.00078
  3 Ag   -0.00196    0.00013   -0.00324
  4 Ag    0.00661   -0.01141   -0.02406
  5 Ag    0.00000    0.02103    0.02843
  6 Ag    0.00296    0.00171    0.00300
  7 Ag   -0.00087   -0.00177   -0.00324
  8 Ag   -0.00658    0.01143   -0.02406
  9 Ag    0.01821   -0.01051    0.02843
 10 Ag    0.00425   -0.00245    0.00078
 11 Ag    0.00000   -0.00000    0.00397
 12 Ag   -0.01318   -0.00002   -0.02406
 13 Ag   -0.00000    0.04778    0.02046
 14 Ag    0.00155    0.00090    0.00106
 15 Ag    0.00196    0.00013   -0.00324
 16 Ag   -0.00661   -0.01141   -0.02406
 17 Ag    0.04138   -0.02389    0.02046
 18 Ag   -0.00296    0.00171    0.00300
 19 Ag   -0.00000    0.00000   -0.00235
 20 Ag    0.00000    0.00000   -0.01325
 21 Ag   -0.01821   -0.01051    0.02843
 22 Ag   -0.00000   -0.00342    0.00300
 23 Ag    0.00109    0.00164   -0.00324
 24 Ag    0.01318   -0.00002   -0.02406
 25 Ag    0.01718   -0.00992    0.00814
 26 Ag   -0.00155    0.00090    0.00106
 27 Ag    0.00000    0.00000    0.00644
 28 Ag    0.00000    0.00000   -0.01351
 29 Ag   -0.04138   -0.02389    0.02046
 30 Ag    0.00000   -0.00179    0.00106
 31 Ag    0.00087   -0.00177   -0.00324
 32 Ag    0.00658    0.01143   -0.02406
 33 Ag   -0.00000    0.01984    0.00814
 34 Ag   -0.00425   -0.00245    0.00078
 35 Ag   -0.00109    0.00164   -0.00324

      Step     Time          Energy         fmax
BFGS:    0 17:46:31    -5338.249716        0.0064
Timing:                              incl.     excl.
-----------------------------------------------------------
Forces:                             19.324    19.324   1.8% ||
Hamiltonian:                         7.886     0.000   0.0% |
 Atomic:                             0.000     0.000   0.0% |
  XC Correction:                     0.000     0.000   0.0% |
 Calculate atomic Hamiltonians:      0.000     0.000   0.0% |
 Communicate:                        0.176     0.176   0.0% |
 Hartree integrate/restrict:         0.003     0.003   0.0% |
 Initialize Hamiltonian:             0.001     0.001   0.0% |
 Poisson:                            0.072     0.002   0.0% |
  Communicate from 1D:               0.012     0.012   0.0% |
  Communicate from 2D:               0.011     0.011   0.0% |
  Communicate to 1D:                 0.011     0.011   0.0% |
  Communicate to 2D:                 0.014     0.014   0.0% |
  FFT 1D:                            0.011     0.011   0.0% |
  FFT 2D:                            0.010     0.010   0.0% |
 XC 3D grid:                         7.452     0.343   0.0% |
  VdW-DF integral:                   7.109     0.151   0.0% |
   Convolution:                      0.245     0.245   0.0% |
   FFT:                              0.166     0.166   0.0% |
   gather:                           1.014     1.014   0.1% |
   hmm1:                             0.054     0.054   0.0% |
   hmm2:                             0.100     0.100   0.0% |
   iFFT:                             0.155     0.155   0.0% |
   potential:                        0.873     0.016   0.0% |
    collect:                         0.077     0.077   0.0% |
    p1:                              0.518     0.518   0.0% |
    p2:                              0.175     0.175   0.0% |
    sum:                             0.087     0.087   0.0% |
   splines:                          4.351     4.351   0.4% |
 vbar:                               0.181     0.181   0.0% |
LCAO initialization:                23.414     0.543   0.1% |
 LCAO eigensolver:                  11.387     0.012   0.0% |
  Calculate projections:             0.000     0.000   0.0% |
  DenseAtomicCorrection:             0.000     0.000   0.0% |
  Distribute overlap matrix:         8.897     8.897   0.8% |
  Orbital Layouts:                   1.957     1.957   0.2% |
  Potential matrix:                  0.026     0.026   0.0% |
  Sum over cells:                    0.494     0.494   0.0% |
 LCAO to grid:                      10.345    10.345   1.0% |
 Set positions (LCAO WFS):           1.139     0.809   0.1% |
  Basic WFS set positions:           0.006     0.006   0.0% |
  Basis functions set positions:     0.000     0.000   0.0% |
  P tci:                             0.001     0.001   0.0% |
  ST tci:                            0.220     0.220   0.0% |
  mktci:                             0.103     0.103   0.0% |
SCF-cycle:                        1010.992     0.095   0.0% |
 Davidson:                         917.689   237.541  22.3% |--------|
  Apply hamiltonian:                21.825    21.825   2.1% ||
  Subspace diag:                   103.437     0.011   0.0% |
   calc_h_matrix:                   48.406    26.990   2.5% ||
    Apply hamiltonian:              21.415    21.415   2.0% ||
   diagonalize:                      5.861     5.861   0.6% |
   rotate_psi:                      49.159    49.159   4.6% |-|
  calc. matrices:                  406.332   187.242  17.6% |------|
   Apply hamiltonian:              219.091   219.091  20.6% |-------|
  diagonalize:                      48.276    48.276   4.5% |-|
  rotate_psi:                      100.278   100.278   9.4% |---|
 Density:                            4.208     0.001   0.0% |
  Atomic density matrices:           0.169     0.169   0.0% |
  Mix:                               0.147     0.147   0.0% |
  Multipole moments:                 0.005     0.005   0.0% |
  Pseudo density:                    3.887     1.190   0.1% |
   Symmetrize density:               2.697     2.697   0.3% |
 Hamiltonian:                       81.564     0.003   0.0% |
  Atomic:                            0.007     0.006   0.0% |
   XC Correction:                    0.000     0.000   0.0% |
  Calculate atomic Hamiltonians:     0.008     0.008   0.0% |
  Communicate:                       4.380     4.380   0.4% |
  Hartree integrate/restrict:        0.084     0.084   0.0% |
  Poisson:                           1.798     0.055   0.0% |
   Communicate from 1D:              0.285     0.285   0.0% |
   Communicate from 2D:              0.286     0.286   0.0% |
   Communicate to 1D:                0.267     0.267   0.0% |
   Communicate to 2D:                0.349     0.349   0.0% |
   FFT 1D:                           0.297     0.297   0.0% |
   FFT 2D:                           0.259     0.259   0.0% |
  XC 3D grid:                       75.259     7.497   0.7% |
   VdW-DF integral:                 67.762     4.097   0.4% |
    Convolution:                     6.629     6.629   0.6% |
    FFT:                             4.346     4.346   0.4% |
    gather:                         22.098    22.098   2.1% ||
    hmm1:                            1.470     1.470   0.1% |
    hmm2:                            2.984     2.984   0.3% |
    iFFT:                            4.027     4.027   0.4% |
    potential:                      22.110     0.385   0.0% |
     collect:                        1.665     1.665   0.2% |
     p1:                            13.297    13.297   1.3% ||
     p2:                             4.564     4.564   0.4% |
     sum:                            2.198     2.198   0.2% |
    splines:                         0.000     0.000   0.0% |
  vbar:                              0.026     0.026   0.0% |
 Orthonormalize:                     7.436     0.001   0.0% |
  calc_s_matrix:                     0.491     0.491   0.0% |
  inverse-cholesky:                  6.020     6.020   0.6% |
  projections:                       0.000     0.000   0.0% |
  rotate_psi_s:                      0.924     0.924   0.1% |
Set symmetry:                        0.004     0.004   0.0% |
Other:                               1.225     1.225   0.1% |
-----------------------------------------------------------
Total:                                      1062.845 100.0%

Memory usage: 1.55 GiB
Date: Sun Oct  8 17:46:31 2023
