
  ___ ___ ___ _ _ _  
 |   |   |_  | | | | 
 | | | | | . | | | | 
 |__ |  _|___|_____|  22.8.0
 |___|_|             

User:   s204775@a118.nifl.fysik.dtu.dk
Date:   Thu Oct  5 10:30:33 2023
Arch:   x86_64
Pid:    222390
CWD:    /home/cat/s204775/projects/Bachelor_project/clean_slabs
Python: 3.10.4
gpaw:   /home/modules/software/GPAW/22.8.0-intel-2022a/lib/python3.10/site-packages/gpaw
_gpaw:  /home/modules/software/GPAW/22.8.0-intel-2022a/lib/python3.10/site-packages/
        _gpaw.cpython-310-x86_64-linux-gnu.so
ase:    /home/modules/software/ASE/3.22.1-intel-2022a/lib/python3.10/site-packages/ase (version 3.22.1)
numpy:  /home/modules/software/SciPy-bundle/2022.05-intel-2022a/lib/python3.10/site-packages/numpy (version 1.22.3)
scipy:  /home/modules/software/SciPy-bundle/2022.05-intel-2022a/lib/python3.10/site-packages/scipy (version 1.8.1)
libxc:  5.2.3
units:  Angstrom and eV
cores: 40
OpenMP: False
OMP_NUM_THREADS: 1

Input parameters:
  basis: dzp
  h: 0.18
  kpts: {size: (4, 4, 1)}
  maxiter: 3000
  xc: BEEF-vdW

System changes: positions, numbers, cell, pbc, initial_charges, initial_magmoms 

Initialize ...

species:
  Rh:
    name: Rhodium
    id: 4e1d209aee696a641de1ffa1459b299f
    Z: 45.0
    valence: 15
    core: 30
    charge: 0.0
    file: /home/modules/software/GPAW-setups/0.9.20000/Rh.PBE.gz
    compensation charges: {type: gauss,
                           rc: 0.38,
                           lmax: 2}
    cutoffs: {filter: 2.48,
              core: 2.35}
    valence states:
      #              energy  rcut
      - 5s(1.00)    -4.297   1.270
      - 4p(6.00)   -50.429   1.381
      - 5p(0.00)    -0.852   1.381
      - 4d(8.00)    -5.942   1.244
      -  s          22.915   1.270
      -  d          21.270   1.244
  
    # LCAO basis set for Rh:
    #   Name: dzp
    #   File: /home/modules/software/GPAW-setups/0.9.20000/Rh.dzp.basis.gz
    #   Number of radial functions: 9
    #   Number of spherical harmonics: 27
    #     l=0, rc=9.5469 Bohr: 5s-sz confined orbital
    #     l=1, rc=3.6250 Bohr: 4p-sz confined orbital
    #     l=1, rc=14.0938 Bohr: 5p-sz confined orbital
    #     l=2, rc=5.9844 Bohr: 4d-sz confined orbital
    #     l=0, rc=5.7031 Bohr: 5s-dz split-valence wave
    #     l=1, rc=2.4531 Bohr: 4p-dz split-valence wave
    #     l=1, rc=8.7031 Bohr: 5p-dz split-valence wave
    #     l=2, rc=3.5625 Bohr: 4d-dz split-valence wave
    #     l=1, rc=9.5469 Bohr: p-type Gaussian polarization
    #   Number of RI-basis functions 0

Reference energy: -4684847.292007  # eV

Spin-paired calculation

Convergence criteria:
 Maximum [total energy] change in last 3 cyles: 0.0005 eV / electron
 Maximum integral of absolute [dens]ity change: 0.0001 electrons / valence electron
 Maximum integral of absolute [eigenst]ate change: 4e-08 eV^2 / valence electron
 Maximum number of scf [iter]ations: 3000
 (Square brackets indicate name in SCF output, whereas a 'c' in
 the SCF output indicates the quantity has converged.)

Symmetries present (total): 6

  ( 1  1  0)  ( 1  0  0)  ( 0  1  0)  ( 0 -1  0)  (-1  0  0)  (-1 -1  0)
  ( 0 -1  0)  ( 0  1  0)  (-1 -1  0)  (-1  0  0)  ( 1  1  0)  ( 1  0  0)
  ( 0  0  1)  ( 0  0  1)  ( 0  0  1)  ( 0  0  1)  ( 0  0  1)  ( 0  0  1)
Note: your k-points are not as symmetric as your crystal!

16 k-points: 4 x 4 x 1 Monkhorst-Pack grid
6 k-points in the irreducible part of the Brillouin zone
       k-points in crystal coordinates                weights
   0:     0.12500000   -0.12500000    0.00000000          2/16
   1:     0.12500000    0.12500000    0.00000000          2/16
   2:     0.37500000   -0.37500000    0.00000000          2/16
   3:     0.37500000   -0.12500000    0.00000000          4/16
   4:     0.37500000    0.12500000    0.00000000          4/16
   5:     0.37500000    0.37500000    0.00000000          2/16

Wave functions: Uniform real-space grid
  Kinetic energy operator: 8*3+1=25 point O(h^6) finite-difference Laplacian
  ScaLapack parameters: grid=1x1, blocksize=None
  Wavefunction extrapolation:
    Improved wavefunction reuse through dual PAW basis 

Occupation numbers: Fermi-Dirac:
  width: 0.1000  # eV
 

Eigensolver
   Davidson(niter=2) 

Densities:
  Coarse grid: 40*40*148 grid
  Fine grid: 80*80*296 grid
  Total Charge: 0.000000 

Density mixing:
  Method: separate
  Backend: pulay
  Linear mixing parameter: 0.05
  old densities: 5
  Damping of long wavelength oscillations: 50 

Hamiltonian:
  XC and Coulomb potentials evaluated on a 80*80*296 grid
  Using the BEEF-vdW Exchange-Correlation functional
  Interpolation: tri-quintic (5. degree polynomial)
  Poisson solver: FastPoissonSolver using
    Stencil: 8*3+1=25 point O(h^6) finite-difference Laplacian
    FFT axes: [0, 1]
    FST axes: [2]
 

XC parameters: BEEF-vdW with 2 nearest neighbor stencil

Memory estimate:
  Process memory now: 169.70 MiB
  Calculator: 271.43 MiB
    Density: 16.46 MiB
      Arrays: 2.34 MiB
      Localized functions: 13.23 MiB
      Mixer: 0.89 MiB
    Hamiltonian: 2.58 MiB
      Arrays: 1.53 MiB
      XC: 0.00 MiB
      Poisson: 0.00 MiB
      vbar: 1.05 MiB
    Wavefunctions: 252.40 MiB
      Arrays psit_nG: 174.17 MiB
      Eigensolver: 75.37 MiB
      Projections: 0.49 MiB
      Projectors: 2.37 MiB

Total number of cores used: 40
Parallelization over k-points: 2
Domain decomposition: 2 x 2 x 5

Number of atoms: 36
Number of atomic orbitals: 972
Number of bands in calculation: 328
Number of valence electrons: 540
Bands to converge: occupied

... initialized

Initializing position-dependent things.

Density initialized from atomic densities
Creating initial wave functions:
  328 bands from LCAO basis set

                                           
                                           
                                           
                                           
                                           
          Rh    Rh     Rh                  
           RRh   RRh    RRh                
              Rh    Rh     Rh              
             Rh    Rh     Rh               
              RRh   RRh    RRh             
                                           
                Rh    Rh     Rh            
                 Rh     Rh     Rh          
          Rh    Rh     Rh                  
            Rh    Rh     Rh                
              Rh    Rh     Rh              
                                           
                                           
                                           
                                           

Positions:
   0 Rh     0.000000    0.000000    9.999999    ( 0.0000,  0.0000,  0.0000)
   1 Rh     1.374814    0.793749   12.245061    ( 0.0000,  0.0000,  0.0000)
   2 Rh     0.000000    1.586401   14.446843    ( 0.0000,  0.0000,  0.0000)
   3 Rh    -0.000000    0.000000   16.662155    ( 0.0000,  0.0000,  0.0000)
   4 Rh    -1.374814    2.381247    9.999999    ( 0.0000,  0.0000,  0.0000)
   5 Rh    -0.000000    3.174997   12.245061    ( 0.0000,  0.0000,  0.0000)
   6 Rh    -1.374325    3.969028   14.447533    ( 0.0000,  0.0000,  0.0000)
   7 Rh    -1.373523    2.379417   16.659614    ( 0.0000,  0.0000,  0.0000)
   8 Rh    -2.749628    4.762495    9.999999    ( 0.0000,  0.0000,  0.0000)
   9 Rh    -1.374814    5.556244   12.245061    ( 0.0000,  0.0000,  0.0000)
  10 Rh    -2.750578    6.350542   14.446843    ( 0.0000,  0.0000,  0.0000)
  11 Rh    -2.750567    4.764528   16.659614    ( 0.0000,  0.0000,  0.0000)
  12 Rh     2.749628    0.000000    9.999999    ( 0.0000,  0.0000,  0.0000)
  13 Rh     4.124441    0.793749   12.245061    ( 0.0000,  0.0000,  0.0000)
  14 Rh     2.749543    1.587450   14.446652    ( 0.0000,  0.0000,  0.0000)
  15 Rh     2.747397   -0.000203   16.659614    ( 0.0000,  0.0000,  0.0000)
  16 Rh     1.374814    2.381247    9.999999    ( 0.0000,  0.0000,  0.0000)
  17 Rh     2.749628    3.174997   12.245061    ( 0.0000,  0.0000,  0.0000)
  18 Rh     1.374325    3.969028   14.447533    ( 0.0000,  0.0000,  0.0000)
  19 Rh     1.373523    2.379417   16.659614    ( 0.0000,  0.0000,  0.0000)
  20 Rh    -0.000000    4.762495    9.999999    ( 0.0000,  0.0000,  0.0000)
  21 Rh     1.374814    5.556244   12.245061    ( 0.0000,  0.0000,  0.0000)
  22 Rh    -0.000000    6.349429   14.447533    ( 0.0000,  0.0000,  0.0000)
  23 Rh    -0.000000    4.762495   16.661084    ( 0.0000,  0.0000,  0.0000)
  24 Rh     5.499255    0.000000    9.999999    ( 0.0000,  0.0000,  0.0000)
  25 Rh     6.874069    0.793749   12.245061    ( 0.0000,  0.0000,  0.0000)
  26 Rh     5.499340    1.587450   14.446652    ( 0.0000,  0.0000,  0.0000)
  27 Rh     5.501486   -0.000203   16.659614    ( 0.0000,  0.0000,  0.0000)
  28 Rh     4.124441    2.381247    9.999999    ( 0.0000,  0.0000,  0.0000)
  29 Rh     5.499255    3.174997   12.245061    ( 0.0000,  0.0000,  0.0000)
  30 Rh     4.124441    3.968843   14.446652    ( 0.0000,  0.0000,  0.0000)
  31 Rh     4.124441    2.381247   16.660091    ( 0.0000,  0.0000,  0.0000)
  32 Rh     2.749628    4.762495    9.999999    ( 0.0000,  0.0000,  0.0000)
  33 Rh     4.124441    5.556244   12.245061    ( 0.0000,  0.0000,  0.0000)
  34 Rh     2.750578    6.350542   14.446843    ( 0.0000,  0.0000,  0.0000)
  35 Rh     2.750567    4.764528   16.659614    ( 0.0000,  0.0000,  0.0000)

Unit cell:
           periodic     x           y           z      points  spacing
  1. axis:    yes    8.248883    0.000000    0.000000    40     0.1786
  2. axis:    yes   -4.124441    7.143742    0.000000    40     0.1786
  3. axis:    no     0.000000    0.000000   26.735183   148     0.1806

  Lengths:   8.248883   8.248883  26.735183
  Angles:   90.000000  90.000000 120.000000

Effective grid spacing dv^(1/3) = 0.1881

     iter     time        total  log10-change:
                         energy  eigst   dens
iter:   1 10:31:29 -5152.003316
iter:   2 10:31:55 -5150.320402  -0.84  -1.40
iter:   3 10:32:21 -5151.781678  -1.52  -1.43
iter:   4 10:32:47 -5165.235542  -1.44  -1.41
iter:   5 10:33:13 -5143.928240  -0.96  -1.32
iter:   6 10:33:39 -5142.306113  -1.37  -1.77
iter:   7 10:34:05 -5142.008598  -2.57  -2.01
iter:   8 10:34:31 -5141.622209  -1.84  -2.04
iter:   9 10:34:57 -5141.555661  -2.32  -2.08
iter:  10 10:35:23 -5142.029092  -2.06  -2.23
iter:  11 10:35:48 -5141.484754  -2.76  -2.13
iter:  12 10:36:14 -5141.427173  -3.12  -2.41
iter:  13 10:36:40 -5141.387682c -2.68  -2.57
iter:  14 10:37:06 -5141.393416c -3.99  -2.97
iter:  15 10:37:32 -5141.379936c -4.26  -2.99
iter:  16 10:37:58 -5141.379605c -4.89  -3.24
iter:  17 10:38:24 -5141.383339c -4.90  -3.27
iter:  18 10:38:50 -5141.380637c -4.90  -3.24
iter:  19 10:39:16 -5141.381399c -4.87  -3.34
iter:  20 10:39:42 -5141.380113c -4.60  -3.36
iter:  21 10:40:08 -5141.379486c -5.21  -3.71
iter:  22 10:40:34 -5141.379649c -5.42  -3.78
iter:  23 10:40:59 -5141.379126c -5.27  -3.88
iter:  24 10:41:25 -5141.380017c -5.59  -3.93
iter:  25 10:41:51 -5141.379155c -6.09  -3.92
iter:  26 10:42:17 -5141.379609c -6.01  -4.13c
iter:  27 10:42:43 -5141.379591c -6.14  -4.24c
iter:  28 10:43:09 -5141.379505c -6.57  -4.58c
iter:  29 10:43:35 -5141.379534c -6.86  -4.63c
iter:  30 10:44:01 -5141.379504c -7.23  -4.66c
iter:  31 10:44:27 -5141.379448c -7.03  -4.72c
iter:  32 10:44:53 -5141.379460c -7.69c -4.89c

Converged after 32 iterations.

Dipole moment: (-3.942262, -6.760074, 0.007717) |e|*Ang

Energy contributions relative to reference atoms: (reference = -4684847.292007)

Kinetic:       +728.711253
Potential:     -754.993620
External:        +0.000000
XC:            -5103.364495
Entropy (-ST):   -2.236229
Local:          -10.614484
--------------------------
Free energy:   -5142.497574
Extrapolated:  -5141.379460

Showing only first 2 kpts
 Kpt  Band  Eigenvalues  Occupancy
  0   268     -5.33034    1.23916
  0   269     -5.30139    1.09880
  0   270     -5.29630    1.07354
  0   271     -5.28735    1.02890

  1   268     -5.31714    1.17602
  1   269     -5.31669    1.17382
  1   270     -5.31641    1.17245
  1   271     -5.24402    0.81442


Fermi level: -5.28157

No gap

Forces in eV/Ang:
  0 Rh   -0.00000    0.00000    0.18468
  1 Rh   -0.02646   -0.01527   -0.19814
  2 Rh    0.00000   -0.00090    0.00257
  3 Rh    0.00000   -0.00000    0.03002
  4 Rh    0.00455   -0.00840    0.16425
  5 Rh    0.00000   -0.00409   -0.19881
  6 Rh   -0.00160   -0.00093    0.00041
  7 Rh   -0.00302   -0.00020    0.03092
  8 Rh   -0.00500    0.00814    0.16425
  9 Rh   -0.00354    0.00204   -0.19881
 10 Rh   -0.00078    0.00045    0.00257
 11 Rh   -0.00169   -0.00251    0.03092
 12 Rh   -0.00955    0.00026    0.16425
 13 Rh    0.00000    0.00398   -0.20018
 14 Rh    0.00063    0.00037    0.00353
 15 Rh    0.00133    0.00272    0.03092
 16 Rh   -0.00455   -0.00840    0.16425
 17 Rh    0.00345   -0.00199   -0.20018
 18 Rh    0.00160   -0.00093    0.00041
 19 Rh    0.00302   -0.00020    0.03092
 20 Rh    0.00000    0.00000    0.17733
 21 Rh    0.00354    0.00204   -0.19881
 22 Rh    0.00000    0.00185    0.00041
 23 Rh    0.00000   -0.00000    0.03199
 24 Rh    0.00955    0.00026    0.16425
 25 Rh    0.02646   -0.01527   -0.19814
 26 Rh   -0.00063    0.00037    0.00353
 27 Rh   -0.00133    0.00272    0.03092
 28 Rh    0.00000    0.00000    0.17549
 29 Rh   -0.00345   -0.00199   -0.20018
 30 Rh   -0.00000   -0.00073    0.00353
 31 Rh    0.00000   -0.00000    0.03187
 32 Rh    0.00500    0.00814    0.16425
 33 Rh   -0.00000    0.03055   -0.19814
 34 Rh    0.00078    0.00045    0.00257
 35 Rh    0.00169   -0.00251    0.03092

      Step     Time          Energy         fmax
BFGS:    0 10:45:10    -5141.379460        0.0320

  ___ ___ ___ _ _ _  
 |   |   |_  | | | | 
 | | | | | . | | | | 
 |__ |  _|___|_____|  22.8.0
 |___|_|             

User:   s204775@a118.nifl.fysik.dtu.dk
Date:   Thu Oct  5 10:45:10 2023
Arch:   x86_64
Pid:    222390
CWD:    /home/cat/s204775/projects/Bachelor_project/clean_slabs
Python: 3.10.4
gpaw:   /home/modules/software/GPAW/22.8.0-intel-2022a/lib/python3.10/site-packages/gpaw
_gpaw:  /home/modules/software/GPAW/22.8.0-intel-2022a/lib/python3.10/site-packages/
        _gpaw.cpython-310-x86_64-linux-gnu.so
ase:    /home/modules/software/ASE/3.22.1-intel-2022a/lib/python3.10/site-packages/ase (version 3.22.1)
numpy:  /home/modules/software/SciPy-bundle/2022.05-intel-2022a/lib/python3.10/site-packages/numpy (version 1.22.3)
scipy:  /home/modules/software/SciPy-bundle/2022.05-intel-2022a/lib/python3.10/site-packages/scipy (version 1.8.1)
libxc:  5.2.3
units:  Angstrom and eV
cores: 40
OpenMP: False
OMP_NUM_THREADS: 1

Input parameters:
  basis: dzp
  h: 0.18
  kpts: {size: (4, 4, 1)}
  maxiter: 3000
  xc: BEEF-vdW

System changes: positions, numbers, cell, pbc, initial_charges, initial_magmoms 

Initialize ...

species:
  Pd:
    name: Palladium
    id: c3f348c122b85aed3f99c4295cac773c
    Z: 46.0
    valence: 16
    core: 30
    charge: 0.0
    file: /home/modules/software/GPAW-setups/0.9.20000/Pd.PBE.gz
    compensation charges: {type: gauss,
                           rc: 0.38,
                           lmax: 2}
    cutoffs: {filter: 2.38,
              core: 2.28}
    valence states:
      #              energy  rcut
      - 5s(0.00)    -3.315   1.228
      - 4p(6.00)   -51.209   1.360
      - 5p(0.00)    -0.314   1.360
      - 4d(10.00)    -4.047   1.228
      -  s          23.896   1.228
      -  d          23.165   1.228
  
    # LCAO basis set for Pd:
    #   Name: dzp
    #   File: /home/modules/software/GPAW-setups/0.9.20000/Pd.dzp.basis.gz
    #   Number of radial functions: 9
    #   Number of spherical harmonics: 27
    #     l=0, rc=10.0312 Bohr: 5s-sz confined orbital
    #     l=1, rc=3.5312 Bohr: 4p-sz confined orbital
    #     l=1, rc=16.0000 Bohr: 5p-sz confined orbital
    #     l=2, rc=6.2031 Bohr: 4d-sz confined orbital
    #     l=0, rc=6.0156 Bohr: 5s-dz split-valence wave
    #     l=1, rc=2.4062 Bohr: 4p-dz split-valence wave
    #     l=1, rc=9.9375 Bohr: 5p-dz split-valence wave
    #     l=2, rc=3.6719 Bohr: 4d-dz split-valence wave
    #     l=1, rc=10.0312 Bohr: p-type Gaussian polarization
    #   Number of RI-basis functions 0

Reference energy: -4940189.665851  # eV

Spin-paired calculation

Convergence criteria:
 Maximum [total energy] change in last 3 cyles: 0.0005 eV / electron
 Maximum integral of absolute [dens]ity change: 0.0001 electrons / valence electron
 Maximum integral of absolute [eigenst]ate change: 4e-08 eV^2 / valence electron
 Maximum number of scf [iter]ations: 3000
 (Square brackets indicate name in SCF output, whereas a 'c' in
 the SCF output indicates the quantity has converged.)

Symmetries present (total): 6

  ( 1  1  0)  ( 1  0  0)  ( 0  1  0)  ( 0 -1  0)  (-1  0  0)  (-1 -1  0)
  ( 0 -1  0)  ( 0  1  0)  (-1 -1  0)  (-1  0  0)  ( 1  1  0)  ( 1  0  0)
  ( 0  0  1)  ( 0  0  1)  ( 0  0  1)  ( 0  0  1)  ( 0  0  1)  ( 0  0  1)
Note: your k-points are not as symmetric as your crystal!

16 k-points: 4 x 4 x 1 Monkhorst-Pack grid
6 k-points in the irreducible part of the Brillouin zone
       k-points in crystal coordinates                weights
   0:     0.12500000   -0.12500000    0.00000000          2/16
   1:     0.12500000    0.12500000    0.00000000          2/16
   2:     0.37500000   -0.37500000    0.00000000          2/16
   3:     0.37500000   -0.12500000    0.00000000          4/16
   4:     0.37500000    0.12500000    0.00000000          4/16
   5:     0.37500000    0.37500000    0.00000000          2/16

Wave functions: Uniform real-space grid
  Kinetic energy operator: 8*3+1=25 point O(h^6) finite-difference Laplacian
  ScaLapack parameters: grid=1x1, blocksize=None
  Wavefunction extrapolation:
    Improved wavefunction reuse through dual PAW basis 

Occupation numbers: Fermi-Dirac:
  width: 0.1000  # eV
 

Eigensolver
   Davidson(niter=2) 

Densities:
  Coarse grid: 40*40*148 grid
  Fine grid: 80*80*296 grid
  Total Charge: 0.000000 

Density mixing:
  Method: separate
  Backend: pulay
  Linear mixing parameter: 0.05
  old densities: 5
  Damping of long wavelength oscillations: 50 

Hamiltonian:
  XC and Coulomb potentials evaluated on a 80*80*296 grid
  Using the BEEF-vdW Exchange-Correlation functional
  Interpolation: tri-quintic (5. degree polynomial)
  Poisson solver: FastPoissonSolver using
    Stencil: 8*3+1=25 point O(h^6) finite-difference Laplacian
    FFT axes: [0, 1]
    FST axes: [2]
 

XC parameters: BEEF-vdW with 2 nearest neighbor stencil

Memory estimate:
  Process memory now: 1184.20 MiB
  Calculator: 287.26 MiB
    Density: 14.99 MiB
      Arrays: 2.34 MiB
      Localized functions: 11.77 MiB
      Mixer: 0.89 MiB
    Hamiltonian: 2.40 MiB
      Arrays: 1.53 MiB
      XC: 0.00 MiB
      Poisson: 0.00 MiB
      vbar: 0.87 MiB
    Wavefunctions: 269.87 MiB
      Arrays psit_nG: 185.85 MiB
      Eigensolver: 81.54 MiB
      Projections: 0.52 MiB
      Projectors: 1.96 MiB

Total number of cores used: 40
Parallelization over k-points: 2
Domain decomposition: 2 x 2 x 5

Number of atoms: 36
Number of atomic orbitals: 972
Number of bands in calculation: 350
Number of valence electrons: 576
Bands to converge: occupied

... initialized

Initializing position-dependent things.

Density initialized from atomic densities
Creating initial wave functions:
  350 bands from LCAO basis set

                                                
                                                
                                                
                                                
                 Pd     Pd     Pd               
                                                
           Pd     PPd    PPd     Pd             
                     Pd     Pd     Pd           
             Pd     Pd     Pd                   
              PPd    PPd    PPd                 
                                                
                Pd     Pd     Pd                
                  Pd     Pd     Pd              
          Pd     Pd     Pd                      
            Pd     Pd     Pd                    
              Pd     Pd     Pd                  
                                                
                                                
                                                
                                                

Positions:
   0 Pd     0.000000    0.000000    9.999999    ( 0.0000,  0.0000,  0.0000)
   1 Pd     1.418446    0.818940   12.316312    ( 0.0000,  0.0000,  0.0000)
   2 Pd    -0.000000    1.637341   14.614319    ( 0.0000,  0.0000,  0.0000)
   3 Pd     2.836318   -0.000221   16.938702    ( 0.0000,  0.0000,  0.0000)
   4 Pd    -1.418446    2.456821    9.999999    ( 0.0000,  0.0000,  0.0000)
   5 Pd    -0.000000    3.275761   12.316312    ( 0.0000,  0.0000,  0.0000)
   6 Pd    -1.417250    4.095392   14.618454    ( 0.0000,  0.0000,  0.0000)
   7 Pd     1.417968    2.456434   16.938702    ( 0.0000,  0.0000,  0.0000)
   8 Pd    -2.836893    4.913642    9.999999    ( 0.0000,  0.0000,  0.0000)
   9 Pd    -1.418446    5.732582   12.316312    ( 0.0000,  0.0000,  0.0000)
  10 Pd    -2.837360    6.551793   14.614319    ( 0.0000,  0.0000,  0.0000)
  11 Pd    -0.000000    4.913642   16.946916    ( 0.0000,  0.0000,  0.0000)
  12 Pd     2.836893    0.000000    9.999999    ( 0.0000,  0.0000,  0.0000)
  13 Pd     4.255339    0.818940   12.316312    ( 0.0000,  0.0000,  0.0000)
  14 Pd     2.837300    1.638116   14.617798    ( 0.0000,  0.0000,  0.0000)
  15 Pd     5.674360   -0.000221   16.938702    ( 0.0000,  0.0000,  0.0000)
  16 Pd     1.418446    2.456821    9.999999    ( 0.0000,  0.0000,  0.0000)
  17 Pd     2.836893    3.275761   12.316312    ( 0.0000,  0.0000,  0.0000)
  18 Pd     1.417250    4.095392   14.618454    ( 0.0000,  0.0000,  0.0000)
  19 Pd     4.255339    2.456821   16.946466    ( 0.0000,  0.0000,  0.0000)
  20 Pd     0.000000    4.913642    9.999999    ( 0.0000,  0.0000,  0.0000)
  21 Pd     1.418446    5.732582   12.316312    ( 0.0000,  0.0000,  0.0000)
  22 Pd    -0.000000    6.550142   14.618454    ( 0.0000,  0.0000,  0.0000)
  23 Pd     2.836989    4.914250   16.938702    ( 0.0000,  0.0000,  0.0000)
  24 Pd     5.673785    0.000000    9.999999    ( 0.0000,  0.0000,  0.0000)
  25 Pd     7.092231    0.818940   12.316312    ( 0.0000,  0.0000,  0.0000)
  26 Pd     5.673378    1.638116   14.617798    ( 0.0000,  0.0000,  0.0000)
  27 Pd     8.510678    0.000000   16.935460    ( 0.0000,  0.0000,  0.0000)
  28 Pd     4.255339    2.456821    9.999999    ( 0.0000,  0.0000,  0.0000)
  29 Pd     5.673785    3.275761   12.316312    ( 0.0000,  0.0000,  0.0000)
  30 Pd     4.255339    4.094232   14.617798    ( 0.0000,  0.0000,  0.0000)
  31 Pd     7.092710    2.456434   16.938702    ( 0.0000,  0.0000,  0.0000)
  32 Pd     2.836893    4.913642    9.999999    ( 0.0000,  0.0000,  0.0000)
  33 Pd     4.255339    5.732582   12.316312    ( 0.0000,  0.0000,  0.0000)
  34 Pd     2.837360    6.551793   14.614319    ( 0.0000,  0.0000,  0.0000)
  35 Pd     5.673689    4.914250   16.938702    ( 0.0000,  0.0000,  0.0000)

Unit cell:
           periodic     x           y           z      points  spacing
  1. axis:    yes    8.510678    0.000000    0.000000    40     0.1843
  2. axis:    yes   -4.255339    7.370463    0.000000    40     0.1843
  3. axis:    no     0.000000    0.000000   26.948937   148     0.1821

  Lengths:   8.510678   8.510678  26.948937
  Angles:   90.000000  90.000000 120.000000

Effective grid spacing dv^(1/3) = 0.1925

     iter     time        total  log10-change:
                         energy  eigst   dens
iter:   1 10:46:10 -5228.893762
iter:   2 10:46:35 -5219.804176  -0.46  -1.15
iter:   3 10:46:59 -5212.275790  -0.98  -1.21
iter:   4 10:47:24 -5215.216777  -0.44  -1.27
iter:   5 10:47:49 -5202.417150  -1.00  -1.48
iter:   6 10:48:14 -5201.088359  -1.29  -1.60
iter:   7 10:48:39 -5199.808433  -1.39  -1.79
iter:   8 10:49:04 -5198.080595  -1.71  -1.88
iter:   9 10:49:29 -5197.313935  -2.59  -1.99
iter:  10 10:49:54 -5196.997177  -2.34  -2.05
iter:  11 10:50:19 -5197.010477  -2.59  -2.09
iter:  12 10:50:44 -5196.995881c -2.43  -2.10
iter:  13 10:51:09 -5197.364224  -2.30  -2.18
iter:  14 10:51:33 -5196.884971  -2.80  -2.21
iter:  15 10:51:58 -5196.826905  -2.82  -2.43
iter:  16 10:52:23 -5196.811654c -3.43  -2.72
iter:  17 10:52:48 -5196.802357c -3.90  -2.85
iter:  18 10:53:13 -5196.800447c -4.08  -2.98
iter:  19 10:53:38 -5196.800941c -4.11  -3.07
iter:  20 10:54:03 -5196.798895c -4.30  -3.22
iter:  21 10:54:27 -5196.798524c -4.47  -3.32
iter:  22 10:54:52 -5196.798614c -5.02  -3.56
iter:  23 10:55:17 -5196.798455c -5.47  -3.59
iter:  24 10:55:42 -5196.798477c -4.82  -3.68
iter:  25 10:56:07 -5196.798436c -5.89  -4.00c
iter:  26 10:56:32 -5196.798505c -5.94  -4.08c
iter:  27 10:56:57 -5196.798531c -6.43  -4.16c
iter:  28 10:57:21 -5196.798628c -6.72  -4.18c
iter:  29 10:57:46 -5196.798625c -6.67  -4.07c
iter:  30 10:58:11 -5196.798649c -7.12  -4.23c
iter:  31 10:58:36 -5196.798848c -6.43  -4.28c
iter:  32 10:59:01 -5196.798846c -7.20  -4.51c
iter:  33 10:59:26 -5196.798816c -6.98  -4.66c
iter:  34 10:59:51 -5196.798832c -7.61c -4.83c

Converged after 34 iterations.

Dipole moment: (-4.346217, -7.496927, -0.001313) |e|*Ang

Energy contributions relative to reference atoms: (reference = -4940189.665851)

Kinetic:       +788.825692
Potential:     -884.389562
External:        +0.000000
XC:            -5089.359279
Entropy (-ST):   -2.572208
Local:          -10.589579
--------------------------
Free energy:   -5198.084935
Extrapolated:  -5196.798832

Showing only first 2 kpts
 Kpt  Band  Eigenvalues  Occupancy
  0   286     -5.50976    1.58842
  0   287     -5.50962    1.58795
  0   288     -5.48052    1.48465
  0   289     -5.44766    1.34937

  1   286     -5.48908    1.51671
  1   287     -5.45909    1.39853
  1   288     -5.45767    1.39253
  1   289     -5.45669    1.38838


Fermi level: -5.37471

No gap

Forces in eV/Ang:
  0 Pd    0.00000    0.00000    0.00437
  1 Pd   -0.00696   -0.00402    0.02857
  2 Pd   -0.00000    0.00139   -0.00129
  3 Pd    0.00436    0.00054    0.01046
  4 Pd    0.00083   -0.00233   -0.02268
  5 Pd   -0.00000    0.01077    0.01823
  6 Pd   -0.00099   -0.00057   -0.00930
  7 Pd    0.00265    0.00351    0.01046
  8 Pd   -0.00160    0.00188   -0.02268
  9 Pd    0.00933   -0.00539    0.01823
 10 Pd    0.00121   -0.00070   -0.00129
 11 Pd   -0.00000   -0.00000    0.00701
 12 Pd   -0.00243    0.00044   -0.02268
 13 Pd    0.00000    0.00411    0.03407
 14 Pd    0.00237    0.00137   -0.00937
 15 Pd   -0.00436    0.00054    0.01046
 16 Pd   -0.00083   -0.00233   -0.02268
 17 Pd    0.00356   -0.00206    0.03407
 18 Pd    0.00099   -0.00057   -0.00930
 19 Pd    0.00000    0.00000    0.00329
 20 Pd    0.00000    0.00000   -0.04690
 21 Pd   -0.00933   -0.00539    0.01823
 22 Pd    0.00000    0.00114   -0.00930
 23 Pd   -0.00171   -0.00405    0.01046
 24 Pd    0.00243    0.00044   -0.02268
 25 Pd    0.00696   -0.00402    0.02857
 26 Pd   -0.00237    0.00137   -0.00937
 27 Pd    0.00000    0.00000    0.01481
 28 Pd    0.00000    0.00000   -0.04845
 29 Pd   -0.00356   -0.00206    0.03407
 30 Pd   -0.00000   -0.00274   -0.00937
 31 Pd   -0.00265    0.00351    0.01046
 32 Pd    0.00160    0.00188   -0.02268
 33 Pd   -0.00000    0.00804    0.02857
 34 Pd   -0.00121   -0.00070   -0.00129
 35 Pd    0.00171   -0.00405    0.01046

      Step     Time          Energy         fmax
BFGS:    0 11:00:05    -5196.798832        0.0148

  ___ ___ ___ _ _ _  
 |   |   |_  | | | | 
 | | | | | . | | | | 
 |__ |  _|___|_____|  22.8.0
 |___|_|             

User:   s204775@a118.nifl.fysik.dtu.dk
Date:   Thu Oct  5 11:00:06 2023
Arch:   x86_64
Pid:    222390
CWD:    /home/cat/s204775/projects/Bachelor_project/clean_slabs
Python: 3.10.4
gpaw:   /home/modules/software/GPAW/22.8.0-intel-2022a/lib/python3.10/site-packages/gpaw
_gpaw:  /home/modules/software/GPAW/22.8.0-intel-2022a/lib/python3.10/site-packages/
        _gpaw.cpython-310-x86_64-linux-gnu.so
ase:    /home/modules/software/ASE/3.22.1-intel-2022a/lib/python3.10/site-packages/ase (version 3.22.1)
numpy:  /home/modules/software/SciPy-bundle/2022.05-intel-2022a/lib/python3.10/site-packages/numpy (version 1.22.3)
scipy:  /home/modules/software/SciPy-bundle/2022.05-intel-2022a/lib/python3.10/site-packages/scipy (version 1.8.1)
libxc:  5.2.3
units:  Angstrom and eV
cores: 40
OpenMP: False
OMP_NUM_THREADS: 1

Input parameters:
  basis: dzp
  h: 0.18
  kpts: {size: (4, 4, 1)}
  maxiter: 3000
  xc: BEEF-vdW

System changes: positions, numbers, cell, pbc, initial_charges, initial_magmoms 

Initialize ...

species:
  Ir:
    name: Iridium
    id: fcdd1dd1ce91fa61afbba7769971f98a
    Z: 77.0
    valence: 15
    core: 62
    charge: 0.0
    file: /home/modules/software/GPAW-setups/0.9.20000/Ir.PBE.gz
    compensation charges: {type: gauss,
                           rc: 0.40,
                           lmax: 2}
    cutoffs: {filter: 2.40,
              core: 2.36}
    valence states:
      #              energy  rcut
      - 6s(2.00)    -6.307   1.296
      - 5p(6.00)   -54.741   1.328
      - 6p(0.00)    -1.224   1.328
      - 5d(7.00)    -7.169   1.286
      -  s          20.905   1.296
      -  d          20.043   1.286
  
    # LCAO basis set for Ir:
    #   Name: dzp
    #   File: /home/modules/software/GPAW-setups/0.9.20000/Ir.dzp.basis.gz
    #   Number of radial functions: 9
    #   Number of spherical harmonics: 27
    #     l=0, rc=8.4062 Bohr: 6s-sz confined orbital
    #     l=1, rc=3.6406 Bohr: 5p-sz confined orbital
    #     l=1, rc=12.7031 Bohr: 6p-sz confined orbital
    #     l=2, rc=6.0469 Bohr: 5d-sz confined orbital
    #     l=0, rc=4.9844 Bohr: 6s-dz split-valence wave
    #     l=1, rc=2.4062 Bohr: 5p-dz split-valence wave
    #     l=1, rc=7.7969 Bohr: 6p-dz split-valence wave
    #     l=2, rc=3.5938 Bohr: 5d-dz split-valence wave
    #     l=1, rc=8.4062 Bohr: p-type Gaussian polarization
    #   Number of RI-basis functions 0

Reference energy: -17441454.576081  # eV

Spin-paired calculation

Convergence criteria:
 Maximum [total energy] change in last 3 cyles: 0.0005 eV / electron
 Maximum integral of absolute [dens]ity change: 0.0001 electrons / valence electron
 Maximum integral of absolute [eigenst]ate change: 4e-08 eV^2 / valence electron
 Maximum number of scf [iter]ations: 3000
 (Square brackets indicate name in SCF output, whereas a 'c' in
 the SCF output indicates the quantity has converged.)

Symmetries present (total): 6

  ( 1  1  0)  ( 1  0  0)  ( 0  1  0)  ( 0 -1  0)  (-1  0  0)  (-1 -1  0)
  ( 0 -1  0)  ( 0  1  0)  (-1 -1  0)  (-1  0  0)  ( 1  1  0)  ( 1  0  0)
  ( 0  0  1)  ( 0  0  1)  ( 0  0  1)  ( 0  0  1)  ( 0  0  1)  ( 0  0  1)
Note: your k-points are not as symmetric as your crystal!

16 k-points: 4 x 4 x 1 Monkhorst-Pack grid
6 k-points in the irreducible part of the Brillouin zone
       k-points in crystal coordinates                weights
   0:     0.12500000   -0.12500000    0.00000000          2/16
   1:     0.12500000    0.12500000    0.00000000          2/16
   2:     0.37500000   -0.37500000    0.00000000          2/16
   3:     0.37500000   -0.12500000    0.00000000          4/16
   4:     0.37500000    0.12500000    0.00000000          4/16
   5:     0.37500000    0.37500000    0.00000000          2/16

Wave functions: Uniform real-space grid
  Kinetic energy operator: 8*3+1=25 point O(h^6) finite-difference Laplacian
  ScaLapack parameters: grid=1x1, blocksize=None
  Wavefunction extrapolation:
    Improved wavefunction reuse through dual PAW basis 

Occupation numbers: Fermi-Dirac:
  width: 0.1000  # eV
 

Eigensolver
   Davidson(niter=2) 

Densities:
  Coarse grid: 40*40*148 grid
  Fine grid: 80*80*296 grid
  Total Charge: 0.000000 

Density mixing:
  Method: separate
  Backend: pulay
  Linear mixing parameter: 0.05
  old densities: 5
  Damping of long wavelength oscillations: 50 

Hamiltonian:
  XC and Coulomb potentials evaluated on a 80*80*296 grid
  Using the BEEF-vdW Exchange-Correlation functional
  Interpolation: tri-quintic (5. degree polynomial)
  Poisson solver: FastPoissonSolver using
    Stencil: 8*3+1=25 point O(h^6) finite-difference Laplacian
    FFT axes: [0, 1]
    FST axes: [2]
 

XC parameters: BEEF-vdW with 2 nearest neighbor stencil

Memory estimate:
  Process memory now: 1652.17 MiB
  Calculator: 269.58 MiB
    Density: 14.94 MiB
      Arrays: 2.34 MiB
      Localized functions: 11.72 MiB
      Mixer: 0.89 MiB
    Hamiltonian: 2.48 MiB
      Arrays: 1.53 MiB
      XC: 0.00 MiB
      Poisson: 0.00 MiB
      vbar: 0.95 MiB
    Wavefunctions: 252.16 MiB
      Arrays psit_nG: 174.17 MiB
      Eigensolver: 75.37 MiB
      Projections: 0.49 MiB
      Projectors: 2.13 MiB

Total number of cores used: 40
Parallelization over k-points: 2
Domain decomposition: 2 x 2 x 5

Number of atoms: 36
Number of atomic orbitals: 972
Number of bands in calculation: 328
Number of valence electrons: 540
Bands to converge: occupied

... initialized

Initializing position-dependent things.

Density initialized from atomic densities
Creating initial wave functions:
  328 bands from LCAO basis set

                                            
                                            
                                            
                                            
                                            
          Ir     Ir     Ir                  
           IIr    IIr    IIr                
              Ir     Ir     Ir              
             Ir     Ir     Ir               
              IIr    IIr    IIr             
                                            
                Ir     Ir     Ir            
                  Ir     Ir     Ir          
          Ir     Ir     Ir                  
            Ir     Ir     Ir                
              Ir     Ir     Ir              
                                            
                                            
                                            
                                            

Positions:
   0 Ir     0.000000    0.000000    9.999999    ( 0.0000,  0.0000,  0.0000)
   1 Ir     1.378048    0.795616   12.250341    ( 0.0000,  0.0000,  0.0000)
   2 Ir     0.000000    1.592386   14.460828    ( 0.0000,  0.0000,  0.0000)
   3 Ir     0.000000   -0.000000   16.669904    ( 0.0000,  0.0000,  0.0000)
   4 Ir    -1.378048    2.386848    9.999999    ( 0.0000,  0.0000,  0.0000)
   5 Ir     0.000000    3.182464   12.250341    ( 0.0000,  0.0000,  0.0000)
   6 Ir    -1.378795    3.977649   14.461289    ( 0.0000,  0.0000,  0.0000)
   7 Ir    -1.377934    2.386749   16.674368    ( 0.0000,  0.0000,  0.0000)
   8 Ir    -2.756095    4.773697    9.999999    ( 0.0000,  0.0000,  0.0000)
   9 Ir    -1.378048    5.569313   12.250341    ( 0.0000,  0.0000,  0.0000)
  10 Ir    -2.755096    6.364352   14.460828    ( 0.0000,  0.0000,  0.0000)
  11 Ir    -2.756125    4.773845   16.674368    ( 0.0000,  0.0000,  0.0000)
  12 Ir     2.756095    0.000000    9.999999    ( 0.0000,  0.0000,  0.0000)
  13 Ir     4.134143    0.795616   12.250341    ( 0.0000,  0.0000,  0.0000)
  14 Ir     2.756900    1.591697   14.460969    ( 0.0000,  0.0000,  0.0000)
  15 Ir     2.755952   -0.000048   16.674368    ( 0.0000,  0.0000,  0.0000)
  16 Ir     1.378048    2.386848    9.999999    ( 0.0000,  0.0000,  0.0000)
  17 Ir     2.756095    3.182464   12.250341    ( 0.0000,  0.0000,  0.0000)
  18 Ir     1.378795    3.977649   14.461289    ( 0.0000,  0.0000,  0.0000)
  19 Ir     1.377934    2.386749   16.674368    ( 0.0000,  0.0000,  0.0000)
  20 Ir     0.000000    4.773697    9.999999    ( 0.0000,  0.0000,  0.0000)
  21 Ir     1.378048    5.569313   12.250341    ( 0.0000,  0.0000,  0.0000)
  22 Ir     0.000000    6.365791   14.461289    ( 0.0000,  0.0000,  0.0000)
  23 Ir     0.000000    4.773697   16.672467    ( 0.0000,  0.0000,  0.0000)
  24 Ir     5.512190    0.000000    9.999999    ( 0.0000,  0.0000,  0.0000)
  25 Ir     6.890238    0.795616   12.250341    ( 0.0000,  0.0000,  0.0000)
  26 Ir     5.511385    1.591697   14.460969    ( 0.0000,  0.0000,  0.0000)
  27 Ir     5.512333   -0.000048   16.674368    ( 0.0000,  0.0000,  0.0000)
  28 Ir     4.134143    2.386848    9.999999    ( 0.0000,  0.0000,  0.0000)
  29 Ir     5.512190    3.182464   12.250341    ( 0.0000,  0.0000,  0.0000)
  30 Ir     4.134143    3.977150   14.460969    ( 0.0000,  0.0000,  0.0000)
  31 Ir     4.134143    2.386848   16.673700    ( 0.0000,  0.0000,  0.0000)
  32 Ir     2.756095    4.773697    9.999999    ( 0.0000,  0.0000,  0.0000)
  33 Ir     4.134143    5.569313   12.250341    ( 0.0000,  0.0000,  0.0000)
  34 Ir     2.755096    6.364352   14.460828    ( 0.0000,  0.0000,  0.0000)
  35 Ir     2.756125    4.773845   16.674368    ( 0.0000,  0.0000,  0.0000)

Unit cell:
           periodic     x           y           z      points  spacing
  1. axis:    yes    8.268285    0.000000    0.000000    40     0.1790
  2. axis:    yes   -4.134143    7.160545    0.000000    40     0.1790
  3. axis:    no     0.000000    0.000000   26.751025   148     0.1808

  Lengths:   8.268285   8.268285  26.751025
  Angles:   90.000000  90.000000 120.000000

Effective grid spacing dv^(1/3) = 0.1884

     iter     time        total  log10-change:
                         energy  eigst   dens
iter:   1 11:00:54 -11721.105573
iter:   2 11:01:18 -11721.082174  -0.83  -1.48
iter:   3 11:01:42 -11722.465778  -1.60  -1.50
iter:   4 11:02:06 -11722.657227  -1.96  -1.50
iter:   5 11:02:30 -11722.224299  -1.07  -1.51
iter:   6 11:02:55 -11721.997668  -2.02  -1.95
iter:   7 11:03:19 -11722.304534  -2.51  -2.06
iter:   8 11:03:43 -11721.589804  -1.75  -2.01
iter:   9 11:04:07 -11721.571832  -2.27  -2.48
iter:  10 11:04:31 -11721.602796c -2.96  -2.73
iter:  11 11:04:55 -11721.560880c -3.11  -2.64
iter:  12 11:05:19 -11721.549912c -3.38  -2.91
iter:  13 11:05:43 -11721.550899c -3.86  -3.19
iter:  14 11:06:08 -11721.550227c -4.56  -3.24
iter:  15 11:06:32 -11721.550064c -4.93  -3.25
iter:  16 11:06:56 -11721.552013c -4.81  -3.28
iter:  17 11:07:20 -11721.550531c -4.66  -3.22
iter:  18 11:07:44 -11721.550724c -4.97  -3.61
iter:  19 11:08:08 -11721.550689c -5.72  -3.83
iter:  20 11:08:32 -11721.550741c -6.14  -3.84
iter:  21 11:08:56 -11721.550637c -5.60  -3.92
iter:  22 11:09:21 -11721.550885c -6.02  -4.23c
iter:  23 11:09:45 -11721.550790c -6.63  -4.01c
iter:  24 11:10:09 -11721.550785c -6.96  -4.38c
iter:  25 11:10:33 -11721.550824c -6.81  -4.47c
iter:  26 11:10:57 -11721.550793c -7.46c -4.68c

Converged after 26 iterations.

Dipole moment: (-4.365010, -7.589881, 0.011132) |e|*Ang

Energy contributions relative to reference atoms: (reference = -17441454.576081)

Kinetic:       +1075.087935
Potential:     -1029.357660
External:        +0.000000
XC:            -11760.128222
Entropy (-ST):   -1.491745
Local:           -6.406973
--------------------------
Free energy:   -11722.296666
Extrapolated:  -11721.550793

Showing only first 2 kpts
 Kpt  Band  Eigenvalues  Occupancy
  0   268     -5.75044    1.31917
  0   269     -5.71194    1.13737
  0   270     -5.71103    1.13290
  0   271     -5.61418    0.66314

  1   268     -5.72216    1.18710
  1   269     -5.63152    0.74210
  1   270     -5.63112    0.74022
  1   271     -5.58563    0.54316


Fermi level: -5.68429

No gap

Forces in eV/Ang:
  0 Ir    0.00000    0.00000    0.29055
  1 Ir    0.01644    0.00949   -0.32722
  2 Ir    0.00000   -0.00200   -0.00341
  3 Ir    0.00000    0.00000    0.02094
  4 Ir   -0.00187    0.00341    0.31687
  5 Ir    0.00000    0.00258   -0.31865
  6 Ir   -0.00073   -0.00042   -0.00558
  7 Ir   -0.00115    0.00066    0.02075
  8 Ir    0.00202   -0.00333    0.31687
  9 Ir    0.00224   -0.00129   -0.31865
 10 Ir   -0.00173    0.00100   -0.00341
 11 Ir   -0.00001   -0.00133    0.02075
 12 Ir    0.00389   -0.00009    0.31687
 13 Ir    0.00000   -0.01206   -0.33068
 14 Ir    0.00338    0.00195   -0.00055
 15 Ir    0.00115    0.00067    0.02075
 16 Ir    0.00187    0.00341    0.31687
 17 Ir   -0.01045    0.00603   -0.33068
 18 Ir    0.00073   -0.00042   -0.00558
 19 Ir    0.00115    0.00066    0.02075
 20 Ir    0.00000    0.00000    0.29692
 21 Ir   -0.00224   -0.00129   -0.31865
 22 Ir    0.00000    0.00085   -0.00558
 23 Ir    0.00000   -0.00000    0.02550
 24 Ir   -0.00389   -0.00009    0.31687
 25 Ir   -0.01644    0.00949   -0.32722
 26 Ir   -0.00338    0.00195   -0.00055
 27 Ir   -0.00115    0.00067    0.02075
 28 Ir    0.00000    0.00000    0.29827
 29 Ir    0.01045    0.00603   -0.33068
 30 Ir   -0.00000   -0.00390   -0.00055
 31 Ir    0.00000    0.00000    0.01869
 32 Ir   -0.00202   -0.00333    0.31687
 33 Ir   -0.00000   -0.01898   -0.32722
 34 Ir    0.00173    0.00100   -0.00341
 35 Ir    0.00001   -0.00133    0.02075

      Step     Time          Energy         fmax
BFGS:    0 11:11:12   -11721.550793        0.0255

  ___ ___ ___ _ _ _  
 |   |   |_  | | | | 
 | | | | | . | | | | 
 |__ |  _|___|_____|  22.8.0
 |___|_|             

User:   s204775@a118.nifl.fysik.dtu.dk
Date:   Thu Oct  5 11:11:12 2023
Arch:   x86_64
Pid:    222390
CWD:    /home/cat/s204775/projects/Bachelor_project/clean_slabs
Python: 3.10.4
gpaw:   /home/modules/software/GPAW/22.8.0-intel-2022a/lib/python3.10/site-packages/gpaw
_gpaw:  /home/modules/software/GPAW/22.8.0-intel-2022a/lib/python3.10/site-packages/
        _gpaw.cpython-310-x86_64-linux-gnu.so
ase:    /home/modules/software/ASE/3.22.1-intel-2022a/lib/python3.10/site-packages/ase (version 3.22.1)
numpy:  /home/modules/software/SciPy-bundle/2022.05-intel-2022a/lib/python3.10/site-packages/numpy (version 1.22.3)
scipy:  /home/modules/software/SciPy-bundle/2022.05-intel-2022a/lib/python3.10/site-packages/scipy (version 1.8.1)
libxc:  5.2.3
units:  Angstrom and eV
cores: 40
OpenMP: False
OMP_NUM_THREADS: 1

Input parameters:
  basis: dzp
  h: 0.18
  kpts: {size: (4, 4, 1)}
  maxiter: 3000
  xc: BEEF-vdW

System changes: positions, numbers, cell, pbc, initial_charges, initial_magmoms 

Initialize ...

species:
  Pt:
    name: Platinum
    id: 5ed695806aff0c961dba1a84acd7f4b2
    Z: 78.0
    valence: 16
    core: 62
    charge: 0.0
    file: /home/modules/software/GPAW-setups/0.9.20000/Pt.PBE.gz
    compensation charges: {type: gauss,
                           rc: 0.41,
                           lmax: 2}
    cutoffs: {filter: 2.26,
              core: 2.26}
    valence states:
      #              energy  rcut
      - 6s(1.00)    -5.628   1.307
      - 5p(6.00)   -56.051   1.371
      - 6p(0.00)    -0.845   1.371
      - 5d(9.00)    -6.153   1.307
      -  s          21.583   1.307
      -  d          21.058   1.307
  
    # LCAO basis set for Pt:
    #   Name: dzp
    #   File: /home/modules/software/GPAW-setups/0.9.20000/Pt.dzp.basis.gz
    #   Number of radial functions: 9
    #   Number of spherical harmonics: 27
    #     l=0, rc=8.5938 Bohr: 6s-sz confined orbital
    #     l=1, rc=3.5781 Bohr: 5p-sz confined orbital
    #     l=1, rc=13.6250 Bohr: 6p-sz confined orbital
    #     l=2, rc=6.0938 Bohr: 5d-sz confined orbital
    #     l=0, rc=5.0625 Bohr: 6s-dz split-valence wave
    #     l=1, rc=2.4219 Bohr: 5p-dz split-valence wave
    #     l=1, rc=8.3281 Bohr: 6p-dz split-valence wave
    #     l=2, rc=3.6406 Bohr: 5d-dz split-valence wave
    #     l=1, rc=8.5938 Bohr: p-type Gaussian polarization
    #   Number of RI-basis functions 0

Reference energy: -18013513.059628  # eV

Spin-paired calculation

Convergence criteria:
 Maximum [total energy] change in last 3 cyles: 0.0005 eV / electron
 Maximum integral of absolute [dens]ity change: 0.0001 electrons / valence electron
 Maximum integral of absolute [eigenst]ate change: 4e-08 eV^2 / valence electron
 Maximum number of scf [iter]ations: 3000
 (Square brackets indicate name in SCF output, whereas a 'c' in
 the SCF output indicates the quantity has converged.)

Symmetries present (total): 6

  ( 1  1  0)  ( 1  0  0)  ( 0  1  0)  ( 0 -1  0)  (-1  0  0)  (-1 -1  0)
  ( 0 -1  0)  ( 0  1  0)  (-1 -1  0)  (-1  0  0)  ( 1  1  0)  ( 1  0  0)
  ( 0  0  1)  ( 0  0  1)  ( 0  0  1)  ( 0  0  1)  ( 0  0  1)  ( 0  0  1)
Note: your k-points are not as symmetric as your crystal!

16 k-points: 4 x 4 x 1 Monkhorst-Pack grid
6 k-points in the irreducible part of the Brillouin zone
       k-points in crystal coordinates                weights
   0:     0.12500000   -0.12500000    0.00000000          2/16
   1:     0.12500000    0.12500000    0.00000000          2/16
   2:     0.37500000   -0.37500000    0.00000000          2/16
   3:     0.37500000   -0.12500000    0.00000000          4/16
   4:     0.37500000    0.12500000    0.00000000          4/16
   5:     0.37500000    0.37500000    0.00000000          2/16

Wave functions: Uniform real-space grid
  Kinetic energy operator: 8*3+1=25 point O(h^6) finite-difference Laplacian
  ScaLapack parameters: grid=1x1, blocksize=None
  Wavefunction extrapolation:
    Improved wavefunction reuse through dual PAW basis 

Occupation numbers: Fermi-Dirac:
  width: 0.1000  # eV
 

Eigensolver
   Davidson(niter=2) 

Densities:
  Coarse grid: 40*40*148 grid
  Fine grid: 80*80*296 grid
  Total Charge: 0.000000 

Density mixing:
  Method: separate
  Backend: pulay
  Linear mixing parameter: 0.05
  old densities: 5
  Damping of long wavelength oscillations: 50 

Hamiltonian:
  XC and Coulomb potentials evaluated on a 80*80*296 grid
  Using the BEEF-vdW Exchange-Correlation functional
  Interpolation: tri-quintic (5. degree polynomial)
  Poisson solver: FastPoissonSolver using
    Stencil: 8*3+1=25 point O(h^6) finite-difference Laplacian
    FFT axes: [0, 1]
    FST axes: [2]
 

XC parameters: BEEF-vdW with 2 nearest neighbor stencil

Memory estimate:
  Process memory now: 2016.44 MiB
  Calculator: 287.10 MiB
    Density: 15.24 MiB
      Arrays: 2.34 MiB
      Localized functions: 12.02 MiB
      Mixer: 0.89 MiB
    Hamiltonian: 2.27 MiB
      Arrays: 1.53 MiB
      XC: 0.00 MiB
      Poisson: 0.00 MiB
      vbar: 0.74 MiB
    Wavefunctions: 269.59 MiB
      Arrays psit_nG: 185.85 MiB
      Eigensolver: 81.54 MiB
      Projections: 0.52 MiB
      Projectors: 1.68 MiB

Total number of cores used: 40
Parallelization over k-points: 2
Domain decomposition: 2 x 2 x 5

Number of atoms: 36
Number of atomic orbitals: 972
Number of bands in calculation: 350
Number of valence electrons: 576
Bands to converge: occupied

... initialized

Initializing position-dependent things.

Density initialized from atomic densities
Creating initial wave functions:
  350 bands from LCAO basis set

                                            
                                            
                                            
                                            
          Pt     Pt     Pt                  
                                            
           PPt    PPt    PPt                
              Pt     Pt     Pt              
             Pt     Pt     Pt               
              PPt    PPt    PPt             
                                            
                Pt     Pt     Pt            
                  Pt     Pt     Pt          
          Pt     Pt     Pt                  
            Pt     Pt     Pt                
              Pt     Pt     Pt              
                                            
                                            
                                            
                                            

Positions:
   0 Pt     0.000000    0.000000    9.999999    ( 0.0000,  0.0000,  0.0000)
   1 Pt     1.419843    0.819746   12.318592    ( 0.0000,  0.0000,  0.0000)
   2 Pt    -0.000000    1.640639   14.624752    ( 0.0000,  0.0000,  0.0000)
   3 Pt     0.000000    0.000000   16.964617    ( 0.0000,  0.0000,  0.0000)
   4 Pt    -1.419843    2.459239    9.999999    ( 0.0000,  0.0000,  0.0000)
   5 Pt     0.000000    3.278986   12.318592    ( 0.0000,  0.0000,  0.0000)
   6 Pt    -1.421365    4.097854   14.620818    ( 0.0000,  0.0000,  0.0000)
   7 Pt    -1.420304    2.459321   16.958214    ( 0.0000,  0.0000,  0.0000)
   8 Pt    -2.839685    4.918479    9.999999    ( 0.0000,  0.0000,  0.0000)
   9 Pt    -1.419843    5.738225   12.318592    ( 0.0000,  0.0000,  0.0000)
  10 Pt    -2.838693    6.557399   14.624752    ( 0.0000,  0.0000,  0.0000)
  11 Pt    -2.839845    4.918039   16.958214    ( 0.0000,  0.0000,  0.0000)
  12 Pt     2.839685    0.000000    9.999999    ( 0.0000,  0.0000,  0.0000)
  13 Pt     4.259528    0.819746   12.318592    ( 0.0000,  0.0000,  0.0000)
  14 Pt     2.839698    1.639501   14.619309    ( 0.0000,  0.0000,  0.0000)
  15 Pt     2.839987    0.000358   16.958214    ( 0.0000,  0.0000,  0.0000)
  16 Pt     1.419843    2.459239    9.999999    ( 0.0000,  0.0000,  0.0000)
  17 Pt     2.839685    3.278986   12.318592    ( 0.0000,  0.0000,  0.0000)
  18 Pt     1.421365    4.097854   14.620818    ( 0.0000,  0.0000,  0.0000)
  19 Pt     1.420304    2.459321   16.958214    ( 0.0000,  0.0000,  0.0000)
  20 Pt     0.000000    4.918479    9.999999    ( 0.0000,  0.0000,  0.0000)
  21 Pt     1.419843    5.738225   12.318592    ( 0.0000,  0.0000,  0.0000)
  22 Pt    -0.000000    6.559730   14.620818    ( 0.0000,  0.0000,  0.0000)
  23 Pt    -0.000000    4.918479   16.949331    ( 0.0000,  0.0000,  0.0000)
  24 Pt     5.679370    0.000000    9.999999    ( 0.0000,  0.0000,  0.0000)
  25 Pt     7.099213    0.819746   12.318592    ( 0.0000,  0.0000,  0.0000)
  26 Pt     5.679357    1.639501   14.619309    ( 0.0000,  0.0000,  0.0000)
  27 Pt     5.679069    0.000358   16.958214    ( 0.0000,  0.0000,  0.0000)
  28 Pt     4.259528    2.459239    9.999999    ( 0.0000,  0.0000,  0.0000)
  29 Pt     5.679370    3.278986   12.318592    ( 0.0000,  0.0000,  0.0000)
  30 Pt     4.259528    4.098717   14.619309    ( 0.0000,  0.0000,  0.0000)
  31 Pt     4.259528    2.459239   16.950151    ( 0.0000,  0.0000,  0.0000)
  32 Pt     2.839685    4.918479    9.999999    ( 0.0000,  0.0000,  0.0000)
  33 Pt     4.259528    5.738225   12.318592    ( 0.0000,  0.0000,  0.0000)
  34 Pt     2.838693    6.557399   14.624752    ( 0.0000,  0.0000,  0.0000)
  35 Pt     2.839845    4.918039   16.958214    ( 0.0000,  0.0000,  0.0000)

Unit cell:
           periodic     x           y           z      points  spacing
  1. axis:    yes    8.519055    0.000000    0.000000    40     0.1844
  2. axis:    yes   -4.259528    7.377718    0.000000    40     0.1844
  3. axis:    no     0.000000    0.000000   26.955778   148     0.1821

  Lengths:   8.519055   8.519055  26.955778
  Angles:   90.000000  90.000000 120.000000

Effective grid spacing dv^(1/3) = 0.1927

     iter     time        total  log10-change:
                         energy  eigst   dens
iter:   1 11:12:01 -11889.545186
iter:   2 11:12:25 -11886.759309  -0.80  -1.38
iter:   3 11:12:49 -11884.755284  -1.57  -1.45
iter:   4 11:13:12 -11908.469284  -1.12  -1.48
iter:   5 11:13:36 -11881.415106  -1.26  -1.38
iter:   6 11:14:00 -11879.747326  -1.87  -1.77
iter:   7 11:14:23 -11879.694249  -2.61  -1.84
iter:   8 11:14:47 -11879.981332c -1.85  -1.90
iter:   9 11:15:11 -11879.022269  -2.25  -2.00
iter:  10 11:15:34 -11878.999640  -3.26  -2.20
iter:  11 11:15:58 -11878.979814c -2.98  -2.24
iter:  12 11:16:22 -11879.011439c -2.45  -2.32
iter:  13 11:16:45 -11878.957553c -3.40  -2.58
iter:  14 11:17:09 -11878.936385c -3.05  -2.71
iter:  15 11:17:33 -11878.938181c -3.48  -2.98
iter:  16 11:17:56 -11878.932349c -3.79  -3.04
iter:  17 11:18:20 -11878.931401c -4.36  -3.36
iter:  18 11:18:43 -11878.930723c -5.07  -3.48
iter:  19 11:19:07 -11878.930483c -5.34  -3.52
iter:  20 11:19:31 -11878.932190c -5.56  -3.55
iter:  21 11:19:54 -11878.930271c -5.36  -3.40
iter:  22 11:20:18 -11878.930308c -5.57  -3.66
iter:  23 11:20:42 -11878.930399c -5.46  -3.81
iter:  24 11:21:05 -11878.930476c -6.16  -3.86
iter:  25 11:21:29 -11878.930666c -5.96  -3.90
iter:  26 11:21:53 -11878.930731c -6.40  -4.33c
iter:  27 11:22:16 -11878.930719c -6.90  -4.32c
iter:  28 11:22:40 -11878.930612c -7.24  -4.40c
iter:  29 11:23:04 -11878.930562c -7.18  -4.63c
iter:  30 11:23:27 -11878.930541c -7.40c -4.79c

Converged after 30 iterations.

Dipole moment: (-4.186579, -7.324719, -0.003594) |e|*Ang

Energy contributions relative to reference atoms: (reference = -18013513.059628)

Kinetic:       +782.807732
Potential:     -803.418707
External:        +0.000000
XC:            -11837.642279
Entropy (-ST):   -2.349832
Local:          -19.502371
--------------------------
Free energy:   -11880.105457
Extrapolated:  -11878.930541

Showing only first 2 kpts
 Kpt  Band  Eigenvalues  Occupancy
  0   286     -6.05067    1.83120
  0   287     -5.95233    1.60453
  0   288     -5.92974    1.52799
  0   289     -5.92962    1.52754

  1   286     -5.87739    1.31453
  1   287     -5.85702    1.22009
  1   288     -5.85596    1.21502
  1   289     -5.84116    1.14346


Fermi level: -5.81227

No gap

Forces in eV/Ang:
  0 Pt    0.00000    0.00000   -0.13775
  1 Pt    0.01719    0.00993    0.09280
  2 Pt    0.00000   -0.00656   -0.00991
  3 Pt    0.00000    0.00000    0.02607
  4 Pt   -0.00384    0.00822   -0.11286
  5 Pt    0.00000   -0.00146    0.12216
  6 Pt    0.00073    0.00042   -0.01610
  7 Pt   -0.00243    0.00084    0.02062
  8 Pt    0.00520   -0.00743   -0.11286
  9 Pt   -0.00126    0.00073    0.12216
 10 Pt   -0.00568    0.00328   -0.00991
 11 Pt   -0.00049   -0.00252    0.02062
 12 Pt    0.00904   -0.00079   -0.11286
 13 Pt    0.00000   -0.01259    0.08588
 14 Pt    0.00054    0.00031   -0.01019
 15 Pt    0.00194    0.00168    0.02062
 16 Pt    0.00384    0.00822   -0.11286
 17 Pt   -0.01090    0.00630    0.08588
 18 Pt   -0.00073    0.00042   -0.01610
 19 Pt    0.00243    0.00084    0.02062
 20 Pt    0.00000    0.00000   -0.07428
 21 Pt    0.00126    0.00073    0.12216
 22 Pt    0.00000   -0.00084   -0.01610
 23 Pt    0.00000    0.00000    0.02512
 24 Pt   -0.00904   -0.00079   -0.11286
 25 Pt   -0.01719    0.00993    0.09280
 26 Pt   -0.00054    0.00031   -0.01019
 27 Pt   -0.00194    0.00168    0.02062
 28 Pt    0.00000    0.00000   -0.07410
 29 Pt    0.01090    0.00630    0.08588
 30 Pt   -0.00000   -0.00062   -0.01019
 31 Pt   -0.00000    0.00000    0.02075
 32 Pt   -0.00520   -0.00743   -0.11286
 33 Pt   -0.00000   -0.01985    0.09280
 34 Pt    0.00568    0.00328   -0.00991
 35 Pt    0.00049   -0.00252    0.02062

      Step     Time          Energy         fmax
BFGS:    0 11:23:40   -11878.930541        0.0261

  ___ ___ ___ _ _ _  
 |   |   |_  | | | | 
 | | | | | . | | | | 
 |__ |  _|___|_____|  22.8.0
 |___|_|             

User:   s204775@a118.nifl.fysik.dtu.dk
Date:   Thu Oct  5 11:23:40 2023
Arch:   x86_64
Pid:    222390
CWD:    /home/cat/s204775/projects/Bachelor_project/clean_slabs
Python: 3.10.4
gpaw:   /home/modules/software/GPAW/22.8.0-intel-2022a/lib/python3.10/site-packages/gpaw
_gpaw:  /home/modules/software/GPAW/22.8.0-intel-2022a/lib/python3.10/site-packages/
        _gpaw.cpython-310-x86_64-linux-gnu.so
ase:    /home/modules/software/ASE/3.22.1-intel-2022a/lib/python3.10/site-packages/ase (version 3.22.1)
numpy:  /home/modules/software/SciPy-bundle/2022.05-intel-2022a/lib/python3.10/site-packages/numpy (version 1.22.3)
scipy:  /home/modules/software/SciPy-bundle/2022.05-intel-2022a/lib/python3.10/site-packages/scipy (version 1.8.1)
libxc:  5.2.3
units:  Angstrom and eV
cores: 40
OpenMP: False
OMP_NUM_THREADS: 1

Input parameters:
  basis: dzp
  h: 0.18
  kpts: {size: (4, 4, 1)}
  maxiter: 3000
  xc: BEEF-vdW

System changes: positions, numbers, cell, pbc, initial_charges, initial_magmoms 

Initialize ...

species:
  Au:
    name: Gold
    id: b12133f335f6ca0d89c4b1ccaa844e9a
    Z: 79.0
    valence: 11
    core: 68
    charge: 0.0
    file: /home/modules/software/GPAW-setups/0.9.20000/Au.PBE.gz
    compensation charges: {type: gauss,
                           rc: 0.42,
                           lmax: 2}
    cutoffs: {filter: 2.33,
              core: 2.81}
    valence states:
      #              energy  rcut
      - 6s(1.00)    -5.728   1.323
      - 6p(0.00)    -0.775   1.323
      - 5d(10.00)    -6.891   1.323
      -  s          21.484   1.323
      -  p          26.436   1.323
      -  d          20.321   1.323
  
    # LCAO basis set for Au:
    #   Name: dzp
    #   File: /home/modules/software/GPAW-setups/0.9.20000/Au.dzp.basis.gz
    #   Number of radial functions: 5
    #   Number of spherical harmonics: 15
    #     l=0, rc=8.5938 Bohr: 6s-sz confined orbital
    #     l=2, rc=5.9219 Bohr: 5d-sz confined orbital
    #     l=0, rc=4.9844 Bohr: 6s-dz split-valence wave
    #     l=2, rc=3.5156 Bohr: 5d-dz split-valence wave
    #     l=1, rc=8.5938 Bohr: p-type Gaussian polarization
    #   Number of RI-basis functions 0

Reference energy: -18597537.759934  # eV

Spin-paired calculation

Convergence criteria:
 Maximum [total energy] change in last 3 cyles: 0.0005 eV / electron
 Maximum integral of absolute [dens]ity change: 0.0001 electrons / valence electron
 Maximum integral of absolute [eigenst]ate change: 4e-08 eV^2 / valence electron
 Maximum number of scf [iter]ations: 3000
 (Square brackets indicate name in SCF output, whereas a 'c' in
 the SCF output indicates the quantity has converged.)

Symmetries present (total): 6

  ( 1  1  0)  ( 1  0  0)  ( 0  1  0)  ( 0 -1  0)  (-1  0  0)  (-1 -1  0)
  ( 0 -1  0)  ( 0  1  0)  (-1 -1  0)  (-1  0  0)  ( 1  1  0)  ( 1  0  0)
  ( 0  0  1)  ( 0  0  1)  ( 0  0  1)  ( 0  0  1)  ( 0  0  1)  ( 0  0  1)
Note: your k-points are not as symmetric as your crystal!

16 k-points: 4 x 4 x 1 Monkhorst-Pack grid
6 k-points in the irreducible part of the Brillouin zone
       k-points in crystal coordinates                weights
   0:     0.12500000   -0.12500000    0.00000000          2/16
   1:     0.12500000    0.12500000    0.00000000          2/16
   2:     0.37500000   -0.37500000    0.00000000          2/16
   3:     0.37500000   -0.12500000    0.00000000          4/16
   4:     0.37500000    0.12500000    0.00000000          4/16
   5:     0.37500000    0.37500000    0.00000000          2/16

Wave functions: Uniform real-space grid
  Kinetic energy operator: 8*3+1=25 point O(h^6) finite-difference Laplacian
  ScaLapack parameters: grid=1x1, blocksize=None
  Wavefunction extrapolation:
    Improved wavefunction reuse through dual PAW basis 

Occupation numbers: Fermi-Dirac:
  width: 0.1000  # eV
 

Eigensolver
   Davidson(niter=2) 

Densities:
  Coarse grid: 44*44*152 grid
  Fine grid: 88*88*304 grid
  Total Charge: 0.000000 

Density mixing:
  Method: separate
  Backend: pulay
  Linear mixing parameter: 0.05
  old densities: 5
  Damping of long wavelength oscillations: 50 

Hamiltonian:
  XC and Coulomb potentials evaluated on a 88*88*304 grid
  Using the BEEF-vdW Exchange-Correlation functional
  Interpolation: tri-quintic (5. degree polynomial)
  Poisson solver: FastPoissonSolver using
    Stencil: 8*3+1=25 point O(h^6) finite-difference Laplacian
    FFT axes: [0, 1]
    FST axes: [2]
 

XC parameters: BEEF-vdW with 2 nearest neighbor stencil

Memory estimate:
  Process memory now: 2419.07 MiB
  Calculator: 245.68 MiB
    Density: 16.01 MiB
      Arrays: 2.88 MiB
      Localized functions: 12.02 MiB
      Mixer: 1.11 MiB
    Hamiltonian: 2.78 MiB
      Arrays: 1.88 MiB
      XC: 0.00 MiB
      Poisson: 0.00 MiB
      vbar: 0.90 MiB
    Wavefunctions: 226.89 MiB
      Arrays psit_nG: 160.85 MiB
      Eigensolver: 63.67 MiB
      Projections: 0.36 MiB
      Projectors: 2.01 MiB

Total number of cores used: 40
Parallelization over k-points: 2
Domain decomposition: 2 x 2 x 5

Number of atoms: 36
Number of atomic orbitals: 540
Number of bands in calculation: 242
Number of valence electrons: 396
Bands to converge: occupied

... initialized

Initializing position-dependent things.

Density initialized from atomic densities
Creating initial wave functions:
  242 bands from LCAO basis set

                                               
                                               
                                               
                                               
                                               
           Au     Au     Au                    
                                               
            AAu    AAu     AAu                 
              AAu    AAu     AAu               
                                               
               AAu    AAu     AAu              
                                               
                 Au     Au      Au             
                                               
           Au     AAu    AAu      Au           
                                               
             Au     Au      Au                 
               Au     Au      Au               
                                               
                                               
                                               
                                               

Positions:
   0 Au     0.000000    0.000000    9.999999    ( 0.0000,  0.0000,  0.0000)
   1 Au     1.496891    0.864230   12.444412    ( 0.0000,  0.0000,  0.0000)
   2 Au    -0.000000    1.740301   14.871092    ( 0.0000,  0.0000,  0.0000)
   3 Au    -0.000000    0.000000   17.354004    ( 0.0000,  0.0000,  0.0000)
   4 Au    -1.496891    2.592691    9.999999    ( 0.0000,  0.0000,  0.0000)
   5 Au    -0.000000    3.456922   12.444412    ( 0.0000,  0.0000,  0.0000)
   6 Au    -1.501435    4.318529   14.890878    ( 0.0000,  0.0000,  0.0000)
   7 Au    -1.494007    2.589800   17.376551    ( 0.0000,  0.0000,  0.0000)
   8 Au    -2.993782    5.185383    9.999999    ( 0.0000,  0.0000,  0.0000)
   9 Au    -1.496891    6.049613   12.444412    ( 0.0000,  0.0000,  0.0000)
  10 Au    -2.983528    6.907923   14.871092    ( 0.0000,  0.0000,  0.0000)
  11 Au    -2.994844    5.189326   17.376551    ( 0.0000,  0.0000,  0.0000)
  12 Au     2.993782    0.000000    9.999999    ( 0.0000,  0.0000,  0.0000)
  13 Au     4.490673    0.864230   12.444412    ( 0.0000,  0.0000,  0.0000)
  14 Au     2.992384    1.727654   14.893737    ( 0.0000,  0.0000,  0.0000)
  15 Au     2.989836   -0.001052   17.376551    ( 0.0000,  0.0000,  0.0000)
  16 Au     1.496891    2.592691    9.999999    ( 0.0000,  0.0000,  0.0000)
  17 Au     2.993782    3.456922   12.444412    ( 0.0000,  0.0000,  0.0000)
  18 Au     1.501435    4.318529   14.890878    ( 0.0000,  0.0000,  0.0000)
  19 Au     1.494007    2.589800   17.376551    ( 0.0000,  0.0000,  0.0000)
  20 Au    -0.000000    5.185383    9.999999    ( 0.0000,  0.0000,  0.0000)
  21 Au     1.496891    6.049613   12.444412    ( 0.0000,  0.0000,  0.0000)
  22 Au    -0.000000    6.919091   14.890878    ( 0.0000,  0.0000,  0.0000)
  23 Au    -0.000000    5.185383   17.386406    ( 0.0000,  0.0000,  0.0000)
  24 Au     5.987564    0.000000    9.999999    ( 0.0000,  0.0000,  0.0000)
  25 Au     7.484455    0.864230   12.444412    ( 0.0000,  0.0000,  0.0000)
  26 Au     5.988962    1.727654   14.893737    ( 0.0000,  0.0000,  0.0000)
  27 Au     5.991510   -0.001052   17.376551    ( 0.0000,  0.0000,  0.0000)
  28 Au     4.490673    2.592691    9.999999    ( 0.0000,  0.0000,  0.0000)
  29 Au     5.987564    3.456922   12.444412    ( 0.0000,  0.0000,  0.0000)
  30 Au     4.490673    4.322767   14.893737    ( 0.0000,  0.0000,  0.0000)
  31 Au     4.490673    2.592691   17.388532    ( 0.0000,  0.0000,  0.0000)
  32 Au     2.993782    5.185383    9.999999    ( 0.0000,  0.0000,  0.0000)
  33 Au     4.490673    6.049613   12.444412    ( 0.0000,  0.0000,  0.0000)
  34 Au     2.983528    6.907923   14.871092    ( 0.0000,  0.0000,  0.0000)
  35 Au     2.994844    5.189326   17.376551    ( 0.0000,  0.0000,  0.0000)

Unit cell:
           periodic     x           y           z      points  spacing
  1. axis:    yes    8.981346    0.000000    0.000000    44     0.1768
  2. axis:    yes   -4.490673    7.778074    0.000000    44     0.1768
  3. axis:    no     0.000000    0.000000   27.333237   152     0.1798

  Lengths:   8.981346   8.981346  27.333237
  Angles:   90.000000  90.000000 120.000000

Effective grid spacing dv^(1/3) = 0.1865

     iter     time        total  log10-change:
                         energy  eigst   dens
iter:   1 11:24:11 -12035.220666
iter:   2 11:24:30 -12034.083207  -0.63  -1.31
iter:   3 11:24:48 -12031.481066  -0.99  -1.33
iter:   4 11:25:07 -12028.937819  -0.92  -1.41
iter:   5 11:25:25 -12029.050209  -1.66  -1.71
iter:   6 11:25:44 -12029.656215  -1.64  -1.76
iter:   7 11:26:02 -12029.226503  -1.29  -1.76
iter:   8 11:26:21 -12029.456668  -1.84  -2.29
iter:   9 11:26:40 -12029.464515  -2.84  -2.14
iter:  10 11:26:58 -12029.118638  -1.89  -2.12
iter:  11 11:27:17 -12029.076410  -2.36  -2.54
iter:  12 11:27:35 -12029.067189c -3.31  -2.93
iter:  13 11:27:54 -12029.067706c -3.35  -2.95
iter:  14 11:28:12 -12029.068179c -4.06  -3.10
iter:  15 11:28:31 -12029.070206c -4.04  -3.08
iter:  16 11:28:50 -12029.068848c -4.09  -3.04
iter:  17 11:29:08 -12029.068218c -4.82  -3.09
iter:  18 11:29:27 -12029.065732c -4.64  -3.09
iter:  19 11:29:45 -12029.063681c -4.06  -3.18
iter:  20 11:30:04 -12029.063859c -4.75  -3.39
iter:  21 11:30:22 -12029.064220c -4.74  -3.47
iter:  22 11:30:41 -12029.063700c -4.81  -3.58
iter:  23 11:31:00 -12029.063763c -5.77  -3.68
iter:  24 11:31:18 -12029.064180c -5.19  -3.75
iter:  25 11:31:37 -12029.063977c -5.84  -3.76
iter:  26 11:31:55 -12029.063886c -5.98  -3.89
iter:  27 11:32:14 -12029.063867c -5.81  -4.07c
iter:  28 11:32:33 -12029.063826c -6.34  -4.36c
iter:  29 11:32:51 -12029.063816c -7.05  -4.46c
iter:  30 11:33:10 -12029.063797c -6.78  -4.52c
iter:  31 11:33:28 -12029.063771c -6.95  -4.54c
iter:  32 11:33:47 -12029.063767c -7.34  -4.68c
iter:  33 11:34:05 -12029.063786c -7.25  -4.72c
iter:  34 11:34:24 -12029.063783c -7.83c -4.84c

Converged after 34 iterations.

Dipole moment: (-4.181952, -7.194653, -0.015941) |e|*Ang

Energy contributions relative to reference atoms: (reference = -18597537.759934)

Kinetic:       +669.569121
Potential:     -675.096111
External:        +0.000000
XC:            -12027.507680
Entropy (-ST):   -0.357773
Local:           +4.149774
--------------------------
Free energy:   -12029.242669
Extrapolated:  -12029.063783

Showing only first 2 kpts
 Kpt  Band  Eigenvalues  Occupancy
  0   196     -6.23809    1.99960
  0   197     -6.09224    1.99828
  0   198     -6.08756    1.99820
  0   199     -5.56378    1.70934

  1   196     -6.28555    1.99975
  1   197     -6.09141    1.99826
  1   198     -5.68560    1.90424
  1   199     -5.68080    1.89977


Fermi level: -5.38661

No gap

Forces in eV/Ang:
  0 Au   -0.00000   -0.00000   -0.16692
  1 Au    0.01080    0.00624    0.13509
  2 Au    0.00000   -0.00223    0.00484
  3 Au    0.00000    0.00000    0.00458
  4 Au    0.00487   -0.00816   -0.12690
  5 Au   -0.00000    0.00774    0.07879
  6 Au    0.00263    0.00152    0.00545
  7 Au   -0.00121    0.00068    0.00605
  8 Au   -0.00463    0.00830   -0.12690
  9 Au    0.00670   -0.00387    0.07879
 10 Au   -0.00193    0.00111    0.00484
 11 Au   -0.00001   -0.00138    0.00605
 12 Au   -0.00950   -0.00014   -0.12690
 13 Au    0.00000   -0.01982    0.12502
 14 Au    0.00138    0.00080    0.00665
 15 Au    0.00119    0.00070    0.00605
 16 Au   -0.00487   -0.00816   -0.12690
 17 Au   -0.01717    0.00991    0.12502
 18 Au   -0.00263    0.00152    0.00545
 19 Au    0.00121    0.00068    0.00605
 20 Au    0.00000   -0.00000   -0.07922
 21 Au   -0.00670   -0.00387    0.07879
 22 Au    0.00000   -0.00304    0.00545
 23 Au   -0.00000    0.00000    0.00454
 24 Au    0.00950   -0.00014   -0.12690
 25 Au   -0.01080    0.00624    0.13509
 26 Au   -0.00138    0.00080    0.00665
 27 Au   -0.00119    0.00070    0.00605
 28 Au   -0.00000   -0.00000   -0.08224
 29 Au    0.01717    0.00991    0.12502
 30 Au    0.00000   -0.00159    0.00665
 31 Au    0.00000    0.00000    0.00595
 32 Au    0.00463    0.00830   -0.12690
 33 Au    0.00000   -0.01247    0.13509
 34 Au    0.00193    0.00111    0.00484
 35 Au    0.00001   -0.00138    0.00605

      Step     Time          Energy         fmax
BFGS:    0 11:34:34   -12029.063783        0.0068

  ___ ___ ___ _ _ _  
 |   |   |_  | | | | 
 | | | | | . | | | | 
 |__ |  _|___|_____|  22.8.0
 |___|_|             

User:   s204775@a118.nifl.fysik.dtu.dk
Date:   Thu Oct  5 11:34:35 2023
Arch:   x86_64
Pid:    222390
CWD:    /home/cat/s204775/projects/Bachelor_project/clean_slabs
Python: 3.10.4
gpaw:   /home/modules/software/GPAW/22.8.0-intel-2022a/lib/python3.10/site-packages/gpaw
_gpaw:  /home/modules/software/GPAW/22.8.0-intel-2022a/lib/python3.10/site-packages/
        _gpaw.cpython-310-x86_64-linux-gnu.so
ase:    /home/modules/software/ASE/3.22.1-intel-2022a/lib/python3.10/site-packages/ase (version 3.22.1)
numpy:  /home/modules/software/SciPy-bundle/2022.05-intel-2022a/lib/python3.10/site-packages/numpy (version 1.22.3)
scipy:  /home/modules/software/SciPy-bundle/2022.05-intel-2022a/lib/python3.10/site-packages/scipy (version 1.8.1)
libxc:  5.2.3
units:  Angstrom and eV
cores: 40
OpenMP: False
OMP_NUM_THREADS: 1

Input parameters:
  basis: dzp
  h: 0.18
  kpts: {size: (4, 4, 1)}
  maxiter: 3000
  xc: BEEF-vdW

System changes: positions, numbers, cell, pbc, initial_charges, initial_magmoms 

Initialize ...

species:
  Cu:
    name: Copper
    id: f1c4d45d90492f1bbfdcb091e8418fdf
    Z: 29.0
    valence: 11
    core: 18
    charge: 0.0
    file: /home/modules/software/GPAW-setups/0.9.20000/Cu.PBE.gz
    compensation charges: {type: gauss,
                           rc: 0.33,
                           lmax: 2}
    cutoffs: {filter: 2.06,
              core: 2.43}
    valence states:
      #              energy  rcut
      - 4s(1.00)    -4.609   1.164
      - 4p(0.00)    -0.698   1.164
      - 3d(10.00)    -5.039   1.058
      -  s          22.603   1.164
      -  p          26.513   1.164
      -  d          22.172   1.058
  
    # LCAO basis set for Cu:
    #   Name: dzp
    #   File: /home/modules/software/GPAW-setups/0.9.20000/Cu.dzp.basis.gz
    #   Number of radial functions: 5
    #   Number of spherical harmonics: 15
    #     l=0, rc=8.9688 Bohr: 4s-sz confined orbital
    #     l=2, rc=5.1719 Bohr: 3d-sz confined orbital
    #     l=0, rc=5.3281 Bohr: 4s-dz split-valence wave
    #     l=2, rc=3.1406 Bohr: 3d-dz split-valence wave
    #     l=1, rc=8.9688 Bohr: p-type Gaussian polarization
    #   Number of RI-basis functions 0

Reference energy: -1620772.266280  # eV

Spin-paired calculation

Convergence criteria:
 Maximum [total energy] change in last 3 cyles: 0.0005 eV / electron
 Maximum integral of absolute [dens]ity change: 0.0001 electrons / valence electron
 Maximum integral of absolute [eigenst]ate change: 4e-08 eV^2 / valence electron
 Maximum number of scf [iter]ations: 3000
 (Square brackets indicate name in SCF output, whereas a 'c' in
 the SCF output indicates the quantity has converged.)

Symmetries present (total): 6

  ( 1  1  0)  ( 1  0  0)  ( 0  1  0)  ( 0 -1  0)  (-1  0  0)  (-1 -1  0)
  ( 0 -1  0)  ( 0  1  0)  (-1 -1  0)  (-1  0  0)  ( 1  1  0)  ( 1  0  0)
  ( 0  0  1)  ( 0  0  1)  ( 0  0  1)  ( 0  0  1)  ( 0  0  1)  ( 0  0  1)
Note: your k-points are not as symmetric as your crystal!

16 k-points: 4 x 4 x 1 Monkhorst-Pack grid
6 k-points in the irreducible part of the Brillouin zone
       k-points in crystal coordinates                weights
   0:     0.12500000   -0.12500000    0.00000000          2/16
   1:     0.12500000    0.12500000    0.00000000          2/16
   2:     0.37500000   -0.37500000    0.00000000          2/16
   3:     0.37500000   -0.12500000    0.00000000          4/16
   4:     0.37500000    0.12500000    0.00000000          4/16
   5:     0.37500000    0.37500000    0.00000000          2/16

Wave functions: Uniform real-space grid
  Kinetic energy operator: 8*3+1=25 point O(h^6) finite-difference Laplacian
  ScaLapack parameters: grid=1x1, blocksize=None
  Wavefunction extrapolation:
    Improved wavefunction reuse through dual PAW basis 

Occupation numbers: Fermi-Dirac:
  width: 0.1000  # eV
 

Eigensolver
   Davidson(niter=2) 

Densities:
  Coarse grid: 36*36*148 grid
  Fine grid: 72*72*296 grid
  Total Charge: 0.000000 

Density mixing:
  Method: separate
  Backend: pulay
  Linear mixing parameter: 0.05
  old densities: 5
  Damping of long wavelength oscillations: 50 

Hamiltonian:
  XC and Coulomb potentials evaluated on a 72*72*296 grid
  Using the BEEF-vdW Exchange-Correlation functional
  Interpolation: tri-quintic (5. degree polynomial)
  Poisson solver: FastPoissonSolver using
    Stencil: 8*3+1=25 point O(h^6) finite-difference Laplacian
    FFT axes: [0, 1]
    FST axes: [2]
 

XC parameters: BEEF-vdW with 2 nearest neighbor stencil

Memory estimate:
  Process memory now: 2860.20 MiB
  Calculator: 161.73 MiB
    Density: 9.90 MiB
      Arrays: 1.89 MiB
      Localized functions: 7.29 MiB
      Mixer: 0.72 MiB
    Hamiltonian: 1.79 MiB
      Arrays: 1.24 MiB
      XC: 0.00 MiB
      Poisson: 0.00 MiB
      vbar: 0.55 MiB
    Wavefunctions: 150.04 MiB
      Arrays psit_nG: 104.09 MiB
      Eigensolver: 44.36 MiB
      Projections: 0.36 MiB
      Projectors: 1.24 MiB

Total number of cores used: 40
Parallelization over k-points: 2
Domain decomposition: 2 x 2 x 5

Number of atoms: 36
Number of atomic orbitals: 540
Number of bands in calculation: 242
Number of valence electrons: 396
Bands to converge: occupied

... initialized

Initializing position-dependent things.

Density initialized from atomic densities
Creating initial wave functions:
  242 bands from LCAO basis set

                                          
                                          
                                          
                                          
                                          
          Cu    Cu    Cu                  
           CCu   CCu   CCu                
             Cu     Cu    Cu              
             Cu    Cu    Cu               
             CCu    CCu   CCu             
                                          
               Cu     Cu    Cu            
                 Cu    Cu     Cu          
          Cu    Cu    Cu                  
            Cu    Cu    Cu                
             Cu     Cu    Cu              
                                          
                                          
                                          
                                          

Positions:
   0 Cu     0.000000    0.000000    9.999999    ( 0.0000,  0.0000,  0.0000)
   1 Cu     1.303035    0.752307   12.127846    ( 0.0000,  0.0000,  0.0000)
   2 Cu    -0.000000    1.504615   14.261004    ( 0.0000,  0.0000,  0.0000)
   3 Cu     0.000000    0.000000   16.395505    ( 0.0000,  0.0000,  0.0000)
   4 Cu    -1.303035    2.256922    9.999999    ( 0.0000,  0.0000,  0.0000)
   5 Cu     0.000000    3.009230   12.127846    ( 0.0000,  0.0000,  0.0000)
   6 Cu    -1.303035    3.761537   14.261004    ( 0.0000,  0.0000,  0.0000)
   7 Cu    -1.303035    2.256922   16.395505    ( 0.0000,  0.0000,  0.0000)
   8 Cu    -2.606069    4.513845    9.999999    ( 0.0000,  0.0000,  0.0000)
   9 Cu    -1.303035    5.266152   12.127846    ( 0.0000,  0.0000,  0.0000)
  10 Cu    -2.606069    6.018460   14.261004    ( 0.0000,  0.0000,  0.0000)
  11 Cu    -2.606069    4.513845   16.395505    ( 0.0000,  0.0000,  0.0000)
  12 Cu     2.606069    0.000000    9.999999    ( 0.0000,  0.0000,  0.0000)
  13 Cu     3.909104    0.752307   12.127846    ( 0.0000,  0.0000,  0.0000)
  14 Cu     2.606069    1.504615   14.261004    ( 0.0000,  0.0000,  0.0000)
  15 Cu     2.606069   -0.000000   16.395505    ( 0.0000,  0.0000,  0.0000)
  16 Cu     1.303035    2.256922    9.999999    ( 0.0000,  0.0000,  0.0000)
  17 Cu     2.606069    3.009230   12.127846    ( 0.0000,  0.0000,  0.0000)
  18 Cu     1.303035    3.761537   14.261004    ( 0.0000,  0.0000,  0.0000)
  19 Cu     1.303035    2.256922   16.395505    ( 0.0000,  0.0000,  0.0000)
  20 Cu     0.000000    4.513845    9.999999    ( 0.0000,  0.0000,  0.0000)
  21 Cu     1.303035    5.266152   12.127846    ( 0.0000,  0.0000,  0.0000)
  22 Cu    -0.000000    6.018460   14.261004    ( 0.0000,  0.0000,  0.0000)
  23 Cu     0.000000    4.513845   16.395505    ( 0.0000,  0.0000,  0.0000)
  24 Cu     5.212139    0.000000    9.999999    ( 0.0000,  0.0000,  0.0000)
  25 Cu     6.515174    0.752307   12.127846    ( 0.0000,  0.0000,  0.0000)
  26 Cu     5.212139    1.504615   14.261004    ( 0.0000,  0.0000,  0.0000)
  27 Cu     5.212139   -0.000000   16.395505    ( 0.0000,  0.0000,  0.0000)
  28 Cu     3.909104    2.256922    9.999999    ( 0.0000,  0.0000,  0.0000)
  29 Cu     5.212139    3.009230   12.127846    ( 0.0000,  0.0000,  0.0000)
  30 Cu     3.909104    3.761537   14.261004    ( 0.0000,  0.0000,  0.0000)
  31 Cu     3.909104    2.256922   16.395505    ( 0.0000,  0.0000,  0.0000)
  32 Cu     2.606069    4.513845    9.999999    ( 0.0000,  0.0000,  0.0000)
  33 Cu     3.909104    5.266152   12.127846    ( 0.0000,  0.0000,  0.0000)
  34 Cu     2.606069    6.018460   14.261004    ( 0.0000,  0.0000,  0.0000)
  35 Cu     2.606069    4.513845   16.395505    ( 0.0000,  0.0000,  0.0000)

Unit cell:
           periodic     x           y           z      points  spacing
  1. axis:    yes    7.818208    0.000000    0.000000    36     0.1881
  2. axis:    yes   -3.909104    6.770767    0.000000    36     0.1881
  3. axis:    no     0.000000    0.000000   26.383539   148     0.1783

  Lengths:   7.818208   7.818208  26.383539
  Angles:   90.000000  90.000000 120.000000

Effective grid spacing dv^(1/3) = 0.1938

     iter     time        total  log10-change:
                         energy  eigst   dens
iter:   1 11:34:56 -2745.810613
iter:   2 11:35:08 -2738.594417  -0.69  -1.22
iter:   3 11:35:19 -2728.241798  -0.38  -1.29
iter:   4 11:35:31 -2728.490608  -0.93  -1.58
iter:   5 11:35:43 -2728.151848  -1.87  -1.70
iter:   6 11:35:54 -2728.301698  -1.29  -1.76
iter:   7 11:36:06 -2727.949472  -2.23  -2.04
iter:   8 11:36:18 -2727.665725  -2.01  -2.40
iter:   9 11:36:30 -2727.610285  -2.78  -2.51
iter:  10 11:36:41 -2727.548804c -2.41  -2.60
iter:  11 11:36:53 -2727.549401c -3.10  -2.86
iter:  12 11:37:05 -2727.556750c -3.10  -2.92
iter:  13 11:37:16 -2727.555565c -2.87  -2.86
iter:  14 11:37:28 -2727.539511c -3.50  -2.94
iter:  15 11:37:40 -2727.545674c -3.39  -3.29
iter:  16 11:37:52 -2727.537637c -3.94  -3.09
iter:  17 11:38:03 -2727.536740c -4.30  -3.51
iter:  18 11:38:15 -2727.536922c -4.87  -3.64
iter:  19 11:38:27 -2727.537012c -5.34  -3.80
iter:  20 11:38:38 -2727.537215c -5.36  -3.87
iter:  21 11:38:50 -2727.537757c -4.88  -3.89
iter:  22 11:39:02 -2727.536938c -5.15  -3.80
iter:  23 11:39:13 -2727.536990c -6.42  -4.35c
iter:  24 11:39:25 -2727.537026c -6.93  -4.50c
iter:  25 11:39:37 -2727.537077c -6.63  -4.56c
iter:  26 11:39:49 -2727.537053c -7.39  -4.71c
iter:  27 11:40:00 -2727.537032c -7.27  -4.77c
iter:  28 11:40:12 -2727.537042c -7.45c -4.94c

Converged after 28 iterations.

Dipole moment: (-3.518328, -6.091473, -0.001524) |e|*Ang

Energy contributions relative to reference atoms: (reference = -1620772.266280)

Kinetic:       +215.321516
Potential:     -254.650311
External:        +0.000000
XC:            -2689.307479
Entropy (-ST):   -0.404855
Local:           +1.301658
--------------------------
Free energy:   -2727.739470
Extrapolated:  -2727.537042

Showing only first 2 kpts
 Kpt  Band  Eigenvalues  Occupancy
  0   196     -5.69362    1.99911
  0   197     -5.44300    1.98913
  0   198     -5.44300    1.98913
  0   199     -4.91365    0.95795

  1   196     -5.72343    1.99934
  1   197     -5.72342    1.99934
  1   198     -5.04484    1.54686
  1   199     -5.04484    1.54686


Fermi level: -4.92206

No gap

Forces in eV/Ang:
  0 Cu    0.00000    0.00000   -0.06485
  1 Cu    0.00000    0.00000   -0.01683
  2 Cu   -0.00000    0.00000    0.00548
  3 Cu   -0.00000    0.00000    0.02417
[...]
rank=33 L18:     for _ in self.icalculate(atoms, properties, system_changes):
rank=33 L19:   File "/home/modules/software/GPAW/22.8.0-intel-2022a/lib/python3.10/site-packages/gpaw/calculator.py", line 376, in icalculate
rank=33 L20:     self.set_positions(atoms)
rank=33 L21:   File "/home/modules/software/GPAW/22.8.0-intel-2022a/lib/python3.10/site-packages/gpaw/calculator.py", line 578, in set_positions
rank=33 L22:     self.initialize_positions(atoms)
rank=33 L23:   File "/home/modules/software/GPAW/22.8.0-intel-2022a/lib/python3.10/site-packages/gpaw/calculator.py", line 572, in initialize_positions
rank=33 L24:     self.wfs.set_positions(self.spos_ac, atom_partition)
rank=33 L25:   File "/home/modules/software/GPAW/22.8.0-intel-2022a/lib/python3.10/site-packages/gpaw/wavefunctions/fd.py", line 71, in set_positions
rank=33 L26:     FDPWWaveFunctions.set_positions(self, spos_ac, atom_partition)
rank=33 L27:   File "/home/modules/software/GPAW/22.8.0-intel-2022a/lib/python3.10/site-packages/gpaw/wavefunctions/fdpw.py", line 269, in set_positions
rank=33 L28:     WaveFunctions.set_positions(self, spos_ac, atom_partition)
rank=33 L29:   File "/home/modules/software/GPAW/22.8.0-intel-2022a/lib/python3.10/site-packages/gpaw/wavefunctions/base.py", line 246, in set_positions
rank=33 L30:     self.kd.symmetry.check(spos_ac)
rank=33 L31:   File "/home/modules/software/GPAW/22.8.0-intel-2022a/lib/python3.10/site-packages/gpaw/symmetry.py", line 246, in check
rank=33 L32:     raise RuntimeError('Broken symmetry!')
rank=33 L33: RuntimeError: Broken symmetry!
GPAW CLEANUP (node 33): <class 'RuntimeError'> occurred.  Calling MPI_Abort!
rank=28 L00: Traceback (most recent call last):
rank=28 L01:   File "/home/cat/s204775/projects/Bachelor_project/clean_slabs/clean_slabs.py", line 30, in <module>
rank=28 L02:     dyn.run(fmax=0.05)
rank=28 L03:   File "/home/modules/software/ASE/3.22.1-intel-2022a/lib/python3.10/site-packages/ase/optimize/optimize.py", line 269, in run
rank=28 L04:     return Dynamics.run(self)
rank=28 L05:   File "/home/modules/software/ASE/3.22.1-intel-2022a/lib/python3.10/site-packages/ase/optimize/optimize.py", line 156, in run
rank=28 L06:     for converged in Dynamics.irun(self):
rank=28 L07:   File "/home/modules/software/ASE/3.22.1-intel-2022a/lib/python3.10/site-packages/ase/optimize/optimize.py", line 143, in irun
rank=28 L08:     self.log()
rank=28 L09:   File "/home/modules/software/ASE/3.22.1-intel-2022a/lib/python3.10/site-packages/ase/optimize/optimize.py", line 283, in log
rank=28 L10:     forces = self.atoms.get_forces()
rank=28 L11:   File "/home/modules/software/ASE/3.22.1-intel-2022a/lib/python3.10/site-packages/ase/atoms.py", line 788, in get_forces
rank=28 L12:     forces = self._calc.get_forces(self)
rank=28 L13:   File "/home/modules/software/ASE/3.22.1-intel-2022a/lib/python3.10/site-packages/ase/calculators/abc.py", line 23, in get_forces
rank=28 L14:     return self.get_property('forces', atoms)
rank=28 L15:   File "/home/modules/software/ASE/3.22.1-intel-2022a/lib/python3.10/site-packages/ase/calculators/calculator.py", line 737, in get_property
rank=28 L16:     self.calculate(atoms, [name], system_changes)
rank=28 L17:   File "/home/modules/software/GPAW/22.8.0-intel-2022a/lib/python3.10/site-packages/gpaw/calculator.py", line 353, in calculate
rank=28 L18:     for _ in self.icalculate(atoms, properties, system_changes):
rank=28 L19:   File "/home/modules/software/GPAW/22.8.0-intel-2022a/lib/python3.10/site-packages/gpaw/calculator.py", line 376, in icalculate
rank=28 L20:     self.set_positions(atoms)
rank=28 L21:   File "/home/modules/software/GPAW/22.8.0-intel-2022a/lib/python3.10/site-packages/gpaw/calculator.py", line 578, in set_positions
rank=28 L22:     self.initialize_positions(atoms)
rank=28 L23:   File "/home/modules/software/GPAW/22.8.0-intel-2022a/lib/python3.10/site-packages/gpaw/calculator.py", line 572, in initialize_positions
rank=28 L24:     self.wfs.set_positions(self.spos_ac, atom_partition)
rank=28 L25:   File "/home/modules/software/GPAW/22.8.0-intel-2022a/lib/python3.10/site-packages/gpaw/wavefunctions/fd.py", line 71, in set_positions
rank=28 L26:     FDPWWaveFunctions.set_positions(self, spos_ac, atom_partition)
rank=28 L27:   File "/home/modules/software/GPAW/22.8.0-intel-2022a/lib/python3.10/site-packages/gpaw/wavefunctions/fdpw.py", line 269, in set_positions
rank=28 L28:     WaveFunctions.set_positions(self, spos_ac, atom_partition)
rank=28 L29:   File "/home/modules/software/GPAW/22.8.0-intel-2022a/lib/python3.10/site-packages/gpaw/wavefunctions/base.py", line 246, in set_positions
rank=28 L30:     self.kd.symmetry.check(spos_ac)
rank=28 L31:   File "/home/modules/software/GPAW/22.8.0-intel-2022a/lib/python3.10/site-packages/gpaw/symmetry.py", line 246, in check
rank=28 L32:     raise RuntimeError('Broken symmetry!')
rank=28 L33: RuntimeError: Broken symmetry!
GPAW CLEANUP (node 28): <class 'RuntimeError'> occurred.  Calling MPI_Abort!
rank=08 L00: Traceback (most recent call last):
rank=08 L01:   File "/home/cat/s204775/projects/Bachelor_project/clean_slabs/clean_slabs.py", line 30, in <module>
rank=08 L02:     dyn.run(fmax=0.05)
rank=08 L03:   File "/home/modules/software/ASE/3.22.1-intel-2022a/lib/python3.10/site-packages/ase/optimize/optimize.py", line 269, in run
rank=08 L04:     return Dynamics.run(self)
rank=08 L05:   File "/home/modules/software/ASE/3.22.1-intel-2022a/lib/python3.10/site-packages/ase/optimize/optimize.py", line 156, in run
rank=08 L06:     for converged in Dynamics.irun(self):
rank=08 L07:   File "/home/modules/software/ASE/3.22.1-intel-2022a/lib/python3.10/site-packages/ase/optimize/optimize.py", line 143, in irun
rank=08 L08:     self.log()
rank=08 L09:   File "/home/modules/software/ASE/3.22.1-intel-2022a/lib/python3.10/site-packages/ase/optimize/optimize.py", line 283, in log
rank=08 L10:     forces = self.atoms.get_forces()
rank=08 L11:   File "/home/modules/software/ASE/3.22.1-intel-2022a/lib/python3.10/site-packages/ase/atoms.py", line 788, in get_forces
rank=08 L12:     forces = self._calc.get_forces(self)
rank=08 L13:   File "/home/modules/software/ASE/3.22.1-intel-2022a/lib/python3.10/site-packages/ase/calculators/abc.py", line 23, in get_forces
rank=08 L14:     return self.get_property('forces', atoms)
rank=08 L15:   File "/home/modules/software/ASE/3.22.1-intel-2022a/lib/python3.10/site-packages/ase/calculators/calculator.py", line 737, in get_property
rank=08 L16:     self.calculate(atoms, [name], system_changes)
rank=08 L17:   File "/home/modules/software/GPAW/22.8.0-intel-2022a/lib/python3.10/site-packages/gpaw/calculator.py", line 353, in calculate
rank=08 L18:     for _ in self.icalculate(atoms, properties, system_changes):
rank=08 L19:   File "/home/modules/software/GPAW/22.8.0-intel-2022a/lib/python3.10/site-packages/gpaw/calculator.py", line 376, in icalculate
rank=08 L20:     self.set_positions(atoms)
rank=08 L21:   File "/home/modules/software/GPAW/22.8.0-intel-2022a/lib/python3.10/site-packages/gpaw/calculator.py", line 578, in set_positions
rank=08 L22:     self.initialize_positions(atoms)
rank=08 L23:   File "/home/modules/software/GPAW/22.8.0-intel-2022a/lib/python3.10/site-packages/gpaw/calculator.py", line 572, in initialize_positions
rank=08 L24:     self.wfs.set_positions(self.spos_ac, atom_partition)
rank=08 L25:   File "/home/modules/software/GPAW/22.8.0-intel-2022a/lib/python3.10/site-packages/gpaw/wavefunctions/fd.py", line 71, in set_positions
rank=08 L26:     FDPWWaveFunctions.set_positions(self, spos_ac, atom_partition)
rank=08 L27:   File "/home/modules/software/GPAW/22.8.0-intel-2022a/lib/python3.10/site-packages/gpaw/wavefunctions/fdpw.py", line 269, in set_positions
rank=08 L28:     WaveFunctions.set_positions(self, spos_ac, atom_partition)
rank=08 L29:   File "/home/modules/software/GPAW/22.8.0-intel-2022a/lib/python3.10/site-packages/gpaw/wavefunctions/base.py", line 246, in set_positions
rank=08 L30:     self.kd.symmetry.check(spos_ac)
rank=08 L31:   File "/home/modules/software/GPAW/22.8.0-intel-2022a/lib/python3.10/site-packages/gpaw/symmetry.py", line 246, in check
rank=08 L32:     raise RuntimeError('Broken symmetry!')
rank=08 L33: RuntimeError: Broken symmetry!
rank=13 L00: Traceback (most recent call last):
rank=13 L01:   File "/home/cat/s204775/projects/Bachelor_project/clean_slabs/clean_slabs.py", line 30, in <module>
rank=13 L02:     dyn.run(fmax=0.05)
rank=13 L03:   File "/home/modules/software/ASE/3.22.1-intel-2022a/lib/python3.10/site-packages/ase/optimize/optimize.py", line 269, in run
rank=13 L04:     return Dynamics.run(self)
rank=13 L05:   File "/home/modules/software/ASE/3.22.1-intel-2022a/lib/python3.10/site-packages/ase/optimize/optimize.py", line 156, in run
rank=13 L06:     for converged in Dynamics.irun(self):
rank=13 L07:   File "/home/modules/software/ASE/3.22.1-intel-2022a/lib/python3.10/site-packages/ase/optimize/optimize.py", line 143, in irun
rank=13 L08:     self.log()
rank=13 L09:   File "/home/modules/software/ASE/3.22.1-intel-2022a/lib/python3.10/site-packages/ase/optimize/optimize.py", line 283, in log
rank=13 L10:     forces = self.atoms.get_forces()
rank=13 L11:   File "/home/modules/software/ASE/3.22.1-intel-2022a/lib/python3.10/site-packages/ase/atoms.py", line 788, in get_forces
rank=13 L12:     forces = self._calc.get_forces(self)
rank=13 L13:   File "/home/modules/software/ASE/3.22.1-intel-2022a/lib/python3.10/site-packages/ase/calculators/abc.py", line 23, in get_forces
rank=13 L14:     return self.get_property('forces', atoms)
rank=13 L15:   File "/home/modules/software/ASE/3.22.1-intel-2022a/lib/python3.10/site-packages/ase/calculators/calculator.py", line 737, in get_property
rank=13 L16:     self.calculate(atoms, [name], system_changes)
rank=13 L17:   File "/home/modules/software/GPAW/22.8.0-intel-2022a/lib/python3.10/site-packages/gpaw/calculator.py", line 353, in calculate
rank=13 L18:     for _ in self.icalculate(atoms, properties, system_changes):
rank=13 L19:   File "/home/modules/software/GPAW/22.8.0-intel-2022a/lib/python3.10/site-packages/gpaw/calculator.py", line 376, in icalculate
rank=13 L20:     self.set_positions(atoms)
rank=13 L21:   File "/home/modules/software/GPAW/22.8.0-intel-2022a/lib/python3.10/site-packages/gpaw/calculator.py", line 578, in set_positions
rank=13 L22:     self.initialize_positions(atoms)
rank=13 L23:   File "/home/modules/software/GPAW/22.8.0-intel-2022a/lib/python3.10/site-packages/gpaw/calculator.py", line 572, in initialize_positions
rank=13 L24:     self.wfs.set_positions(self.spos_ac, atom_partition)
rank=13 L25:   File "/home/modules/software/GPAW/22.8.0-intel-2022a/lib/python3.10/site-packages/gpaw/wavefunctions/fd.py", line 71, in set_positions
rank=13 L26:     FDPWWaveFunctions.set_positions(self, spos_ac, atom_partition)
rank=13 L27:   File "/home/modules/software/GPAW/22.8.0-intel-2022a/lib/python3.10/site-packages/gpaw/wavefunctions/fdpw.py", line 269, in set_positions
rank=13 L28:     WaveFunctions.set_positions(self, spos_ac, atom_partition)
rank=13 L29:   File "/home/modules/software/GPAW/22.8.0-intel-2022a/lib/python3.10/site-packages/gpaw/wavefunctions/base.py", line 246, in set_positions
rank=13 L30:     self.kd.symmetry.check(spos_ac)
rank=13 L31:   File "/home/modules/software/GPAW/22.8.0-intel-2022a/lib/python3.10/site-packages/gpaw/symmetry.py", line 246, in check
rank=13 L32:     raise RuntimeError('Broken symmetry!')
rank=13 L33: RuntimeError: Broken symmetry!
GPAW CLEANUP (node 8): <class 'RuntimeError'> occurred.  Calling MPI_Abort!
GPAW CLEANUP (node 13): <class 'RuntimeError'> occurred.  Calling MPI_Abort!
rank=23 L00: Traceback (most recent call last):
rank=23 L01:   File "/home/cat/s204775/projects/Bachelor_project/clean_slabs/clean_slabs.py", line 30, in <module>
rank=23 L02:     dyn.run(fmax=0.05)
rank=23 L03:   File "/home/modules/software/ASE/3.22.1-intel-2022a/lib/python3.10/site-packages/ase/optimize/optimize.py", line 269, in run
rank=23 L04:     return Dynamics.run(self)
rank=23 L05:   File "/home/modules/software/ASE/3.22.1-intel-2022a/lib/python3.10/site-packages/ase/optimize/optimize.py", line 156, in run
rank=23 L06:     for converged in Dynamics.irun(self):
rank=23 L07:   File "/home/modules/software/ASE/3.22.1-intel-2022a/lib/python3.10/site-packages/ase/optimize/optimize.py", line 143, in irun
rank=23 L08:     self.log()
rank=23 L09:   File "/home/modules/software/ASE/3.22.1-intel-2022a/lib/python3.10/site-packages/ase/optimize/optimize.py", line 283, in log
rank=23 L10:     forces = self.atoms.get_forces()
rank=23 L11:   File "/home/modules/software/ASE/3.22.1-intel-2022a/lib/python3.10/site-packages/ase/atoms.py", line 788, in get_forces
rank=23 L12:     forces = self._calc.get_forces(self)
rank=23 L13:   File "/home/modules/software/ASE/3.22.1-intel-2022a/lib/python3.10/site-packages/ase/calculators/abc.py", line 23, in get_forces
rank=23 L14:     return self.get_property('forces', atoms)
rank=23 L15:   File "/home/modules/software/ASE/3.22.1-intel-2022a/lib/python3.10/site-packages/ase/calculators/calculator.py", line 737, in get_property
rank=23 L16:     self.calculate(atoms, [name], system_changes)
rank=23 L17:   File "/home/modules/software/GPAW/22.8.0-intel-2022a/lib/python3.10/site-packages/gpaw/calculator.py", line 353, in calculate
rank=23 L18:     for _ in self.icalculate(atoms, properties, system_changes):
rank=23 L19:   File "/home/modules/software/GPAW/22.8.0-intel-2022a/lib/python3.10/site-packages/gpaw/calculator.py", line 376, in icalculate
rank=23 L20:     self.set_positions(atoms)
rank=23 L21:   File "/home/modules/software/GPAW/22.8.0-intel-2022a/lib/python3.10/site-packages/gpaw/calculator.py", line 578, in set_positions
rank=23 L22:     self.initialize_positions(atoms)
rank=23 L23:   File "/home/modules/software/GPAW/22.8.0-intel-2022a/lib/python3.10/site-packages/gpaw/calculator.py", line 572, in initialize_positions
rank=23 L24:     self.wfs.set_positions(self.spos_ac, atom_partition)
rank=23 L25:   File "/home/modules/software/GPAW/22.8.0-intel-2022a/lib/python3.10/site-packages/gpaw/wavefunctions/fd.py", line 71, in set_positions
rank=23 L26:     FDPWWaveFunctions.set_positions(self, spos_ac, atom_partition)
rank=23 L27:   File "/home/modules/software/GPAW/22.8.0-intel-2022a/lib/python3.10/site-packages/gpaw/wavefunctions/fdpw.py", line 269, in set_positions
rank=23 L28:     WaveFunctions.set_positions(self, spos_ac, atom_partition)
rank=23 L29:   File "/home/modules/software/GPAW/22.8.0-intel-2022a/lib/python3.10/site-packages/gpaw/wavefunctions/base.py", line 246, in set_positions
rank=23 L30:     self.kd.symmetry.check(spos_ac)
rank=23 L31:   File "/home/modules/software/GPAW/22.8.0-intel-2022a/lib/python3.10/site-packages/gpaw/symmetry.py", line 246, in check
rank=23 L32:     raise RuntimeError('Broken symmetry!')
rank=23 L33: RuntimeError: Broken symmetry!
GPAW CLEANUP (node 23): <class 'RuntimeError'> occurred.  Calling MPI_Abort!
rank=03 L00: Traceback (most recent call last):
rank=03 L01:   File "/home/cat/s204775/projects/Bachelor_project/clean_slabs/clean_slabs.py", line 30, in <module>
rank=03 L02:     dyn.run(fmax=0.05)
rank=03 L03:   File "/home/modules/software/ASE/3.22.1-intel-2022a/lib/python3.10/site-packages/ase/optimize/optimize.py", line 269, in run
rank=03 L04:     return Dynamics.run(self)
rank=03 L05:   File "/home/modules/software/ASE/3.22.1-intel-2022a/lib/python3.10/site-packages/ase/optimize/optimize.py", line 156, in run
rank=03 L06:     for converged in Dynamics.irun(self):
rank=03 L07:   File "/home/modules/software/ASE/3.22.1-intel-2022a/lib/python3.10/site-packages/ase/optimize/optimize.py", line 143, in irun
rank=03 L08:     self.log()
rank=03 L09:   File "/home/modules/software/ASE/3.22.1-intel-2022a/lib/python3.10/site-packages/ase/optimize/optimize.py", line 283, in log
rank=03 L10:     forces = self.atoms.get_forces()
rank=03 L11:   File "/home/modules/software/ASE/3.22.1-intel-2022a/lib/python3.10/site-packages/ase/atoms.py", line 788, in get_forces
rank=03 L12:     forces = self._calc.get_forces(self)
rank=03 L13:   File "/home/modules/software/ASE/3.22.1-intel-2022a/lib/python3.10/site-packages/ase/calculators/abc.py", line 23, in get_forces
rank=03 L14:     return self.get_property('forces', atoms)
rank=03 L15:   File "/home/modules/software/ASE/3.22.1-intel-2022a/lib/python3.10/site-packages/ase/calculators/calculator.py", line 737, in get_property
rank=03 L16:     self.calculate(atoms, [name], system_changes)
rank=03 L17:   File "/home/modules/software/GPAW/22.8.0-intel-2022a/lib/python3.10/site-packages/gpaw/calculator.py", line 353, in calculate
rank=03 L18:     for _ in self.icalculate(atoms, properties, system_changes):
rank=03 L19:   File "/home/modules/software/GPAW/22.8.0-intel-2022a/lib/python3.10/site-packages/gpaw/calculator.py", line 376, in icalculate
rank=03 L20:     self.set_positions(atoms)
rank=03 L21:   File "/home/modules/software/GPAW/22.8.0-intel-2022a/lib/python3.10/site-packages/gpaw/calculator.py", line 578, in set_positions
rank=03 L22:     self.initialize_positions(atoms)
rank=03 L23:   File "/home/modules/software/GPAW/22.8.0-intel-2022a/lib/python3.10/site-packages/gpaw/calculator.py", line 572, in initialize_positions
rank=03 L24:     self.wfs.set_positions(self.spos_ac, atom_partition)
rank=03 L25:   File "/home/modules/software/GPAW/22.8.0-intel-2022a/lib/python3.10/site-packages/gpaw/wavefunctions/fd.py", line 71, in set_positions
rank=03 L26:     FDPWWaveFunctions.set_positions(self, spos_ac, atom_partition)
rank=03 L27:   File "/home/modules/software/GPAW/22.8.0-intel-2022a/lib/python3.10/site-packages/gpaw/wavefunctions/fdpw.py", line 269, in set_positions
rank=03 L28:     WaveFunctions.set_positions(self, spos_ac, atom_partition)
rank=03 L29:   File "/home/modules/software/GPAW/22.8.0-intel-2022a/lib/python3.10/site-packages/gpaw/wavefunctions/base.py", line 246, in set_positions
rank=03 L30:     self.kd.symmetry.check(spos_ac)
rank=03 L31:   File "/home/modules/software/GPAW/22.8.0-intel-2022a/lib/python3.10/site-packages/gpaw/symmetry.py", line 246, in check
rank=03 L32:     raise RuntimeError('Broken symmetry!')
rank=03 L33: RuntimeError: Broken symmetry!
GPAW CLEANUP (node 3): <class 'RuntimeError'> occurred.  Calling MPI_Abort!
Abort(42) on node 0 (rank 0 in comm 0): application called MPI_Abort(MPI_COMM_WORLD, 42) - process 0
Abort(42) on node 4 (rank 4 in comm 0): application called MPI_Abort(MPI_COMM_WORLD, 42) - process 4
Abort(42) on node 5 (rank 5 in comm 0): application called MPI_Abort(MPI_COMM_WORLD, 42) - process 5
Abort(42) on node 9 (rank 9 in comm 0): application called MPI_Abort(MPI_COMM_WORLD, 42) - process 9
Abort(42) on node 10 (rank 10 in comm 0): application called MPI_Abort(MPI_COMM_WORLD, 42) - process 10
Abort(42) on node 14 (rank 14 in comm 0): application called MPI_Abort(MPI_COMM_WORLD, 42) - process 14
Abort(42) on node 15 (rank 15 in comm 0): application called MPI_Abort(MPI_COMM_WORLD, 42) - process 15
Abort(42) on node 19 (rank 19 in comm 0): application called MPI_Abort(MPI_COMM_WORLD, 42) - process 19
Abort(42) on node 20 (rank 20 in comm 0): application called MPI_Abort(MPI_COMM_WORLD, 42) - process 20
Abort(42) on node 24 (rank 24 in comm 0): application called MPI_Abort(MPI_COMM_WORLD, 42) - process 24
Abort(42) on node 25 (rank 25 in comm 0): application called MPI_Abort(MPI_COMM_WORLD, 42) - process 25
Abort(42) on node 29 (rank 29 in comm 0): application called MPI_Abort(MPI_COMM_WORLD, 42) - process 29
Abort(42) on node 30 (rank 30 in comm 0): application called MPI_Abort(MPI_COMM_WORLD, 42) - process 30
Abort(42) on node 34 (rank 34 in comm 0): application called MPI_Abort(MPI_COMM_WORLD, 42) - process 34
Abort(42) on node 35 (rank 35 in comm 0): application called MPI_Abort(MPI_COMM_WORLD, 42) - process 35
Abort(42) on node 39 (rank 39 in comm 0): application called MPI_Abort(MPI_COMM_WORLD, 42) - process 39
