
  ___ ___ ___ _ _ _  
 |   |   |_  | | | | 
 | | | | | . | | | | 
 |__ |  _|___|_____|  22.8.0
 |___|_|             

User:   s204775@c074.nifl.fysik.dtu.dk
Date:   Sun Oct  8 17:32:53 2023
Arch:   x86_64
Pid:    202364
CWD:    /home/cat/s204775/projects/Bachelor_project/clean_slabs
Python: 3.10.4
gpaw:   /home/modules/software/GPAW/22.8.0-intel-2022a/lib/python3.10/site-packages/gpaw
_gpaw:  /home/modules/software/GPAW/22.8.0-intel-2022a/lib/python3.10/site-packages/
        _gpaw.cpython-310-x86_64-linux-gnu.so
ase:    /home/modules/software/ASE/3.22.1-intel-2022a/lib/python3.10/site-packages/ase (version 3.22.1)
numpy:  /home/modules/software/SciPy-bundle/2022.05-intel-2022a/lib/python3.10/site-packages/numpy (version 1.22.3)
scipy:  /home/modules/software/SciPy-bundle/2022.05-intel-2022a/lib/python3.10/site-packages/scipy (version 1.8.1)
libxc:  5.2.3
units:  Angstrom and eV
cores: 40
OpenMP: False
OMP_NUM_THREADS: 1

Input parameters:
  basis: dzp
  h: 0.18
  kpts: {size: (4, 4, 1)}
  maxiter: 3000
  xc: BEEF-vdW

System changes: positions, numbers, cell, pbc, initial_charges, initial_magmoms 

Initialize ...

species:
  Fe:
    name: Iron
    id: 37abbd8d6c3c35915a9b583b742da910
    Z: 26.0
    valence: 8
    core: 18
    charge: 0.0
    file: /home/modules/software/GPAW-setups/0.9.20000/Fe.PBE.gz
    compensation charges: {type: gauss,
                           rc: 0.33,
                           lmax: 2}
    cutoffs: {filter: 2.06,
              core: 2.67}
    valence states:
      #              energy  rcut
      - 4s(2.00)    -5.291   1.164
      - 4p(0.00)    -1.326   1.058
      - 3d(6.00)    -7.505   1.058
      -  s          21.920   1.164
      -  p          25.885   1.058
      -  d          19.706   1.058
  
    # LCAO basis set for Fe:
    #   Name: dzp
    #   File: /home/modules/software/GPAW-setups/0.9.20000/Fe.dzp.basis.gz
    #   Number of radial functions: 5
    #   Number of spherical harmonics: 15
    #     l=0, rc=8.9688 Bohr: 4s-sz confined orbital
    #     l=2, rc=5.1719 Bohr: 3d-sz confined orbital
    #     l=0, rc=5.3281 Bohr: 4s-dz split-valence wave
    #     l=2, rc=3.0938 Bohr: 3d-dz split-valence wave
    #     l=1, rc=8.9688 Bohr: p-type Gaussian polarization
    #   Number of RI-basis functions 0

Reference energy: -1246300.365598  # eV

Spin-polarized calculation.
Magnetic moment: 97.664047

Convergence criteria:
 Maximum [total energy] change in last 3 cyles: 0.0005 eV / electron
 Maximum integral of absolute [dens]ity change: 0.0001 electrons / valence electron
 Maximum integral of absolute [eigenst]ate change: 4e-08 eV^2 / valence electron
 Maximum number of scf [iter]ations: 3000
 (Square brackets indicate name in SCF output, whereas a 'c' in
 the SCF output indicates the quantity has converged.)

Symmetries present (total): 6

  ( 1  1  0)  ( 1  0  0)  ( 0  1  0)  ( 0 -1  0)  (-1  0  0)  (-1 -1  0)
  ( 0 -1  0)  ( 0  1  0)  (-1 -1  0)  (-1  0  0)  ( 1  1  0)  ( 1  0  0)
  ( 0  0  1)  ( 0  0  1)  ( 0  0  1)  ( 0  0  1)  ( 0  0  1)  ( 0  0  1)
Note: your k-points are not as symmetric as your crystal!

16 k-points: 4 x 4 x 1 Monkhorst-Pack grid
6 k-points in the irreducible part of the Brillouin zone
       k-points in crystal coordinates                weights
   0:     0.12500000   -0.12500000    0.00000000          2/16
   1:     0.12500000    0.12500000    0.00000000          2/16
   2:     0.37500000   -0.37500000    0.00000000          2/16
   3:     0.37500000   -0.12500000    0.00000000          4/16
   4:     0.37500000    0.12500000    0.00000000          4/16
   5:     0.37500000    0.37500000    0.00000000          2/16

Wave functions: Uniform real-space grid
  Kinetic energy operator: 8*3+1=25 point O(h^6) finite-difference Laplacian
  ScaLapack parameters: grid=1x1, blocksize=None
  Wavefunction extrapolation:
    Improved wavefunction reuse through dual PAW basis 

Occupation numbers: Fermi-Dirac:
  width: 0.1000  # eV
 

Eigensolver
   Davidson(niter=2) 

Densities:
  Coarse grid: 36*36*148 grid
  Fine grid: 72*72*296 grid
  Total Charge: 0.000000 

Density mixing:
  Method: difference
  Backend: pulay
  Linear mixing parameter: 0.05
  old densities: 5
  Damping of long wavelength oscillations: 50 

Hamiltonian:
  XC and Coulomb potentials evaluated on a 72*72*296 grid
  Using the BEEF-vdW Exchange-Correlation functional
  Interpolation: tri-quintic (5. degree polynomial)
  Poisson solver: FastPoissonSolver using
    Stencil: 8*3+1=25 point O(h^6) finite-difference Laplacian
    FFT axes: [0, 1]
    FST axes: [2]
 

XC parameters: BEEF-vdW with 2 nearest neighbor stencil

Memory estimate:
  Process memory now: 180.41 MiB
  Calculator: 261.41 MiB
    Density: 10.95 MiB
      Arrays: 2.55 MiB
      Localized functions: 7.39 MiB
      Mixer: 1.00 MiB
    Hamiltonian: 2.45 MiB
      Arrays: 1.89 MiB
      XC: 0.00 MiB
      Poisson: 0.00 MiB
      vbar: 0.55 MiB
    Wavefunctions: 248.02 MiB
      Arrays psit_nG: 203.01 MiB
      Eigensolver: 43.06 MiB
      Projections: 0.70 MiB
      Projectors: 1.25 MiB

Total number of cores used: 40
Parallelization over k-points: 2
Domain decomposition: 2 x 2 x 5

Number of atoms: 36
Number of atomic orbitals: 540
Number of bands in calculation: 236
Number of valence electrons: 288
Bands to converge: occupied

... initialized

Initializing position-dependent things.

Density initialized from atomic densities
Creating initial wave functions:
  236 bands from LCAO basis set

                                          
                                          
                                          
                                          
                                          
          Fe    Fe    Fe                  
           FFe   FFe   FFe                
             Fe     Fe    Fe              
             Fe    Fe    Fe               
             FFe    FFe   FFe             
                                          
               Fe     Fe    Fe            
                 Fe    Fe     Fe          
          Fe    Fe    Fe                  
            Fe    Fe    Fe                
             Fe     Fe    Fe              
                                          
                                          
                                          
                                          

Positions:
   0 Fe     0.000000    0.000000   10.000000    ( 0.0000,  0.0000,  2.7500)
   1 Fe     1.298117    0.749468   12.119817    ( 0.0000,  0.0000,  2.6728)
   2 Fe    -0.000000    1.498938   14.260075    ( 0.0000,  0.0000,  2.6756)
   3 Fe     0.000000    0.000000   16.395073    ( 0.0000,  0.0000,  2.7532)
   4 Fe    -1.298117    2.248405   10.000000    ( 0.0000,  0.0000,  2.7500)
   5 Fe     0.000000    2.997873   12.119817    ( 0.0000,  0.0000,  2.6728)
   6 Fe    -1.298117    3.747342   14.260076    ( 0.0000,  0.0000,  2.6756)
   7 Fe    -1.298117    2.248406   16.395074    ( 0.0000,  0.0000,  2.7532)
   8 Fe    -2.596234    4.496810   10.000000    ( 0.0000,  0.0000,  2.7500)
   9 Fe    -1.298117    5.246278   12.119817    ( 0.0000,  0.0000,  2.6728)
  10 Fe    -2.596234    5.995746   14.260075    ( 0.0000,  0.0000,  2.6756)
  11 Fe    -2.596234    4.496809   16.395074    ( 0.0000,  0.0000,  2.7532)
  12 Fe     2.596234    0.000000   10.000000    ( 0.0000,  0.0000,  2.7500)
  13 Fe     3.894352    0.749468   12.119817    ( 0.0000,  0.0000,  2.6728)
  14 Fe     2.596235    1.498937   14.260075    ( 0.0000,  0.0000,  2.6756)
  15 Fe     2.596235   -0.000000   16.395074    ( 0.0000,  0.0000,  2.7532)
  16 Fe     1.298117    2.248405   10.000000    ( 0.0000,  0.0000,  2.7500)
  17 Fe     2.596234    2.997873   12.119817    ( 0.0000,  0.0000,  2.6728)
  18 Fe     1.298117    3.747342   14.260076    ( 0.0000,  0.0000,  2.6756)
  19 Fe     1.298117    2.248406   16.395074    ( 0.0000,  0.0000,  2.7532)
  20 Fe     0.000000    4.496810   10.000000    ( 0.0000,  0.0000,  2.7500)
  21 Fe     1.298117    5.246278   12.119817    ( 0.0000,  0.0000,  2.6728)
  22 Fe    -0.000000    5.995746   14.260076    ( 0.0000,  0.0000,  2.6756)
  23 Fe     0.000000    4.496810   16.395074    ( 0.0000,  0.0000,  2.7532)
  24 Fe     5.192469    0.000000   10.000000    ( 0.0000,  0.0000,  2.7500)
  25 Fe     6.490586    0.749468   12.119817    ( 0.0000,  0.0000,  2.6728)
  26 Fe     5.192468    1.498937   14.260075    ( 0.0000,  0.0000,  2.6756)
  27 Fe     5.192468   -0.000000   16.395074    ( 0.0000,  0.0000,  2.7532)
  28 Fe     3.894352    2.248405   10.000000    ( 0.0000,  0.0000,  2.7500)
  29 Fe     5.192469    2.997873   12.119817    ( 0.0000,  0.0000,  2.6728)
  30 Fe     3.894352    3.747341   14.260075    ( 0.0000,  0.0000,  2.6756)
  31 Fe     3.894352    2.248405   16.395074    ( 0.0000,  0.0000,  2.7532)
  32 Fe     2.596234    4.496810   10.000000    ( 0.0000,  0.0000,  2.7500)
  33 Fe     3.894352    5.246278   12.119817    ( 0.0000,  0.0000,  2.6728)
  34 Fe     2.596234    5.995746   14.260075    ( 0.0000,  0.0000,  2.6756)
  35 Fe     2.596234    4.496809   16.395074    ( 0.0000,  0.0000,  2.7532)

Unit cell:
           periodic     x           y           z      points  spacing
  1. axis:    yes    7.788703    0.000000    0.000000    36     0.1874
  2. axis:    yes   -3.894352    6.745215    0.000000    36     0.1874
  3. axis:    no     0.000000    0.000000   26.359450   148     0.1781

  Lengths:   7.788703   7.788703  26.359450
  Angles:   90.000000  90.000000 120.000000

Effective grid spacing dv^(1/3) = 0.1933

     iter     time        total  log10-change:  magmom
                         energy  eigst   dens
iter:   1 17:33:39 -2516.091171                  +96.7718
iter:   2 17:34:04 -2518.755300  -0.32  -1.34    +95.5387
iter:   3 17:34:30 -2515.994803  -0.62  -1.35    +94.0579
iter:   4 17:34:55 -2522.174935  -0.82  -1.41    +94.6197
iter:   5 17:35:21 -2514.830151  -0.88  -1.30    +94.9777
iter:   6 17:35:46 -2515.277766  -1.37  -1.52    +95.8082
iter:   7 17:36:11 -2516.986918  -1.27  -1.57    +96.2712
iter:   8 17:36:37 -2515.628630  -1.65  -1.66    +96.4530
iter:   9 17:37:02 -2515.708171  -2.07  -1.92    +97.3023
iter:  10 17:37:27 -2515.534176  -1.89  -1.92    +98.2990
iter:  11 17:37:53 -2515.697495  -2.46  -1.97    +97.6986
iter:  12 17:38:18 -2515.662554  -2.46  -1.90    +97.8448
iter:  13 17:38:43 -2515.963442  -2.99  -1.97    +97.8405
iter:  14 17:39:09 -2515.449507  -2.59  -1.84    +97.9524
iter:  15 17:39:34 -2515.899435  -3.01  -2.00    +97.8951
iter:  16 17:40:00 -2515.520569  -2.59  -1.86    +97.8828
iter:  17 17:40:25 -2515.274326  -2.97  -1.99    +97.7907
iter:  18 17:40:50 -2515.324031  -2.76  -2.19    +97.7587
iter:  19 17:41:16 -2515.209961c -3.28  -2.28    +97.7721
iter:  20 17:41:41 -2515.319951c -3.52  -2.42    +97.7608
iter:  21 17:42:06 -2515.356676  -2.84  -2.43    +97.6403
iter:  22 17:42:32 -2515.374299c -3.54  -2.61    +97.6812
iter:  23 17:42:57 -2515.360635c -3.74  -2.68    +97.6906
iter:  24 17:43:22 -2515.363474c -4.11  -2.91    +97.6926
iter:  25 17:43:48 -2515.359526c -4.35  -2.89    +97.6774
iter:  26 17:44:13 -2515.359376c -4.25  -3.07    +97.6721
iter:  27 17:44:38 -2515.359441c -4.50  -3.23    +97.6727
iter:  28 17:45:04 -2515.360066c -4.63  -3.32    +97.6484
iter:  29 17:45:29 -2515.359789c -5.00  -3.24    +97.6540
iter:  30 17:45:54 -2515.360496c -5.33  -3.27    +97.6492
iter:  31 17:46:20 -2515.359334c -5.32  -3.49    +97.6482
iter:  32 17:46:45 -2515.360440c -5.22  -3.42    +97.6484
iter:  33 17:47:11 -2515.359943c -5.95  -3.73    +97.6506
iter:  34 17:47:36 -2515.360450c -5.83  -3.87    +97.6545
iter:  35 17:48:01 -2515.360497c -6.00  -3.86    +97.6520
iter:  36 17:48:27 -2515.360853c -6.17  -4.12c   +97.6445
iter:  37 17:48:52 -2515.360725c -6.37  -4.05c   +97.6485
iter:  38 17:49:17 -2515.360888c -5.30  -3.90    +97.6601
iter:  39 17:49:43 -2515.361213c -6.18  -3.38    +97.6534
iter:  40 17:50:08 -2515.361258c -6.42  -3.36    +97.6532
iter:  41 17:50:34 -2515.361916c -6.15  -3.34    +97.6512
iter:  42 17:50:59 -2515.361603c -7.03  -3.20    +97.6517
iter:  43 17:51:25 -2515.361115c -6.41  -3.28    +97.6500
iter:  44 17:51:50 -2515.360889c -6.25  -3.33    +97.6511
iter:  45 17:52:15 -2515.360954c -7.10  -3.45    +97.6506
iter:  46 17:52:41 -2515.361068c -6.92  -3.44    +97.6492
iter:  47 17:53:06 -2515.360135c -5.61  -3.42    +97.6490
iter:  48 17:53:31 -2515.360454c -6.46  -3.92    +97.6488
iter:  49 17:53:57 -2515.360799c -6.51  -3.90    +97.6459
iter:  50 17:54:22 -2515.361137c -6.25  -3.84    +97.6446
iter:  51 17:54:48 -2515.360485c -5.90  -3.86    +97.6483
iter:  52 17:55:13 -2515.359757c -5.76  -3.49    +97.6536
iter:  53 17:55:38 -2515.360630c -5.78  -3.43    +97.6486
iter:  54 17:56:04 -2515.360962c -6.19  -3.45    +97.6505
iter:  55 17:56:29 -2515.360977c -6.81  -3.28    +97.6500
iter:  56 17:56:54 -2515.361690c -5.45  -3.29    +97.6562
iter:  57 17:57:20 -2515.360965c -5.24  -3.02    +97.6423
iter:  58 17:57:45 -2515.361464c -4.65  -3.37    +97.6721
iter:  59 17:58:11 -2515.361240c -5.96  -2.86    +97.6677
iter:  60 17:58:36 -2515.361270c -6.54  -2.92    +97.6660
iter:  61 17:59:01 -2515.360041c -6.39  -2.94    +97.6666
iter:  62 17:59:27 -2515.360270c -6.82  -2.99    +97.6663
iter:  63 17:59:52 -2515.360891c -5.69  -2.99    +97.6652
iter:  64 18:00:17 -2515.358257c -5.52  -2.99    +97.6657
iter:  65 18:00:43 -2515.357633c -5.22  -3.25    +97.6652
iter:  66 18:01:08 -2515.357709c -6.20  -3.96    +97.6654
iter:  67 18:01:34 -2515.358088c -5.89  -3.53    +97.6626
iter:  68 18:01:59 -2515.359142c -5.55  -3.57    +97.6631
iter:  69 18:02:24 -2515.360471c -5.30  -3.91    +97.6568
iter:  70 18:02:50 -2515.361310c -5.34  -3.89    +97.6509
iter:  71 18:03:16 -2515.362055c -5.38  -3.61    +97.6451
iter:  72 18:03:41 -2515.362455c -5.42  -3.38    +97.6401
iter:  73 18:04:06 -2515.361794c -5.90  -3.25    +97.6411
iter:  74 18:04:32 -2515.362433c -6.37  -3.48    +97.6405
iter:  75 18:04:57 -2515.362088c -6.84  -3.26    +97.6408
iter:  76 18:05:22 -2515.362386c -6.69  -3.31    +97.6407
iter:  77 18:05:48 -2515.360487c -5.04  -3.26    +97.6414
iter:  78 18:06:13 -2515.360268c -6.41  -3.34    +97.6412
iter:  79 18:06:39 -2515.360142c -6.45  -3.73    +97.6411
iter:  80 18:07:04 -2515.359938c -6.01  -3.92    +97.6454
iter:  81 18:07:29 -2515.359772c -5.50  -3.97    +97.6574
iter:  82 18:07:55 -2515.360266c -5.53  -3.55    +97.6610
iter:  83 18:08:20 -2515.361527c -4.68  -3.33    +97.6677
iter:  84 18:08:45 -2515.361781c -5.40  -2.96    +97.6653
iter:  85 18:09:11 -2515.362612c -5.66  -2.96    +97.6605
iter:  86 18:09:36 -2515.362285c -6.26  -2.94    +97.6615
iter:  87 18:10:01 -2515.361815c -6.26  -2.96    +97.6600
iter:  88 18:10:27 -2515.358325c -4.84  -2.98    +97.6599
iter:  89 18:10:52 -2515.358023c -5.66  -3.58    +97.6590
iter:  90 18:11:17 -2515.358111c -5.42  -3.66    +97.6558
iter:  91 18:11:43 -2515.360627c -5.29  -3.70    +97.6511
iter:  92 18:12:08 -2515.361760c -4.35  -3.48    +97.6393
iter:  93 18:12:33 -2515.364313c -5.44  -3.09    +97.6437
iter:  94 18:12:59 -2515.369119c -5.40  -3.01    +97.6437
iter:  95 18:13:24 -2515.360989c -5.35  -2.85    +97.6466
iter:  96 18:13:50 -2515.360903c -5.98  -3.38    +97.6479
iter:  97 18:14:15 -2515.360634c -6.16  -3.43    +97.6482
iter:  98 18:14:40 -2515.360115c -6.19  -3.61    +97.6483
iter:  99 18:15:06 -2515.360575c -6.36  -3.80    +97.6479
iter: 100 18:15:31 -2515.360772c -5.58  -3.96    +97.6471
iter: 101 18:15:56 -2515.360948c -6.16  -4.13c   +97.6481
iter: 102 18:16:21 -2515.360899c -6.36  -3.59    +97.6476
iter: 103 18:16:47 -2515.361240c -5.58  -3.68    +97.6504
iter: 104 18:17:12 -2515.360871c -5.53  -3.30    +97.6523
iter: 105 18:17:37 -2515.361120c -6.78  -3.23    +97.6516
iter: 106 18:18:02 -2515.361098c -7.12  -3.26    +97.6518
iter: 107 18:18:28 -2515.360969c -7.43c -3.25    +97.6519
iter: 108 18:18:53 -2515.360889c -6.25  -3.27    +97.6519
iter: 109 18:19:18 -2515.361060c -6.53  -3.39    +97.6520
iter: 110 18:19:43 -2515.359847c -5.20  -3.25    +97.6520
iter: 111 18:20:09 -2515.359634c -6.53  -4.09c   +97.6520
iter: 112 18:20:34 -2515.359588c -6.46  -4.03c   +97.6538
iter: 113 18:20:59 -2515.360002c -5.45  -3.95    +97.6589
iter: 114 18:21:24 -2515.359563c -4.95  -3.48    +97.6632
iter: 115 18:21:50 -2515.360128c -6.16  -3.25    +97.6596
iter: 116 18:22:15 -2515.360066c -6.17  -3.40    +97.6570
iter: 117 18:22:40 -2515.360010c -6.11  -3.49    +97.6554
iter: 118 18:23:05 -2515.359787c -6.54  -3.73    +97.6563
iter: 119 18:23:30 -2515.360388c -5.91  -3.70    +97.6528
iter: 120 18:23:56 -2515.360811c -5.66  -4.08c   +97.6496
iter: 121 18:24:21 -2515.360784c -6.17  -4.14c   +97.6490
iter: 122 18:24:46 -2515.360778c -6.87  -4.12c   +97.6490
iter: 123 18:25:11 -2515.360856c -6.78  -4.12c   +97.6491
iter: 124 18:25:36 -2515.360797c -7.07  -4.21c   +97.6490
iter: 125 18:26:01 -2515.360650c -6.96  -3.99    +97.6490
iter: 126 18:26:27 -2515.360789c -6.96  -4.30c   +97.6491
iter: 127 18:26:52 -2515.360699c -7.70c -4.43c   +97.6492

Converged after 127 iterations.

Dipole moment: (-3.957219, -6.841009, -0.002513) |e|*Ang

Total magnetic moment: (0.000000, 0.000000, 97.649209)
Local magnetic moments:
   0 Fe ( 0.000000,  0.000000,  2.826930)
   1 Fe ( 0.000000,  0.000000,  2.748258)
   2 Fe ( 0.000000,  0.000000,  2.751216)
   3 Fe ( 0.000000,  0.000000,  2.831411)
   4 Fe ( 0.000000,  0.000000,  2.826584)
   5 Fe ( 0.000000,  0.000000,  2.748171)
   6 Fe ( 0.000000,  0.000000,  2.751157)
   7 Fe ( 0.000000,  0.000000,  2.833171)
   8 Fe ( 0.000000,  0.000000,  2.826584)
   9 Fe ( 0.000000,  0.000000,  2.748171)
  10 Fe ( 0.000000,  0.000000,  2.751216)
  11 Fe ( 0.000000,  0.000000,  2.833171)
  12 Fe ( 0.000000,  0.000000,  2.826584)
  13 Fe ( 0.000000,  0.000000,  2.748174)
  14 Fe ( 0.000000,  0.000000,  2.751197)
  15 Fe ( 0.000000,  0.000000,  2.833171)
  16 Fe ( 0.000000,  0.000000,  2.826584)
  17 Fe ( 0.000000,  0.000000,  2.748174)
  18 Fe ( 0.000000,  0.000000,  2.751157)
  19 Fe ( 0.000000,  0.000000,  2.833171)
  20 Fe ( 0.000000,  0.000000,  2.827589)
  21 Fe ( 0.000000,  0.000000,  2.748171)
  22 Fe ( 0.000000,  0.000000,  2.751157)
  23 Fe ( 0.000000,  0.000000,  2.831732)
  24 Fe ( 0.000000,  0.000000,  2.826584)
  25 Fe ( 0.000000,  0.000000,  2.748258)
  26 Fe ( 0.000000,  0.000000,  2.751197)
  27 Fe ( 0.000000,  0.000000,  2.833171)
  28 Fe ( 0.000000,  0.000000,  2.827726)
  29 Fe ( 0.000000,  0.000000,  2.748174)
  30 Fe ( 0.000000,  0.000000,  2.751197)
  31 Fe ( 0.000000,  0.000000,  2.831307)
  32 Fe ( 0.000000,  0.000000,  2.826584)
  33 Fe ( 0.000000,  0.000000,  2.748258)
  34 Fe ( 0.000000,  0.000000,  2.751216)
  35 Fe ( 0.000000,  0.000000,  2.833171)

Energy contributions relative to reference atoms: (reference = -1246300.365598)

Kinetic:       +815.161641
Potential:     -710.478784
External:        +0.000000
XC:            -2620.794183
Entropy (-ST):   -1.690011
Local:           +1.595632
--------------------------
Free energy:   -2516.205704
Extrapolated:  -2515.360699

Spin contamination: 2.606609 electrons
Showing only first 2 kpts
                      Up                     Down
 Kpt  Band  Eigenvalues  Occupancy  Eigenvalues  Occupancy
  0   142     -6.41632    1.00000     -3.49345    0.00000
  0   143     -6.35707    1.00000     -3.49172    0.00000
  0   144     -6.32127    1.00000     -3.48689    0.00000
  0   145     -6.28632    1.00000     -3.48683    0.00000

  1   142     -6.42227    1.00000     -3.54786    0.00000
  1   143     -6.42017    1.00000     -3.54198    0.00000
  1   144     -6.42016    1.00000     -3.54191    0.00000
  1   145     -6.40702    1.00000     -3.52696    0.00000


Fermi level: -4.88859

No gap

Forces in eV/Ang:
  0 Fe    0.00000   -0.00000   -0.15963
  1 Fe    0.00006    0.00004    0.04842
  2 Fe    0.00000   -0.00007   -0.01349
  3 Fe    0.00000    0.00000    0.02117
  4 Fe    0.00001   -0.00005   -0.15940
  5 Fe   -0.00000   -0.00006    0.04843
  6 Fe    0.00006    0.00003   -0.01348
  7 Fe    0.00003   -0.00002    0.02139
  8 Fe   -0.00003    0.00003   -0.15940
  9 Fe   -0.00005    0.00003    0.04843
 10 Fe   -0.00006    0.00003   -0.01349
 11 Fe   -0.00000    0.00003    0.02139
 12 Fe   -0.00004    0.00001   -0.15940
 13 Fe    0.00000   -0.00007    0.04843
 14 Fe    0.00003    0.00002   -0.01349
 15 Fe   -0.00003   -0.00002    0.02139
 16 Fe   -0.00001   -0.00005   -0.15940
 17 Fe   -0.00006    0.00003    0.04843
 18 Fe   -0.00006    0.00003   -0.01348
 19 Fe   -0.00003   -0.00002    0.02139
 20 Fe    0.00000   -0.00000   -0.15936
 21 Fe    0.00005    0.00003    0.04843
 22 Fe   -0.00000   -0.00006   -0.01348
 23 Fe    0.00000    0.00000    0.02103
 24 Fe    0.00004    0.00001   -0.15940
 25 Fe   -0.00006    0.00004    0.04842
 26 Fe   -0.00003    0.00002   -0.01349
 27 Fe    0.00003   -0.00002    0.02139
 28 Fe   -0.00000   -0.00000   -0.15932
 29 Fe    0.00006    0.00003    0.04843
 30 Fe    0.00000   -0.00003   -0.01349
 31 Fe    0.00000    0.00000    0.02123
 32 Fe    0.00003    0.00003   -0.15940
 33 Fe    0.00000   -0.00007    0.04842
 34 Fe    0.00006    0.00003   -0.01349
 35 Fe    0.00000    0.00003    0.02139

      Step     Time          Energy         fmax
BFGS:    0 18:27:08    -2515.360699        0.0214
Timing:                              incl.     excl.
-----------------------------------------------------------
Forces:                             15.690    15.690   0.5% |
Hamiltonian:                         6.810     0.001   0.0% |
 Atomic:                             0.000     0.000   0.0% |
  XC Correction:                     0.000     0.000   0.0% |
 Calculate atomic Hamiltonians:      0.000     0.000   0.0% |
 Communicate:                        0.250     0.250   0.0% |
 Hartree integrate/restrict:         0.003     0.003   0.0% |
 Initialize Hamiltonian:             0.000     0.000   0.0% |
 Poisson:                            0.056     0.002   0.0% |
  Communicate from 1D:               0.009     0.009   0.0% |
  Communicate from 2D:               0.008     0.008   0.0% |
  Communicate to 1D:                 0.008     0.008   0.0% |
  Communicate to 2D:                 0.011     0.011   0.0% |
  FFT 1D:                            0.011     0.011   0.0% |
  FFT 2D:                            0.007     0.007   0.0% |
 XC 3D grid:                         6.362     0.319   0.0% |
  VdW-DF integral:                   6.043     0.101   0.0% |
   Convolution:                      0.167     0.167   0.0% |
   FFT:                              0.114     0.114   0.0% |
   gather:                           0.753     0.753   0.0% |
   hmm1:                             0.037     0.037   0.0% |
   hmm2:                             0.063     0.063   0.0% |
   iFFT:                             0.107     0.107   0.0% |
   potential:                        0.561     0.012   0.0% |
    collect:                         0.049     0.049   0.0% |
    p1:                              0.331     0.331   0.0% |
    p2:                              0.107     0.107   0.0% |
    sum:                             0.062     0.062   0.0% |
   splines:                          4.141     4.141   0.1% |
 vbar:                               0.137     0.137   0.0% |
LCAO initialization:                11.427     0.189   0.0% |
 LCAO eigensolver:                   5.765     0.005   0.0% |
  Calculate projections:             0.000     0.000   0.0% |
  DenseAtomicCorrection:             0.000     0.000   0.0% |
  Distribute overlap matrix:         4.911     4.911   0.2% |
  Orbital Layouts:                   0.816     0.816   0.0% |
  Potential matrix:                  0.004     0.004   0.0% |
  Sum over cells:                    0.029     0.029   0.0% |
 LCAO to grid:                       4.916     4.916   0.2% |
 Set positions (LCAO WFS):           0.557     0.419   0.0% |
  Basic WFS set positions:           0.006     0.006   0.0% |
  Basis functions set positions:     0.000     0.000   0.0% |
  P tci:                             0.001     0.001   0.0% |
  ST tci:                            0.066     0.066   0.0% |
  mktci:                             0.065     0.065   0.0% |
SCF-cycle:                        3219.823     0.554   0.0% |
 Davidson:                        2901.750   817.780  25.1% |---------|
  Apply hamiltonian:                89.841    89.841   2.8% ||
  Subspace diag:                   311.013     0.101   0.0% |
   calc_h_matrix:                  161.157    73.920   2.3% ||
    Apply hamiltonian:              87.236    87.236   2.7% ||
   diagonalize:                     19.714    19.714   0.6% |
   rotate_psi:                     130.041   130.041   4.0% |-|
  calc. matrices:                 1278.643   505.345  15.5% |-----|
   Apply hamiltonian:              773.299   773.299  23.8% |---------|
  diagonalize:                     131.135   131.135   4.0% |-|
  rotate_psi:                      273.338   273.338   8.4% |--|
 Density:                           24.764     0.003   0.0% |
  Atomic density matrices:           1.356     1.356   0.0% |
  Mix:                               0.743     0.743   0.0% |
  Multipole moments:                 0.022     0.022   0.0% |
  Pseudo density:                   22.639     5.189   0.2% |
   Symmetrize density:              17.450    17.450   0.5% |
 Hamiltonian:                      288.572     0.056   0.0% |
  Atomic:                            0.034     0.033   0.0% |
   XC Correction:                    0.000     0.000   0.0% |
  Calculate atomic Hamiltonians:     0.037     0.037   0.0% |
  Communicate:                      30.665    30.665   0.9% |
  Hartree integrate/restrict:        0.373     0.373   0.0% |
  Poisson:                           6.850     0.181   0.0% |
   Communicate from 1D:              1.108     1.108   0.0% |
   Communicate from 2D:              1.050     1.050   0.0% |
   Communicate to 1D:                1.017     1.017   0.0% |
   Communicate to 2D:                1.292     1.292   0.0% |
   FFT 1D:                           1.333     1.333   0.0% |
   FFT 2D:                           0.870     0.870   0.0% |
  XC 3D grid:                      250.476    37.379   1.1% |
   VdW-DF integral:                213.097    13.185   0.4% |
    Convolution:                    21.304    21.304   0.7% |
    FFT:                            14.552    14.552   0.4% |
    gather:                         68.089    68.089   2.1% ||
    hmm1:                            4.549     4.549   0.1% |
    hmm2:                            9.419     9.419   0.3% |
    iFFT:                           13.384    13.384   0.4% |
    potential:                      68.614     1.299   0.0% |
     collect:                        5.398     5.398   0.2% |
     p1:                            41.477    41.477   1.3% ||
     p2:                            14.239    14.239   0.4% |
     sum:                            6.203     6.203   0.2% |
    splines:                         0.001     0.001   0.0% |
  vbar:                              0.081     0.081   0.0% |
 Orthonormalize:                     4.183     0.001   0.0% |
  calc_s_matrix:                     0.278     0.278   0.0% |
  inverse-cholesky:                  3.353     3.353   0.1% |
  projections:                       0.000     0.000   0.0% |
  rotate_psi_s:                      0.551     0.551   0.0% |
Set symmetry:                        0.004     0.004   0.0% |
Other:                               1.869     1.869   0.1% |
-----------------------------------------------------------
Total:                                      3255.624 100.0%

Memory usage: 1.11 GiB
Date: Sun Oct  8 18:27:08 2023
