
  ___ ___ ___ _ _ _  
 |   |   |_  | | | | 
 | | | | | . | | | | 
 |__ |  _|___|_____|  22.8.0
 |___|_|             

User:   s204775@c090.nifl.fysik.dtu.dk
Date:   Sun Oct  8 17:42:45 2023
Arch:   x86_64
Pid:    56817
CWD:    /home/cat/s204775/projects/Bachelor_project/clean_slabs
Python: 3.10.4
gpaw:   /home/modules/software/GPAW/22.8.0-intel-2022a/lib/python3.10/site-packages/gpaw
_gpaw:  /home/modules/software/GPAW/22.8.0-intel-2022a/lib/python3.10/site-packages/
        _gpaw.cpython-310-x86_64-linux-gnu.so
ase:    /home/modules/software/ASE/3.22.1-intel-2022a/lib/python3.10/site-packages/ase (version 3.22.1)
numpy:  /home/modules/software/SciPy-bundle/2022.05-intel-2022a/lib/python3.10/site-packages/numpy (version 1.22.3)
scipy:  /home/modules/software/SciPy-bundle/2022.05-intel-2022a/lib/python3.10/site-packages/scipy (version 1.8.1)
libxc:  5.2.3
units:  Angstrom and eV
cores: 40
OpenMP: False
OMP_NUM_THREADS: 1

Input parameters:
  basis: dzp
  h: 0.18
  kpts: {size: (4, 4, 1)}
  maxiter: 3000
  xc: BEEF-vdW

System changes: positions, numbers, cell, pbc, initial_charges, initial_magmoms 

Initialize ...

species:
  Ni:
    name: Nickel
    id: 0d9f38a9d6e76a2886f07bb4381f212b
    Z: 28.0
    valence: 16
    core: 12
    charge: 0.0
    file: /home/modules/software/GPAW-setups/0.9.20000/Ni.PBE.gz
    compensation charges: {type: gauss,
                           rc: 0.36,
                           lmax: 2}
    cutoffs: {filter: 2.14,
              core: 1.98}
    valence states:
      #              energy  rcut
      - 4s(2.00)    -5.642   1.164
      - 3p(6.00)   -71.394   1.207
      - 4p(0.00)    -1.226   1.207
      - 3d(8.00)    -8.875   1.138
      -  s          21.570   1.164
      -  d          18.337   1.138
  
    # LCAO basis set for Ni:
    #   Name: dzp
    #   File: /home/modules/software/GPAW-setups/0.9.20000/Ni.dzp.basis.gz
    #   Number of radial functions: 9
    #   Number of spherical harmonics: 27
    #     l=0, rc=8.5156 Bohr: 4s-sz confined orbital
    #     l=1, rc=2.9375 Bohr: 3p-sz confined orbital
    #     l=1, rc=12.4062 Bohr: 4p-sz confined orbital
    #     l=2, rc=4.6875 Bohr: 3d-sz confined orbital
    #     l=0, rc=4.9688 Bohr: 4s-dz split-valence wave
    #     l=1, rc=2.0781 Bohr: 3p-dz split-valence wave
    #     l=1, rc=7.5469 Bohr: 4p-dz split-valence wave
    #     l=2, rc=2.9375 Bohr: 3d-dz split-valence wave
    #     l=1, rc=8.5156 Bohr: p-type Gaussian polarization
    #   Number of RI-basis functions 0

Reference energy: -1489247.944103  # eV

Spin-polarized calculation.
Magnetic moment: 24.133853

Convergence criteria:
 Maximum [total energy] change in last 3 cyles: 0.0005 eV / electron
 Maximum integral of absolute [dens]ity change: 0.0001 electrons / valence electron
 Maximum integral of absolute [eigenst]ate change: 4e-08 eV^2 / valence electron
 Maximum number of scf [iter]ations: 3000
 (Square brackets indicate name in SCF output, whereas a 'c' in
 the SCF output indicates the quantity has converged.)

Symmetries present (total): 6

  ( 1  1  0)  ( 1  0  0)  ( 0  1  0)  ( 0 -1  0)  (-1  0  0)  (-1 -1  0)
  ( 0 -1  0)  ( 0  1  0)  (-1 -1  0)  (-1  0  0)  ( 1  1  0)  ( 1  0  0)
  ( 0  0  1)  ( 0  0  1)  ( 0  0  1)  ( 0  0  1)  ( 0  0  1)  ( 0  0  1)
Note: your k-points are not as symmetric as your crystal!

16 k-points: 4 x 4 x 1 Monkhorst-Pack grid
6 k-points in the irreducible part of the Brillouin zone
       k-points in crystal coordinates                weights
   0:     0.12500000   -0.12500000    0.00000000          2/16
   1:     0.12500000    0.12500000    0.00000000          2/16
   2:     0.37500000   -0.37500000    0.00000000          2/16
   3:     0.37500000   -0.12500000    0.00000000          4/16
   4:     0.37500000    0.12500000    0.00000000          4/16
   5:     0.37500000    0.37500000    0.00000000          2/16

Wave functions: Uniform real-space grid
  Kinetic energy operator: 8*3+1=25 point O(h^6) finite-difference Laplacian
  ScaLapack parameters: grid=1x1, blocksize=None
  Wavefunction extrapolation:
    Improved wavefunction reuse through dual PAW basis 

Occupation numbers: Fermi-Dirac:
  width: 0.1000  # eV
 

Eigensolver
   Davidson(niter=2) 

Densities:
  Coarse grid: 36*36*144 grid
  Fine grid: 72*72*288 grid
  Total Charge: 0.000000 

Density mixing:
  Method: difference
  Backend: pulay
  Linear mixing parameter: 0.05
  old densities: 5
  Damping of long wavelength oscillations: 50 

Hamiltonian:
  XC and Coulomb potentials evaluated on a 72*72*288 grid
  Using the BEEF-vdW Exchange-Correlation functional
  Interpolation: tri-quintic (5. degree polynomial)
  Poisson solver: FastPoissonSolver using
    Stencil: 8*3+1=25 point O(h^6) finite-difference Laplacian
    FFT axes: [0, 1]
    FST axes: [2]
 

XC parameters: BEEF-vdW with 2 nearest neighbor stencil

Memory estimate:
  Process memory now: 179.55 MiB
  Calculator: 391.58 MiB
    Density: 11.85 MiB
      Arrays: 2.46 MiB
      Localized functions: 8.42 MiB
      Mixer: 0.97 MiB
    Hamiltonian: 2.48 MiB
      Arrays: 1.83 MiB
      XC: 0.00 MiB
      Poisson: 0.00 MiB
      vbar: 0.65 MiB
    Wavefunctions: 377.26 MiB
      Arrays psit_nG: 303.16 MiB
      Eigensolver: 71.56 MiB
      Projections: 1.08 MiB
      Projectors: 1.46 MiB

Total number of cores used: 40
Parallelization over k-points: 2
Domain decomposition: 2 x 2 x 5

Number of atoms: 36
Number of atomic orbitals: 972
Number of bands in calculation: 365
Number of valence electrons: 576
Bands to converge: occupied

... initialized

Initializing position-dependent things.

Density initialized from atomic densities
Creating initial wave functions:
  365 bands from LCAO basis set

                                          
                                          
                                          
                                          
          Ni    Ni    Ni                  
                                          
           NNi   NNi   NNi                
             NNi   NNi   NNi              
                                          
             NNi    NNi   NNi             
               Ni     Ni    Ni            
                                          
          Ni    NNi   NNi     Ni          
            Ni    Ni    Ni                
              Ni    Ni    Ni              
                                          
                                          
                                          
                                          

Positions:
   0 Ni    -0.000000    0.000000   10.000000    ( 0.0000,  0.0000,  0.6703)
   1 Ni     1.261746    0.728469   12.060422    ( 0.0000,  0.0000,  0.6693)
   2 Ni    -0.000000    1.456879   14.115099    ( 0.0000,  0.0000,  0.6697)
   3 Ni    -0.000000    0.000000   16.159108    ( 0.0000,  0.0000,  0.6722)
   4 Ni    -1.261746    2.185408   10.000000    ( 0.0000,  0.0000,  0.6703)
   5 Ni    -0.000000    2.913877   12.060422    ( 0.0000,  0.0000,  0.6693)
   6 Ni    -1.261752    3.642342   14.115047    ( 0.0000,  0.0000,  0.6697)
   7 Ni    -1.261722    2.185367   16.159160    ( 0.0000,  0.0000,  0.6722)
   8 Ni    -2.523491    4.370815   10.000000    ( 0.0000,  0.0000,  0.6703)
   9 Ni    -1.261746    5.099284   12.060422    ( 0.0000,  0.0000,  0.6693)
  10 Ni    -2.523542    5.827783   14.115099    ( 0.0000,  0.0000,  0.6697)
  11 Ni    -2.523515    4.370856   16.159160    ( 0.0000,  0.0000,  0.6722)
  12 Ni     2.523491    0.000000   10.000000    ( 0.0000,  0.0000,  0.6703)
  13 Ni     3.785237    0.728469   12.060422    ( 0.0000,  0.0000,  0.6693)
  14 Ni     2.523448    1.456914   14.115068    ( 0.0000,  0.0000,  0.6697)
  15 Ni     2.523444    0.000000   16.159160    ( 0.0000,  0.0000,  0.6722)
  16 Ni     1.261746    2.185408   10.000000    ( 0.0000,  0.0000,  0.6703)
  17 Ni     2.523491    2.913877   12.060422    ( 0.0000,  0.0000,  0.6693)
  18 Ni     1.261752    3.642342   14.115047    ( 0.0000,  0.0000,  0.6697)
  19 Ni     1.261722    2.185367   16.159160    ( 0.0000,  0.0000,  0.6722)
  20 Ni    -0.000000    4.370815   10.000000    ( 0.0000,  0.0000,  0.6703)
  21 Ni     1.261746    5.099284   12.060422    ( 0.0000,  0.0000,  0.6693)
  22 Ni    -0.000000    5.827761   14.115047    ( 0.0000,  0.0000,  0.6697)
  23 Ni    -0.000000    4.370815   16.159174    ( 0.0000,  0.0000,  0.6722)
  24 Ni     5.046982    0.000000   10.000000    ( 0.0000,  0.0000,  0.6703)
  25 Ni     6.308728    0.728469   12.060422    ( 0.0000,  0.0000,  0.6693)
  26 Ni     5.047025    1.456914   14.115068    ( 0.0000,  0.0000,  0.6697)
  27 Ni     5.047030    0.000000   16.159160    ( 0.0000,  0.0000,  0.6722)
  28 Ni     3.785237    2.185408   10.000000    ( 0.0000,  0.0000,  0.6703)
  29 Ni     5.046982    2.913877   12.060422    ( 0.0000,  0.0000,  0.6693)
  30 Ni     3.785237    3.642395   14.115068    ( 0.0000,  0.0000,  0.6697)
  31 Ni     3.785237    2.185408   16.159114    ( 0.0000,  0.0000,  0.6722)
  32 Ni     2.523491    4.370815   10.000000    ( 0.0000,  0.0000,  0.6703)
  33 Ni     3.785237    5.099284   12.060422    ( 0.0000,  0.0000,  0.6693)
  34 Ni     2.523542    5.827783   14.115099    ( 0.0000,  0.0000,  0.6697)
  35 Ni     2.523515    4.370856   16.159160    ( 0.0000,  0.0000,  0.6722)

Unit cell:
           periodic     x           y           z      points  spacing
  1. axis:    yes    7.570474    0.000000    0.000000    36     0.1821
  2. axis:    yes   -3.785237    6.556223    0.000000    36     0.1821
  3. axis:    no     0.000000    0.000000   26.181266   144     0.1818

  Lengths:   7.570474   7.570474  26.181266
  Angles:   90.000000  90.000000 120.000000

Effective grid spacing dv^(1/3) = 0.1910

     iter     time        total  log10-change:  magmom
                         energy  eigst   dens
iter:   1 17:44:52 -2725.400911                  +23.8928
iter:   2 17:45:42 -2721.005365  -0.17  -1.43    +20.8432
iter:   3 17:46:32 -2727.820769  -0.37  -1.52    +20.2345
iter:   4 17:47:21 -2765.389270  -0.71  -1.83    +19.8584
iter:   5 17:48:11 -2722.786572  -1.22  -1.54    +16.9611
iter:   6 17:49:01 -2718.834333  -1.45  -1.77    +17.8185
iter:   7 17:49:51 -2722.813108  -1.53  -1.91    +19.2469
iter:   8 17:50:41 -2769.768788  -1.18  -1.93    +20.2884
iter:   9 17:51:30 -2732.059683  -2.20  -1.53    +16.9416
iter:  10 17:52:20 -2724.325407  -1.36  -1.79    +12.3669
iter:  11 17:53:10 -2719.737181  -1.83  -1.94    +13.1699
iter:  12 17:54:00 -2716.402974  -2.48  -2.06    +14.4710
iter:  13 17:54:49 -2716.223427  -2.45  -2.38    +18.7873
iter:  14 17:55:39 -2716.010103  -3.44  -2.34    +18.4639
iter:  15 17:56:29 -2716.478026  -2.82  -2.44    +21.2713
iter:  16 17:57:18 -2716.739167  -2.59  -2.47    +23.9321
iter:  17 17:58:08 -2716.039906  -2.50  -2.45    +24.5326
iter:  18 17:58:58 -2716.134551  -3.49  -2.66    +24.0867
iter:  19 17:59:48 -2716.351008  -3.13  -2.72    +23.6541
iter:  20 18:00:37 -2716.335754c -3.23  -2.82    +23.7823
iter:  21 18:01:27 -2716.299065c -3.42  -2.89    +23.9007
iter:  22 18:02:17 -2716.482589c -3.87  -3.06    +23.9081
iter:  23 18:03:07 -2716.305729c -3.82  -2.81    +23.9691
iter:  24 18:03:57 -2716.311837c -4.26  -3.13    +23.9994
iter:  25 18:04:46 -2716.339827c -4.54  -3.10    +24.0276
iter:  26 18:05:36 -2716.329324c -5.21  -3.03    +24.0334
iter:  27 18:06:26 -2716.411320c -4.67  -3.05    +24.0501
iter:  28 18:07:16 -2716.294914c -4.19  -2.84    +24.0455
iter:  29 18:08:05 -2716.297303c -4.85  -3.29    +24.0537
iter:  30 18:08:55 -2716.293245c -4.50  -3.34    +24.0599
iter:  31 18:09:45 -2716.301753c -4.68  -3.35    +24.0504
iter:  32 18:10:34 -2716.318376c -3.91  -3.31    +24.0562
iter:  33 18:11:24 -2716.262915c -4.82  -3.02    +24.0437
iter:  34 18:12:14 -2716.249325c -4.94  -3.43    +24.0413
iter:  35 18:13:04 -2716.354192c -3.66  -3.44    +24.0586
iter:  36 18:13:53 -2716.302734c -2.87  -3.10    +23.9544
iter:  37 18:14:43 -2716.293196c -3.46  -2.73    +23.9316
iter:  38 18:15:33 -2716.257435c -4.12  -2.70    +23.9077
iter:  39 18:16:23 -2716.293717c -4.73  -2.73    +23.8868
iter:  40 18:17:12 -2716.220497c -4.92  -2.73    +23.8960
iter:  41 18:18:02 -2716.272719c -4.73  -2.81    +23.8973
iter:  42 18:18:52 -2716.069885c -3.58  -2.73    +23.9071
iter:  43 18:19:41 -2716.014243c -4.16  -2.87    +23.9168
iter:  44 18:20:31 -2715.998317c -4.65  -3.19    +23.9526
iter:  45 18:21:21 -2716.123052c -3.84  -3.19    +23.8118
iter:  46 18:22:11 -2716.338028  -3.07  -3.63    +23.7966
iter:  47 18:23:00 -2716.518262  -3.01  -3.14    +23.9601
iter:  48 18:23:50 -2716.160692  -2.63  -2.82    +23.6675
iter:  49 18:24:40 -2716.258469  -3.87  -2.95    +23.8216
iter:  50 18:25:30 -2716.315754c -3.27  -3.19    +24.0582
iter:  51 18:26:19 -2716.274028c -4.33  -3.38    +23.9500
iter:  52 18:27:09 -2716.302183c -4.71  -3.49    +23.9862
iter:  53 18:27:59 -2716.285156c -5.26  -3.31    +23.9917
iter:  54 18:28:49 -2716.270873c -4.61  -3.53    +24.0349
iter:  55 18:29:38 -2716.370144c -3.71  -3.68    +23.9986
iter:  56 18:30:28 -2716.334752c -4.44  -3.04    +24.0339
iter:  57 18:31:18 -2716.411896c -4.08  -3.23    +24.0993
iter:  58 18:32:07 -2716.390321c -4.20  -2.96    +24.0428
iter:  59 18:32:57 -2716.466077c -3.62  -3.00    +24.0342
iter:  60 18:33:47 -2716.298862c -3.10  -2.83    +24.0598
iter:  61 18:34:36 -2716.293510c -3.29  -3.41    +24.0652
iter:  62 18:35:26 -2716.299302c -3.88  -3.07    +24.0627
iter:  63 18:36:16 -2716.231974c -4.14  -3.04    +24.0448
iter:  64 18:37:05 -2716.244371c -4.68  -3.08    +24.0809
iter:  65 18:37:55 -2716.246496c -4.40  -3.16    +24.0108
iter:  66 18:38:45 -2716.273074c -4.07  -3.28    +23.9951
iter:  67 18:39:34 -2716.243552c -5.12  -3.31    +24.0087
iter:  68 18:40:24 -2716.251807c -5.47  -3.53    +23.9957
iter:  69 18:41:14 -2716.204193c -4.38  -3.46    +24.0497
iter:  70 18:42:03 -2716.344421c -3.39  -3.55    +23.9836
iter:  71 18:42:53 -2716.348581c -3.72  -3.12    +24.0108
iter:  72 18:43:43 -2716.376772c -3.73  -3.11    +24.0571
iter:  73 18:44:33 -2716.680421  -2.96  -2.98    +24.1648
iter:  74 18:45:22 -2716.404446  -3.16  -2.61    +24.0535
iter:  75 18:46:12 -2716.428897c -3.85  -2.98    +24.0409
iter:  76 18:47:01 -2716.612111c -3.89  -2.89    +24.0722
iter:  77 18:47:51 -2716.190553  -2.76  -2.71    +23.9771
iter:  78 18:48:41 -2715.981359  -2.20  -3.70    +23.7478
iter:  79 18:49:31 -2716.513766  -2.18  -2.56    +24.1249
iter:  80 18:50:20 -2716.040846  -2.51  -2.79    +23.6232
iter:  81 18:51:10 -2715.942511  -2.61  -2.72    +23.3299
iter:  82 18:52:00 -2716.168321c -2.54  -2.53    +23.9677
iter:  83 18:52:49 -2716.749781  -2.02  -3.22    +24.8913
iter:  84 18:53:39 -2716.197278  -2.50  -2.57    +23.9302
iter:  85 18:54:29 -2716.199360  -3.42  -3.30    +23.8614
iter:  86 18:55:18 -2716.205477c -4.55  -3.11    +23.8803
iter:  87 18:56:08 -2716.201700c -5.23  -3.20    +23.8912
iter:  88 18:56:58 -2716.197653c -3.72  -3.26    +23.8895
iter:  89 18:57:47 -2716.226887c -3.75  -3.16    +23.9261
iter:  90 18:58:37 -2716.256587c -4.18  -3.55    +23.9485
iter:  91 18:59:27 -2716.350963c -3.00  -3.50    +24.0784
iter:  92 19:00:16 -2716.242871c -3.13  -3.00    +23.9456
iter:  93 19:01:06 -2716.253248c -4.21  -3.49    +23.9625
iter:  94 19:01:56 -2716.272910c -4.67  -3.66    +23.9838
iter:  95 19:02:45 -2716.216995c -3.93  -3.76    +23.9565
iter:  96 19:03:35 -2716.429716c -3.03  -3.54    +24.0679
iter:  97 19:04:25 -2715.938519  -2.12  -2.92    +23.7254
iter:  98 19:05:14 -2716.901196  -1.86  -2.62    +24.3303
iter:  99 19:06:04 -2717.656479  -1.99  -2.50    +24.5246
iter: 100 19:06:53 -2717.213233  -3.17  -2.26    +24.2484
iter: 101 19:07:43 -2717.529566  -3.44  -2.38    +24.1731
iter: 102 19:08:32 -2717.692046  -4.02  -2.32    +24.1557
iter: 103 19:09:22 -2716.701010  -3.62  -2.30    +24.1176
iter: 104 19:10:11 -2716.403784  -3.61  -2.40    +24.0190
iter: 105 19:11:01 -2714.808735  -3.11  -2.40    +23.7184
iter: 106 19:11:50 -2714.801294  -3.40  -2.73    +23.7836
iter: 107 19:12:40 -2715.318014  -3.18  -2.76    +22.9829
iter: 108 19:13:29 -2716.394412  -2.27  -2.96    +22.6582
iter: 109 19:14:19 -2716.166720  -3.22  -2.68    +23.0427
iter: 110 19:15:08 -2716.263850c -3.31  -3.05    +23.4281
iter: 111 19:15:58 -2716.338714c -2.95  -3.10    +23.9404
iter: 112 19:16:47 -2716.400389c -3.42  -3.12    +23.9836
iter: 113 19:17:37 -2716.329502c -4.15  -2.83    +23.9840
iter: 114 19:18:26 -2716.397349c -4.32  -2.99    +23.9960
iter: 115 19:19:16 -2716.426169c -4.73  -2.81    +24.0011
iter: 116 19:20:05 -2716.362375c -3.93  -2.77    +24.0150
iter: 117 19:20:55 -2716.401388c -3.75  -2.98    +24.0531
iter: 118 19:21:44 -2716.476195c -4.27  -2.86    +24.0453
iter: 119 19:22:33 -2716.244334c -3.33  -2.75    +24.0925
iter: 120 19:23:23 -2716.352813c -3.78  -3.30    +24.0609
iter: 121 19:24:12 -2716.364538c -3.82  -2.94    +24.0644
iter: 122 19:25:02 -2716.357750c -3.88  -2.94    +24.0679
iter: 123 19:25:51 -2716.361500c -4.17  -2.97    +24.0689
iter: 124 19:26:41 -2716.457001c -4.05  -2.99    +24.0728
iter: 125 19:27:30 -2716.388611c -4.29  -2.79    +24.0736
iter: 126 19:28:20 -2716.409563c -4.57  -2.96    +24.0753
iter: 127 19:29:09 -2716.362249c -3.87  -2.90    +24.0722
iter: 128 19:29:59 -2716.277854c -3.43  -2.91    +24.0711
iter: 129 19:30:48 -2716.257539c -4.19  -3.02    +24.0216
iter: 130 19:31:38 -2716.284802c -4.11  -3.43    +24.0243
iter: 131 19:32:27 -2716.324417c -3.95  -3.47    +24.0572
iter: 132 19:33:17 -2716.290448c -4.83  -3.25    +24.0406
iter: 133 19:34:06 -2716.283080c -4.39  -3.60    +24.0400
iter: 134 19:34:55 -2716.328285c -4.10  -3.48    +24.0572
iter: 135 19:35:45 -2716.251713c -3.46  -3.18    +24.0158
iter: 136 19:36:34 -2716.235985c -4.47  -3.27    +24.0177
iter: 137 19:37:24 -2716.220584c -4.91  -3.60    +24.0247
iter: 138 19:38:13 -2716.274236c -4.02  -3.65    +24.0339
iter: 139 19:39:03 -2716.350341c -3.67  -3.56    +24.0470
iter: 140 19:39:52 -2716.319704c -4.88  -3.11    +24.0389
iter: 141 19:40:42 -2716.303904c -4.60  -3.28    +24.0478
iter: 142 19:41:31 -2716.404625c -3.94  -3.41    +24.0568
iter: 143 19:42:21 -2716.217458c -3.29  -3.00    +24.0297
iter: 144 19:43:10 -2716.498410c -2.80  -3.76    +24.1048
iter: 145 19:44:00 -2716.558332  -3.13  -2.80    +24.1289
iter: 146 19:44:49 -2716.605547c -3.90  -2.69    +24.1153
iter: 147 19:45:39 -2716.746151c -3.93  -2.68    +24.1164
iter: 148 19:46:28 -2716.513043c -3.54  -2.60    +24.0959
iter: 149 19:47:18 -2716.377935  -3.25  -2.79    +24.0907
iter: 150 19:48:07 -2716.521457c -3.59  -3.01    +24.1059
iter: 151 19:48:57 -2716.509993c -3.91  -2.75    +24.0982
iter: 152 19:49:46 -2716.519120c -3.37  -2.73    +24.0688
iter: 153 19:50:36 -2717.177096  -3.00  -2.65    +23.9947
iter: 154 19:51:25 -2716.743199  -3.38  -2.42    +24.0534
iter: 155 19:52:15 -2716.293582  -2.90  -2.59    +24.1041
iter: 156 19:53:04 -2716.347808  -3.41  -3.02    +24.0470
iter: 157 19:53:54 -2716.246845c -3.90  -2.81    +24.0261
iter: 158 19:54:43 -2716.267698c -4.03  -2.92    +24.0019
iter: 159 19:55:33 -2716.242617c -3.76  -2.92    +24.0007
iter: 160 19:56:22 -2716.229707c -4.34  -2.99    +24.0006
iter: 161 19:57:12 -2716.164055c -3.75  -2.99    +23.9971
iter: 162 19:58:01 -2716.141793c -4.13  -3.35    +24.0091
iter: 163 19:58:51 -2716.273316c -3.72  -3.43    +23.9535
iter: 164 19:59:40 -2716.414374c -2.88  -3.30    +24.0115
iter: 165 20:00:30 -2716.447804c -3.36  -2.95    +24.0676
iter: 166 20:01:19 -2716.787839  -3.37  -2.89    +24.1184
iter: 167 20:02:09 -2716.615032  -4.40  -2.65    +24.0942
iter: 168 20:02:58 -2716.425876  -4.15  -2.73    +24.0862
iter: 169 20:03:48 -2716.246214  -3.87  -2.85    +24.0873
iter: 170 20:04:37 -2716.263389c -4.62  -3.10    +24.0832
iter: 171 20:05:27 -2716.220430c -4.12  -3.05    +24.0529
iter: 172 20:06:16 -2716.203834c -4.56  -3.27    +24.0503
iter: 173 20:07:05 -2716.213378c -4.29  -3.72    +24.0302
iter: 174 20:07:55 -2716.213666c -3.96  -3.30    +24.0205
iter: 175 20:08:44 -2716.256023c -4.28  -3.23    +24.0128
iter: 176 20:09:34 -2716.223977c -4.10  -3.33    +24.0019
iter: 177 20:10:23 -2716.204578c -3.34  -3.08    +23.9601
iter: 178 20:11:13 -2716.242426c -4.00  -2.79    +23.9201
iter: 179 20:12:02 -2716.157346c -3.68  -2.76    +23.9026
iter: 180 20:12:52 -2716.194340c -4.61  -2.82    +23.9082
iter: 181 20:13:41 -2716.208171c -4.26  -2.82    +23.9332
iter: 182 20:14:30 -2716.286963c -3.34  -2.88    +23.9435
iter: 183 20:15:20 -2716.162068c -4.30  -2.88    +23.9358
iter: 184 20:16:09 -2716.162788c -4.94  -3.05    +23.9458
iter: 185 20:16:59 -2716.186403c -4.13  -3.09    +23.8999
iter: 186 20:17:48 -2716.267318c -3.54  -3.21    +23.9237
iter: 187 20:18:38 -2716.143224c -4.18  -3.07    +23.9131
iter: 188 20:19:27 -2716.187610c -4.10  -3.38    +23.8858
iter: 189 20:20:17 -2716.262531c -4.04  -3.24    +23.9264
iter: 190 20:21:06 -2716.433104c -2.69  -3.12    +24.1494
iter: 191 20:21:55 -2716.510104c -3.38  -2.78    +24.0990
iter: 192 20:22:45 -2716.548182c -3.73  -2.78    +24.1162
iter: 193 20:23:34 -2717.016787  -2.72  -2.75    +24.2024
iter: 194 20:24:24 -2717.010116  -3.86  -2.51    +24.1550
iter: 195 20:25:13 -2717.336784  -3.06  -2.53    +24.2336
iter: 196 20:26:03 -2717.267046  -3.78  -2.42    +24.1763
iter: 197 20:26:52 -2716.959106  -3.57  -2.45    +24.1715
iter: 198 20:27:42 -2716.501093  -3.22  -2.47    +24.0788
iter: 199 20:28:31 -2715.998112  -3.72  -2.50    +24.0232
iter: 200 20:29:20 -2715.588704  -3.06  -2.64    +23.8854
iter: 201 20:30:10 -2715.643054  -3.23  -2.73    +24.0524
iter: 202 20:30:59 -2715.424126c -3.65  -2.83    +24.0766
iter: 203 20:31:49 -2715.572509c -3.59  -3.11    +23.8292
iter: 204 20:32:38 -2715.278497  -2.45  -3.17    +23.5994
iter: 205 20:33:28 -2715.404326  -3.12  -2.76    +22.2796
iter: 206 20:34:17 -2715.915056  -2.72  -2.89    +20.3011
iter: 207 20:35:07 -2716.140058  -3.12  -2.81    +21.1915
iter: 208 20:35:56 -2716.204018  -3.66  -2.75    +21.1938
iter: 209 20:36:45 -2716.457837  -3.14  -2.72    +21.9158
iter: 210 20:37:35 -2716.062603  -3.26  -2.59    +22.0797
iter: 211 20:38:24 -2716.151012  -3.18  -2.79    +22.9137
iter: 212 20:39:14 -2716.266100c -3.48  -2.90    +22.8259
iter: 213 20:40:03 -2716.663100  -2.90  -2.78    +23.2258
iter: 214 20:40:53 -2716.225715  -3.59  -2.50    +23.2689
iter: 215 20:41:42 -2716.243762  -3.59  -2.89    +23.6225
iter: 216 20:42:32 -2716.303912c -3.54  -3.16    +23.7864
iter: 217 20:43:21 -2716.322905c -3.81  -3.14    +23.8597
iter: 218 20:44:10 -2716.300421c -3.85  -3.09    +23.9398
iter: 219 20:45:00 -2716.299296c -4.12  -3.26    +23.9877
iter: 220 20:45:49 -2716.340361c -4.23  -3.30    +24.0119
iter: 221 20:46:39 -2716.326567c -4.10  -3.13    +24.0475
iter: 222 20:47:28 -2716.332276c -4.87  -3.26    +24.0628
iter: 223 20:48:18 -2716.345095c -4.82  -3.16    +24.0767
iter: 224 20:49:07 -2716.398120c -4.60  -3.09    +24.0805
iter: 225 20:49:57 -2716.381404c -5.25  -2.92    +24.0876
iter: 226 20:50:46 -2716.420588c -4.40  -2.96    +24.1043
iter: 227 20:51:36 -2716.324806c -4.18  -2.86    +24.0793
iter: 228 20:52:25 -2716.291195c -4.62  -3.16    +24.0890
iter: 229 20:53:14 -2716.288002c -4.77  -3.37    +24.0884
iter: 230 20:54:04 -2716.278797c -4.76  -3.48    +24.0931
iter: 231 20:54:53 -2716.282779c -5.07  -3.48    +24.0928
iter: 232 20:55:43 -2716.300661c -4.32  -3.57    +24.0875
iter: 233 20:56:32 -2716.301045c -4.39  -3.41    +24.0880
iter: 234 20:57:22 -2716.305974c -4.62  -3.54    +24.0887
iter: 235 20:58:11 -2716.309710c -4.35  -3.64    +24.0963
iter: 236 20:59:00 -2716.309858c -5.02  -3.68    +24.0995
iter: 237 20:59:50 -2716.311356c -4.88  -3.92    +24.1046
iter: 238 21:00:39 -2716.310083c -5.73  -3.76    +24.1059
iter: 239 21:01:29 -2716.310420c -5.60  -3.97    +24.1074
iter: 240 21:02:18 -2716.310459c -5.75  -4.15c   +24.1077
iter: 241 21:03:08 -2716.310769c -6.36  -3.97    +24.1079
iter: 242 21:03:58 -2716.310739c -5.33  -3.95    +24.1085
iter: 243 21:04:47 -2716.311294c -6.30  -4.13c   +24.1078
iter: 244 21:05:36 -2716.311102c -6.15  -4.10c   +24.1081
iter: 245 21:06:26 -2716.310466c -6.43  -4.03c   +24.1081
iter: 246 21:07:15 -2716.310199c -7.06  -4.18c   +24.1072
iter: 247 21:08:05 -2716.309983c -6.73  -4.25c   +24.1069
iter: 248 21:08:54 -2716.310014c -6.82  -4.24c   +24.1069
iter: 249 21:09:44 -2716.310228c -6.63  -4.31c   +24.1069
iter: 250 21:10:33 -2716.310070c -7.14  -4.16c   +24.1071
iter: 251 21:11:22 -2716.311138c -6.04  -4.24c   +24.1072
iter: 252 21:12:12 -2716.310689c -6.78  -4.23c   +24.1073
iter: 253 21:13:01 -2716.311730c -6.70  -4.16c   +24.1073
iter: 254 21:13:51 -2716.310939c -6.66  -4.01c   +24.1074
iter: 255 21:14:40 -2716.310741c -6.30  -4.28c   +24.1075
iter: 256 21:15:30 -2716.310494c -6.93  -4.27c   +24.1073
iter: 257 21:16:19 -2716.310563c -7.19  -4.44c   +24.1070
iter: 258 21:17:09 -2716.310582c -6.51  -4.49c   +24.1067
iter: 259 21:17:58 -2716.310368c -6.78  -4.42c   +24.1069
iter: 260 21:18:48 -2716.310283c -6.56  -4.67c   +24.1069
iter: 261 21:19:37 -2716.310510c -6.04  -4.65c   +24.1067
iter: 262 21:20:26 -2716.310053c -5.00  -4.41c   +24.1069
iter: 263 21:21:16 -2716.309494c -5.14  -3.93    +24.1060
iter: 264 21:22:05 -2716.310414c -4.84  -3.80    +24.1081
iter: 265 21:22:55 -2716.310227c -4.23  -4.43c   +24.1029
iter: 266 21:23:44 -2716.310792c -4.84  -3.47    +24.1005
iter: 267 21:24:34 -2716.310679c -5.80  -3.41    +24.1000
iter: 268 21:25:23 -2716.309647c -5.79  -3.44    +24.0995
iter: 269 21:26:13 -2716.309055c -6.33  -3.52    +24.0995
iter: 270 21:27:02 -2716.308492c -7.09  -3.55    +24.0995
iter: 271 21:27:51 -2716.301781c -5.25  -3.54    +24.1006
iter: 272 21:28:41 -2716.302652c -5.87  -4.06c   +24.0994
iter: 273 21:29:30 -2716.310117c -5.33  -3.78    +24.0982
iter: 274 21:30:19 -2716.311591c -5.79  -3.47    +24.0996
iter: 275 21:31:09 -2716.303543c -5.36  -3.45    +24.1000
iter: 276 21:31:58 -2716.300475c -5.97  -3.75    +24.1000
iter: 277 21:32:48 -2716.302137c -5.47  -3.78    +24.0949
iter: 278 21:33:37 -2716.308533c -4.54  -4.03c   +24.0941
iter: 279 21:34:26 -2716.310523c -4.83  -4.27c   +24.1000
iter: 280 21:35:16 -2716.312395c -4.94  -4.03c   +24.1038
iter: 281 21:36:05 -2716.311385c -5.95  -3.79    +24.1031
iter: 282 21:36:55 -2716.313499c -5.74  -3.89    +24.1045
iter: 283 21:37:44 -2716.312105c -6.01  -3.72    +24.1043
iter: 284 21:38:33 -2716.313219c -5.67  -3.86    +24.1060
iter: 285 21:39:23 -2716.310399c -5.90  -3.72    +24.1060
iter: 286 21:40:12 -2716.309985c -5.53  -3.97    +24.1062
iter: 287 21:41:01 -2716.309825c -6.26  -4.36c   +24.1062
iter: 288 21:41:51 -2716.310340c -6.17  -4.56c   +24.1066
iter: 289 21:42:40 -2716.310711c -5.61  -4.36c   +24.1069
iter: 290 21:43:29 -2716.310869c -6.03  -4.19c   +24.1069
iter: 291 21:44:19 -2716.310272c -6.19  -4.18c   +24.1070
iter: 292 21:45:08 -2716.310293c -6.24  -4.41c   +24.1069
iter: 293 21:45:58 -2716.310198c -6.58  -4.50c   +24.1068
iter: 294 21:46:47 -2716.310674c -6.07  -4.36c   +24.1079
iter: 295 21:47:36 -2716.310618c -6.02  -4.60c   +24.1079
iter: 296 21:48:26 -2716.310604c -6.73  -4.70c   +24.1071
iter: 297 21:49:15 -2716.310293c -6.48  -4.71c   +24.1067
iter: 298 21:50:05 -2716.310430c -7.39  -4.68c   +24.1067
iter: 299 21:50:55 -2716.310343c -6.72  -4.71c   +24.1066
iter: 300 21:51:44 -2716.310327c -7.42c -4.89c   +24.1065

Converged after 300 iterations.

Dipole moment: (-2.558477, -4.440828, 0.001989) |e|*Ang

Total magnetic moment: (0.000000, 0.000000, 24.106531)
Local magnetic moments:
   0 Ni ( 0.000000,  0.000000,  0.723605)
   1 Ni ( 0.000000,  0.000000,  0.720936)
   2 Ni ( 0.000000,  0.000000,  0.721274)
   3 Ni ( 0.000000,  0.000000,  0.724095)
   4 Ni ( 0.000000,  0.000000,  0.723870)
   5 Ni ( 0.000000,  0.000000,  0.721066)
   6 Ni ( 0.000000,  0.000000,  0.721348)
   7 Ni ( 0.000000,  0.000000,  0.724251)
   8 Ni ( 0.000000,  0.000000,  0.723870)
   9 Ni ( 0.000000,  0.000000,  0.721066)
  10 Ni ( 0.000000,  0.000000,  0.721274)
  11 Ni ( 0.000000,  0.000000,  0.724251)
  12 Ni ( 0.000000,  0.000000,  0.723870)
  13 Ni ( 0.000000,  0.000000,  0.721033)
  14 Ni ( 0.000000,  0.000000,  0.721306)
  15 Ni ( 0.000000,  0.000000,  0.724251)
  16 Ni ( 0.000000,  0.000000,  0.723870)
  17 Ni ( 0.000000,  0.000000,  0.721033)
  18 Ni ( 0.000000,  0.000000,  0.721348)
  19 Ni ( 0.000000,  0.000000,  0.724251)
  20 Ni ( 0.000000,  0.000000,  0.724392)
  21 Ni ( 0.000000,  0.000000,  0.721066)
  22 Ni ( 0.000000,  0.000000,  0.721348)
  23 Ni ( 0.000000,  0.000000,  0.724339)
  24 Ni ( 0.000000,  0.000000,  0.723870)
  25 Ni ( 0.000000,  0.000000,  0.720936)
  26 Ni ( 0.000000,  0.000000,  0.721306)
  27 Ni ( 0.000000,  0.000000,  0.724251)
  28 Ni ( 0.000000,  0.000000,  0.723996)
  29 Ni ( 0.000000,  0.000000,  0.721033)
  30 Ni ( 0.000000,  0.000000,  0.721306)
  31 Ni ( 0.000000,  0.000000,  0.724010)
  32 Ni ( 0.000000,  0.000000,  0.723870)
  33 Ni ( 0.000000,  0.000000,  0.720936)
  34 Ni ( 0.000000,  0.000000,  0.721274)
  35 Ni ( 0.000000,  0.000000,  0.724251)

Energy contributions relative to reference atoms: (reference = -1489247.944103)

Kinetic:       +925.319699
Potential:     -802.514803
External:        +0.000000
XC:            -2841.418799
Entropy (-ST):   -2.073899
Local:           +3.340526
--------------------------
Free energy:   -2717.347276
Extrapolated:  -2716.310327

Spin contamination: 2.223661 electrons
Showing only first 2 kpts
                      Up                     Down
 Kpt  Band  Eigenvalues  Occupancy  Eigenvalues  Occupancy
  0   286     -6.05611    0.99970     -5.14876    0.27415
  0   287     -6.02445    0.99958     -5.14490    0.26655
  0   288     -6.02443    0.99958     -5.13752    0.25237
  0   289     -5.99937    0.99946     -5.10469    0.19556

  1   286     -5.98378    0.99937     -5.11535    0.21288
  1   287     -5.97418    0.99931     -5.07766    0.15648
  1   288     -5.97377    0.99931     -5.07714    0.15580
  1   289     -5.95590    0.99917     -5.06125    0.13603


Fermi level: -5.24612

No gap

Forces in eV/Ang:
  0 Ni   -0.00000    0.00000    0.09245
  1 Ni    0.00079    0.00046   -0.10530
  2 Ni    0.00000    0.00187    0.02703
  3 Ni   -0.00000    0.00000   -0.00936
  4 Ni   -0.00020    0.00143    0.09197
  5 Ni    0.00000    0.00167   -0.10717
  6 Ni    0.00034    0.00020    0.02744
  7 Ni   -0.00082    0.00125   -0.01001
  8 Ni    0.00113   -0.00089    0.09197
  9 Ni    0.00145   -0.00083   -0.10717
 10 Ni    0.00162   -0.00094    0.02703
 11 Ni    0.00067   -0.00134   -0.01001
 12 Ni    0.00134   -0.00054    0.09197
 13 Ni    0.00000    0.00029   -0.10657
 14 Ni    0.00091    0.00052    0.02735
 15 Ni    0.00149    0.00009   -0.01001
 16 Ni    0.00020    0.00143    0.09197
 17 Ni    0.00025   -0.00014   -0.10657
 18 Ni   -0.00034    0.00020    0.02744
 19 Ni    0.00082    0.00125   -0.01001
 20 Ni    0.00000   -0.00000    0.08906
 21 Ni   -0.00145   -0.00083   -0.10717
 22 Ni   -0.00000   -0.00040    0.02744
 23 Ni   -0.00000    0.00000   -0.01045
 24 Ni   -0.00134   -0.00054    0.09197
 25 Ni   -0.00079    0.00046   -0.10530
 26 Ni   -0.00091    0.00052    0.02735
 27 Ni   -0.00149    0.00009   -0.01001
 28 Ni    0.00000    0.00000    0.08983
 29 Ni   -0.00025   -0.00014   -0.10657
 30 Ni    0.00000   -0.00105    0.02735
 31 Ni    0.00000    0.00000   -0.01108
 32 Ni   -0.00113   -0.00089    0.09197
 33 Ni    0.00000   -0.00091   -0.10530
 34 Ni   -0.00162   -0.00094    0.02703
 35 Ni   -0.00067   -0.00134   -0.01001

      Step     Time          Energy         fmax
BFGS:    0 21:52:15    -2716.310327        0.0274
Timing:                              incl.     excl.
-----------------------------------------------------------
Forces:                             29.735    29.735   0.2% |
Hamiltonian:                         6.816     0.001   0.0% |
 Atomic:                             0.000     0.000   0.0% |
  XC Correction:                     0.000     0.000   0.0% |
 Calculate atomic Hamiltonians:      0.000     0.000   0.0% |
 Communicate:                        0.256     0.256   0.0% |
 Hartree integrate/restrict:         0.003     0.003   0.0% |
 Initialize Hamiltonian:             0.000     0.000   0.0% |
 Poisson:                            0.050     0.002   0.0% |
  Communicate from 1D:               0.008     0.008   0.0% |
  Communicate from 2D:               0.008     0.008   0.0% |
  Communicate to 1D:                 0.008     0.008   0.0% |
  Communicate to 2D:                 0.010     0.010   0.0% |
  FFT 1D:                            0.006     0.006   0.0% |
  FFT 2D:                            0.007     0.007   0.0% |
 XC 3D grid:                         6.486     0.322   0.0% |
  VdW-DF integral:                   6.164     0.100   0.0% |
   Convolution:                      0.165     0.165   0.0% |
   FFT:                              0.119     0.119   0.0% |
   gather:                           0.816     0.816   0.0% |
   hmm1:                             0.033     0.033   0.0% |
   hmm2:                             0.072     0.072   0.0% |
   iFFT:                             0.108     0.108   0.0% |
   potential:                        0.561     0.011   0.0% |
    collect:                         0.049     0.049   0.0% |
    p1:                              0.334     0.334   0.0% |
    p2:                              0.110     0.110   0.0% |
    sum:                             0.056     0.056   0.0% |
   splines:                          4.190     4.190   0.0% |
 vbar:                               0.019     0.019   0.0% |
LCAO initialization:                61.851     0.464   0.0% |
 LCAO eigensolver:                  47.448     0.017   0.0% |
  Calculate projections:             0.000     0.000   0.0% |
  DenseAtomicCorrection:             0.000     0.000   0.0% |
  Distribute overlap matrix:        42.656    42.656   0.3% |
  Orbital Layouts:                   3.900     3.900   0.0% |
  Potential matrix:                  0.075     0.075   0.0% |
  Sum over cells:                    0.800     0.800   0.0% |
 LCAO to grid:                      12.759    12.759   0.1% |
 Set positions (LCAO WFS):           1.180     0.823   0.0% |
  Basic WFS set positions:           0.006     0.006   0.0% |
  Basis functions set positions:     0.000     0.000   0.0% |
  P tci:                             0.001     0.001   0.0% |
  ST tci:                            0.238     0.238   0.0% |
  mktci:                             0.111     0.111   0.0% |
SCF-cycle:                       14870.193     1.612   0.0% |
 Davidson:                       14099.918  3668.196  24.5% |---------|
  Apply hamiltonian:               320.141   320.141   2.1% ||
  Subspace diag:                  1472.849     0.249   0.0% |
   calc_h_matrix:                  674.421   366.845   2.5% ||
    Apply hamiltonian:             307.577   307.577   2.1% ||
   diagonalize:                    121.486   121.486   0.8% |
   rotate_psi:                     676.693   676.693   4.5% |-|
  calc. matrices:                 6237.523  2684.538  17.9% |------|
   Apply hamiltonian:             3552.985  3552.985  23.7% |--------|
  diagonalize:                    1021.121  1021.121   6.8% |--|
  rotate_psi:                     1380.088  1380.088   9.2% |---|
 Density:                           62.279     0.007   0.0% |
  Atomic density matrices:           3.729     3.729   0.0% |
  Mix:                               1.759     1.759   0.0% |
  Multipole moments:                 0.060     0.060   0.0% |
  Pseudo density:                   56.724    17.088   0.1% |
   Symmetrize density:              39.636    39.636   0.3% |
 Hamiltonian:                      695.774     0.155   0.0% |
  Atomic:                            0.075     0.074   0.0% |
   XC Correction:                    0.001     0.001   0.0% |
  Calculate atomic Hamiltonians:     0.088     0.088   0.0% |
  Communicate:                      74.214    74.214   0.5% |
  Hartree integrate/restrict:        0.953     0.953   0.0% |
  Poisson:                          14.836     0.439   0.0% |
   Communicate from 1D:              2.562     2.562   0.0% |
   Communicate from 2D:              2.504     2.504   0.0% |
   Communicate to 1D:                2.508     2.508   0.0% |
   Communicate to 2D:                3.099     3.099   0.0% |
   FFT 1D:                           1.623     1.623   0.0% |
   FFT 2D:                           2.101     2.101   0.0% |
  XC 3D grid:                      605.242    88.667   0.6% |
   VdW-DF integral:                516.575    31.045   0.2% |
    Convolution:                    51.389    51.389   0.3% |
    FFT:                            34.433    34.433   0.2% |
    gather:                        172.748   172.748   1.2% |
    hmm1:                           10.738    10.738   0.1% |
    hmm2:                           21.868    21.868   0.1% |
    iFFT:                           32.835    32.835   0.2% |
    potential:                     161.516     3.551   0.0% |
     collect:                       12.228    12.228   0.1% |
     p1:                            97.731    97.731   0.7% |
     p2:                            33.689    33.689   0.2% |
     sum:                           14.317    14.317   0.1% |
    splines:                         0.002     0.002   0.0% |
  vbar:                              0.211     0.211   0.0% |
 Orthonormalize:                    10.611     0.001   0.0% |
  calc_s_matrix:                     0.587     0.587   0.0% |
  inverse-cholesky:                  8.870     8.870   0.1% |
  projections:                       0.000     0.000   0.0% |
  rotate_psi_s:                      1.153     1.153   0.0% |
Set symmetry:                        0.004     0.004   0.0% |
Other:                               2.232     2.232   0.0% |
-----------------------------------------------------------
Total:                                     14970.831 100.0%

Memory usage: 1.25 GiB
Date: Sun Oct  8 21:52:15 2023
