
  ___ ___ ___ _ _ _  
 |   |   |_  | | | | 
 | | | | | . | | | | 
 |__ |  _|___|_____|  22.8.0
 |___|_|             

User:   s204775@a017.nifl.fysik.dtu.dk
Date:   Sun Oct  8 17:46:48 2023
Arch:   x86_64
Pid:    103755
CWD:    /home/cat/s204775/projects/Bachelor_project/clean_slabs
Python: 3.10.4
gpaw:   /home/modules/software/GPAW/22.8.0-intel-2022a/lib/python3.10/site-packages/gpaw
_gpaw:  /home/modules/software/GPAW/22.8.0-intel-2022a/lib/python3.10/site-packages/
        _gpaw.cpython-310-x86_64-linux-gnu.so
ase:    /home/modules/software/ASE/3.22.1-intel-2022a/lib/python3.10/site-packages/ase (version 3.22.1)
numpy:  /home/modules/software/SciPy-bundle/2022.05-intel-2022a/lib/python3.10/site-packages/numpy (version 1.22.3)
scipy:  /home/modules/software/SciPy-bundle/2022.05-intel-2022a/lib/python3.10/site-packages/scipy (version 1.8.1)
libxc:  5.2.3
units:  Angstrom and eV
cores: 40
OpenMP: False
OMP_NUM_THREADS: 1

Input parameters:
  basis: dzp
  h: 0.18
  kpts: {size: (4, 4, 1)}
  maxiter: 3000
  xc: BEEF-vdW

System changes: positions, numbers, cell, pbc, initial_charges, initial_magmoms 

Initialize ...

species:
  Pd:
    name: Palladium
    id: c3f348c122b85aed3f99c4295cac773c
    Z: 46.0
    valence: 16
    core: 30
    charge: 0.0
    file: /home/modules/software/GPAW-setups/0.9.20000/Pd.PBE.gz
    compensation charges: {type: gauss,
                           rc: 0.38,
                           lmax: 2}
    cutoffs: {filter: 2.38,
              core: 2.28}
    valence states:
      #              energy  rcut
      - 5s(0.00)    -3.315   1.228
      - 4p(6.00)   -51.209   1.360
      - 5p(0.00)    -0.314   1.360
      - 4d(10.00)    -4.047   1.228
      -  s          23.896   1.228
      -  d          23.165   1.228
  
    # LCAO basis set for Pd:
    #   Name: dzp
    #   File: /home/modules/software/GPAW-setups/0.9.20000/Pd.dzp.basis.gz
    #   Number of radial functions: 9
    #   Number of spherical harmonics: 27
    #     l=0, rc=10.0312 Bohr: 5s-sz confined orbital
    #     l=1, rc=3.5312 Bohr: 4p-sz confined orbital
    #     l=1, rc=16.0000 Bohr: 5p-sz confined orbital
    #     l=2, rc=6.2031 Bohr: 4d-sz confined orbital
    #     l=0, rc=6.0156 Bohr: 5s-dz split-valence wave
    #     l=1, rc=2.4062 Bohr: 4p-dz split-valence wave
    #     l=1, rc=9.9375 Bohr: 5p-dz split-valence wave
    #     l=2, rc=3.6719 Bohr: 4d-dz split-valence wave
    #     l=1, rc=10.0312 Bohr: p-type Gaussian polarization
    #   Number of RI-basis functions 0

Reference energy: -4940189.665851  # eV

Spin-paired calculation

Convergence criteria:
 Maximum [total energy] change in last 3 cyles: 0.0005 eV / electron
 Maximum integral of absolute [dens]ity change: 0.0001 electrons / valence electron
 Maximum integral of absolute [eigenst]ate change: 4e-08 eV^2 / valence electron
 Maximum number of scf [iter]ations: 3000
 (Square brackets indicate name in SCF output, whereas a 'c' in
 the SCF output indicates the quantity has converged.)

Symmetries present (total): 6

  ( 1  1  0)  ( 1  0  0)  ( 0  1  0)  ( 0 -1  0)  (-1  0  0)  (-1 -1  0)
  ( 0 -1  0)  ( 0  1  0)  (-1 -1  0)  (-1  0  0)  ( 1  1  0)  ( 1  0  0)
  ( 0  0  1)  ( 0  0  1)  ( 0  0  1)  ( 0  0  1)  ( 0  0  1)  ( 0  0  1)
Note: your k-points are not as symmetric as your crystal!

16 k-points: 4 x 4 x 1 Monkhorst-Pack grid
6 k-points in the irreducible part of the Brillouin zone
       k-points in crystal coordinates                weights
   0:     0.12500000   -0.12500000    0.00000000          2/16
   1:     0.12500000    0.12500000    0.00000000          2/16
   2:     0.37500000   -0.37500000    0.00000000          2/16
   3:     0.37500000   -0.12500000    0.00000000          4/16
   4:     0.37500000    0.12500000    0.00000000          4/16
   5:     0.37500000    0.37500000    0.00000000          2/16

Wave functions: Uniform real-space grid
  Kinetic energy operator: 8*3+1=25 point O(h^6) finite-difference Laplacian
  ScaLapack parameters: grid=1x1, blocksize=None
  Wavefunction extrapolation:
    Improved wavefunction reuse through dual PAW basis 

Occupation numbers: Fermi-Dirac:
  width: 0.1000  # eV
 

Eigensolver
   Davidson(niter=2) 

Densities:
  Coarse grid: 40*40*148 grid
  Fine grid: 80*80*296 grid
  Total Charge: 0.000000 

Density mixing:
  Method: separate
  Backend: pulay
  Linear mixing parameter: 0.05
  old densities: 5
  Damping of long wavelength oscillations: 50 

Hamiltonian:
  XC and Coulomb potentials evaluated on a 80*80*296 grid
  Using the BEEF-vdW Exchange-Correlation functional
  Interpolation: tri-quintic (5. degree polynomial)
  Poisson solver: FastPoissonSolver using
    Stencil: 8*3+1=25 point O(h^6) finite-difference Laplacian
    FFT axes: [0, 1]
    FST axes: [2]
 

XC parameters: BEEF-vdW with 2 nearest neighbor stencil

Memory estimate:
  Process memory now: 167.46 MiB
  Calculator: 287.26 MiB
    Density: 14.99 MiB
      Arrays: 2.34 MiB
      Localized functions: 11.77 MiB
      Mixer: 0.89 MiB
    Hamiltonian: 2.40 MiB
      Arrays: 1.53 MiB
      XC: 0.00 MiB
      Poisson: 0.00 MiB
      vbar: 0.87 MiB
    Wavefunctions: 269.87 MiB
      Arrays psit_nG: 185.85 MiB
      Eigensolver: 81.54 MiB
      Projections: 0.52 MiB
      Projectors: 1.96 MiB

Total number of cores used: 40
Parallelization over k-points: 2
Domain decomposition: 2 x 2 x 5

Number of atoms: 36
Number of atomic orbitals: 972
Number of bands in calculation: 350
Number of valence electrons: 576
Bands to converge: occupied

... initialized

Initializing position-dependent things.

Density initialized from atomic densities
Creating initial wave functions:
  350 bands from LCAO basis set

                                                
                                                
                                                
                                                
                 Pd     Pd     Pd               
                                                
           Pd     PPd    PPd     Pd             
                     Pd     Pd     Pd           
             Pd     Pd     Pd                   
              PPd    PPd    PPd                 
                                                
                Pd     Pd     Pd                
                  Pd     Pd     Pd              
          Pd     Pd     Pd                      
            Pd     Pd     Pd                    
              Pd     Pd     Pd                  
                                                
                                                
                                                
                                                

Positions:
   0 Pd     0.000000    0.000000    9.999999    ( 0.0000,  0.0000,  0.0000)
   1 Pd     1.418446    0.818940   12.316312    ( 0.0000,  0.0000,  0.0000)
   2 Pd    -0.000000    1.637341   14.614319    ( 0.0000,  0.0000,  0.0000)
   3 Pd     2.836318   -0.000221   16.938702    ( 0.0000,  0.0000,  0.0000)
   4 Pd    -1.418446    2.456821    9.999999    ( 0.0000,  0.0000,  0.0000)
   5 Pd    -0.000000    3.275761   12.316312    ( 0.0000,  0.0000,  0.0000)
   6 Pd    -1.417250    4.095392   14.618454    ( 0.0000,  0.0000,  0.0000)
   7 Pd     1.417968    2.456434   16.938702    ( 0.0000,  0.0000,  0.0000)
   8 Pd    -2.836893    4.913642    9.999999    ( 0.0000,  0.0000,  0.0000)
   9 Pd    -1.418446    5.732582   12.316312    ( 0.0000,  0.0000,  0.0000)
  10 Pd    -2.837360    6.551793   14.614319    ( 0.0000,  0.0000,  0.0000)
  11 Pd    -0.000000    4.913642   16.946916    ( 0.0000,  0.0000,  0.0000)
  12 Pd     2.836893    0.000000    9.999999    ( 0.0000,  0.0000,  0.0000)
  13 Pd     4.255339    0.818940   12.316312    ( 0.0000,  0.0000,  0.0000)
  14 Pd     2.837300    1.638116   14.617798    ( 0.0000,  0.0000,  0.0000)
  15 Pd     5.674360   -0.000221   16.938702    ( 0.0000,  0.0000,  0.0000)
  16 Pd     1.418446    2.456821    9.999999    ( 0.0000,  0.0000,  0.0000)
  17 Pd     2.836893    3.275761   12.316312    ( 0.0000,  0.0000,  0.0000)
  18 Pd     1.417250    4.095392   14.618454    ( 0.0000,  0.0000,  0.0000)
  19 Pd     4.255339    2.456821   16.946466    ( 0.0000,  0.0000,  0.0000)
  20 Pd     0.000000    4.913642    9.999999    ( 0.0000,  0.0000,  0.0000)
  21 Pd     1.418446    5.732582   12.316312    ( 0.0000,  0.0000,  0.0000)
  22 Pd    -0.000000    6.550142   14.618454    ( 0.0000,  0.0000,  0.0000)
  23 Pd     2.836989    4.914250   16.938702    ( 0.0000,  0.0000,  0.0000)
  24 Pd     5.673785    0.000000    9.999999    ( 0.0000,  0.0000,  0.0000)
  25 Pd     7.092231    0.818940   12.316312    ( 0.0000,  0.0000,  0.0000)
  26 Pd     5.673378    1.638116   14.617798    ( 0.0000,  0.0000,  0.0000)
  27 Pd     8.510678    0.000000   16.935460    ( 0.0000,  0.0000,  0.0000)
  28 Pd     4.255339    2.456821    9.999999    ( 0.0000,  0.0000,  0.0000)
  29 Pd     5.673785    3.275761   12.316312    ( 0.0000,  0.0000,  0.0000)
  30 Pd     4.255339    4.094232   14.617798    ( 0.0000,  0.0000,  0.0000)
  31 Pd     7.092710    2.456434   16.938702    ( 0.0000,  0.0000,  0.0000)
  32 Pd     2.836893    4.913642    9.999999    ( 0.0000,  0.0000,  0.0000)
  33 Pd     4.255339    5.732582   12.316312    ( 0.0000,  0.0000,  0.0000)
  34 Pd     2.837360    6.551793   14.614319    ( 0.0000,  0.0000,  0.0000)
  35 Pd     5.673689    4.914250   16.938702    ( 0.0000,  0.0000,  0.0000)

Unit cell:
           periodic     x           y           z      points  spacing
  1. axis:    yes    8.510678    0.000000    0.000000    40     0.1843
  2. axis:    yes   -4.255339    7.370463    0.000000    40     0.1843
  3. axis:    no     0.000000    0.000000   26.948937   148     0.1821

  Lengths:   8.510678   8.510678  26.948937
  Angles:   90.000000  90.000000 120.000000

Effective grid spacing dv^(1/3) = 0.1925

     iter     time        total  log10-change:
                         energy  eigst   dens
iter:   1 17:47:48 -5228.893762
iter:   2 17:48:12 -5219.804176  -0.46  -1.15
iter:   3 17:48:37 -5212.275790  -0.98  -1.21
iter:   4 17:49:02 -5215.216777  -0.44  -1.27
iter:   5 17:49:27 -5202.417150  -1.00  -1.48
iter:   6 17:49:52 -5201.088359  -1.29  -1.60
iter:   7 17:50:17 -5199.808433  -1.39  -1.79
iter:   8 17:50:41 -5198.080595  -1.71  -1.88
iter:   9 17:51:06 -5197.313935  -2.59  -1.99
iter:  10 17:51:31 -5196.997177  -2.34  -2.05
iter:  11 17:51:55 -5197.010477  -2.59  -2.09
iter:  12 17:52:20 -5196.995881c -2.43  -2.10
iter:  13 17:52:45 -5197.364224  -2.30  -2.18
iter:  14 17:53:10 -5196.884971  -2.80  -2.21
iter:  15 17:53:34 -5196.826905  -2.82  -2.43
iter:  16 17:53:59 -5196.811654c -3.43  -2.72
iter:  17 17:54:24 -5196.802357c -3.90  -2.85
iter:  18 17:54:48 -5196.800447c -4.08  -2.98
iter:  19 17:55:13 -5196.800941c -4.11  -3.07
iter:  20 17:55:38 -5196.798895c -4.30  -3.22
iter:  21 17:56:02 -5196.798524c -4.47  -3.32
iter:  22 17:56:27 -5196.798614c -5.02  -3.56
iter:  23 17:56:52 -5196.798455c -5.47  -3.59
iter:  24 17:57:17 -5196.798477c -4.82  -3.68
iter:  25 17:57:41 -5196.798436c -5.89  -4.00c
iter:  26 17:58:06 -5196.798505c -5.94  -4.08c
iter:  27 17:58:31 -5196.798531c -6.43  -4.16c
iter:  28 17:58:55 -5196.798628c -6.72  -4.18c
iter:  29 17:59:20 -5196.798625c -6.67  -4.07c
iter:  30 17:59:45 -5196.798649c -7.12  -4.23c
iter:  31 18:00:10 -5196.798848c -6.43  -4.28c
iter:  32 18:00:34 -5196.798846c -7.20  -4.51c
iter:  33 18:00:59 -5196.798816c -6.98  -4.66c
iter:  34 18:01:24 -5196.798832c -7.61c -4.83c

Converged after 34 iterations.

Dipole moment: (-4.346217, -7.496927, -0.001313) |e|*Ang

Energy contributions relative to reference atoms: (reference = -4940189.665851)

Kinetic:       +788.825692
Potential:     -884.389562
External:        +0.000000
XC:            -5089.359279
Entropy (-ST):   -2.572208
Local:          -10.589579
--------------------------
Free energy:   -5198.084935
Extrapolated:  -5196.798832

Showing only first 2 kpts
 Kpt  Band  Eigenvalues  Occupancy
  0   286     -5.50976    1.58842
  0   287     -5.50962    1.58795
  0   288     -5.48052    1.48465
  0   289     -5.44766    1.34937

  1   286     -5.48908    1.51671
  1   287     -5.45909    1.39853
  1   288     -5.45767    1.39253
  1   289     -5.45669    1.38838


Fermi level: -5.37471

No gap

Forces in eV/Ang:
  0 Pd    0.00000    0.00000    0.00437
  1 Pd   -0.00696   -0.00402    0.02857
  2 Pd   -0.00000    0.00139   -0.00129
  3 Pd    0.00436    0.00054    0.01046
  4 Pd    0.00083   -0.00233   -0.02268
  5 Pd   -0.00000    0.01077    0.01823
  6 Pd   -0.00099   -0.00057   -0.00930
  7 Pd    0.00265    0.00351    0.01046
  8 Pd   -0.00160    0.00188   -0.02268
  9 Pd    0.00933   -0.00539    0.01823
 10 Pd    0.00121   -0.00070   -0.00129
 11 Pd   -0.00000   -0.00000    0.00701
 12 Pd   -0.00243    0.00044   -0.02268
 13 Pd    0.00000    0.00411    0.03407
 14 Pd    0.00237    0.00137   -0.00937
 15 Pd   -0.00436    0.00054    0.01046
 16 Pd   -0.00083   -0.00233   -0.02268
 17 Pd    0.00356   -0.00206    0.03407
 18 Pd    0.00099   -0.00057   -0.00930
 19 Pd    0.00000    0.00000    0.00329
 20 Pd    0.00000    0.00000   -0.04690
 21 Pd   -0.00933   -0.00539    0.01823
 22 Pd    0.00000    0.00114   -0.00930
 23 Pd   -0.00171   -0.00405    0.01046
 24 Pd    0.00243    0.00044   -0.02268
 25 Pd    0.00696   -0.00402    0.02857
 26 Pd   -0.00237    0.00137   -0.00937
 27 Pd    0.00000    0.00000    0.01481
 28 Pd    0.00000    0.00000   -0.04845
 29 Pd   -0.00356   -0.00206    0.03407
 30 Pd   -0.00000   -0.00274   -0.00937
 31 Pd   -0.00265    0.00351    0.01046
 32 Pd    0.00160    0.00188   -0.02268
 33 Pd   -0.00000    0.00804    0.02857
 34 Pd   -0.00121   -0.00070   -0.00129
 35 Pd    0.00171   -0.00405    0.01046

      Step     Time          Energy         fmax
BFGS:    0 18:01:38    -5196.798832        0.0148
Timing:                              incl.     excl.
-----------------------------------------------------------
Forces:                             14.658    14.658   1.6% ||
Hamiltonian:                         5.952     0.000   0.0% |
 Atomic:                             0.000     0.000   0.0% |
  XC Correction:                     0.000     0.000   0.0% |
 Calculate atomic Hamiltonians:      0.000     0.000   0.0% |
 Communicate:                        0.116     0.116   0.0% |
 Hartree integrate/restrict:         0.003     0.003   0.0% |
 Initialize Hamiltonian:             0.000     0.000   0.0% |
 Poisson:                            0.054     0.002   0.0% |
  Communicate from 1D:               0.009     0.009   0.0% |
  Communicate from 2D:               0.008     0.008   0.0% |
  Communicate to 1D:                 0.008     0.008   0.0% |
  Communicate to 2D:                 0.010     0.010   0.0% |
  FFT 1D:                            0.010     0.010   0.0% |
  FFT 2D:                            0.007     0.007   0.0% |
 XC 3D grid:                         5.582     0.280   0.0% |
  VdW-DF integral:                   5.302     0.122   0.0% |
   Convolution:                      0.201     0.201   0.0% |
   FFT:                              0.133     0.133   0.0% |
   gather:                           0.490     0.490   0.1% |
   hmm1:                             0.039     0.039   0.0% |
   hmm2:                             0.082     0.082   0.0% |
   iFFT:                             0.127     0.127   0.0% |
   potential:                        0.570     0.010   0.0% |
    collect:                         0.050     0.050   0.0% |
    p1:                              0.340     0.340   0.0% |
    p2:                              0.122     0.122   0.0% |
    sum:                             0.047     0.047   0.0% |
   splines:                          3.538     3.538   0.4% |
 vbar:                               0.196     0.196   0.0% |
LCAO initialization:                25.323     0.350   0.0% |
 LCAO eigensolver:                  16.907     0.008   0.0% |
  Calculate projections:             0.000     0.000   0.0% |
  DenseAtomicCorrection:             0.000     0.000   0.0% |
  Distribute overlap matrix:        14.745    14.745   1.7% ||
  Orbital Layouts:                   1.595     1.595   0.2% |
  Potential matrix:                  0.055     0.055   0.0% |
  Sum over cells:                    0.505     0.505   0.1% |
 LCAO to grid:                       7.021     7.021   0.8% |
 Set positions (LCAO WFS):           1.046     0.686   0.1% |
  Basic WFS set positions:           0.005     0.005   0.0% |
  Basis functions set positions:     0.000     0.000   0.0% |
  P tci:                             0.001     0.001   0.0% |
  ST tci:                            0.239     0.239   0.0% |
  mktci:                             0.115     0.115   0.0% |
SCF-cycle:                         843.920     0.121   0.0% |
 Davidson:                         766.798   208.378  23.4% |--------|
  Apply hamiltonian:                17.691    17.691   2.0% ||
  Subspace diag:                    79.677     0.012   0.0% |
   calc_h_matrix:                   37.630    20.557   2.3% ||
    Apply hamiltonian:              17.073    17.073   1.9% ||
   diagonalize:                      4.673     4.673   0.5% |
   rotate_psi:                      37.361    37.361   4.2% |-|
  calc. matrices:                  346.050   143.757  16.1% |-----|
   Apply hamiltonian:              202.292   202.292  22.7% |--------|
  diagonalize:                      41.048    41.048   4.6% |-|
  rotate_psi:                       73.955    73.955   8.3% |--|
 Density:                            3.664     0.001   0.0% |
  Atomic density matrices:           0.164     0.164   0.0% |
  Mix:                               0.111     0.111   0.0% |
  Multipole moments:                 0.005     0.005   0.0% |
  Pseudo density:                    3.384     1.033   0.1% |
   Symmetrize density:               2.352     2.352   0.3% |
 Hamiltonian:                       68.101     0.003   0.0% |
  Atomic:                            0.006     0.006   0.0% |
   XC Correction:                    0.000     0.000   0.0% |
  Calculate atomic Hamiltonians:     0.010     0.010   0.0% |
  Communicate:                       3.655     3.655   0.4% |
  Hartree integrate/restrict:        0.076     0.076   0.0% |
  Poisson:                           1.759     0.042   0.0% |
   Communicate from 1D:              0.283     0.283   0.0% |
   Communicate from 2D:              0.275     0.275   0.0% |
   Communicate to 1D:                0.266     0.266   0.0% |
   Communicate to 2D:                0.340     0.340   0.0% |
   FFT 1D:                           0.315     0.315   0.0% |
   FFT 2D:                           0.238     0.238   0.0% |
  XC 3D grid:                       62.574     6.385   0.7% |
   VdW-DF integral:                 56.188     4.137   0.5% |
    Convolution:                     6.789     6.789   0.8% |
    FFT:                             4.518     4.518   0.5% |
    gather:                         14.029    14.029   1.6% ||
    hmm1:                            1.294     1.294   0.1% |
    hmm2:                            2.708     2.708   0.3% |
    iFFT:                            4.234     4.234   0.5% |
    potential:                      18.479     0.381   0.0% |
     collect:                        1.550     1.550   0.2% |
     p1:                            11.124    11.124   1.2% |
     p2:                             3.989     3.989   0.4% |
     sum:                            1.436     1.436   0.2% |
    splines:                         0.000     0.000   0.0% |
  vbar:                              0.018     0.018   0.0% |
 Orthonormalize:                     5.236     0.001   0.0% |
  calc_s_matrix:                     0.272     0.272   0.0% |
  inverse-cholesky:                  4.395     4.395   0.5% |
  projections:                       0.000     0.000   0.0% |
  rotate_psi_s:                      0.568     0.568   0.1% |
Set symmetry:                        0.003     0.003   0.0% |
Other:                               0.929     0.929   0.1% |
-----------------------------------------------------------
Total:                                       890.785 100.0%

Memory usage: 1.18 GiB
Date: Sun Oct  8 18:01:38 2023
