
  ___ ___ ___ _ _ _  
 |   |   |_  | | | | 
 | | | | | . | | | | 
 |__ |  _|___|_____|  22.8.0
 |___|_|             

User:   s204775@a126.nifl.fysik.dtu.dk
Date:   Sun Oct  8 17:51:22 2023
Arch:   x86_64
Pid:    218438
CWD:    /home/cat/s204775/projects/Bachelor_project/clean_slabs
Python: 3.10.4
gpaw:   /home/modules/software/GPAW/22.8.0-intel-2022a/lib/python3.10/site-packages/gpaw
_gpaw:  /home/modules/software/GPAW/22.8.0-intel-2022a/lib/python3.10/site-packages/
        _gpaw.cpython-310-x86_64-linux-gnu.so
ase:    /home/modules/software/ASE/3.22.1-intel-2022a/lib/python3.10/site-packages/ase (version 3.22.1)
numpy:  /home/modules/software/SciPy-bundle/2022.05-intel-2022a/lib/python3.10/site-packages/numpy (version 1.22.3)
scipy:  /home/modules/software/SciPy-bundle/2022.05-intel-2022a/lib/python3.10/site-packages/scipy (version 1.8.1)
libxc:  5.2.3
units:  Angstrom and eV
cores: 40
OpenMP: False
OMP_NUM_THREADS: 1

Input parameters:
  basis: dzp
  h: 0.18
  kpts: {size: (4, 4, 1)}
  maxiter: 3000
  xc: BEEF-vdW

System changes: positions, numbers, cell, pbc, initial_charges, initial_magmoms 

Initialize ...

species:
  Ru:
    name: Ruthenium
    id: 670232e5f51aeb2542f664849653fb2d
    Z: 44.0
    valence: 16
    core: 28
    charge: 0.0
    file: /home/modules/software/GPAW-setups/0.9.20000/Ru.PBE.gz
    compensation charges: {type: gauss,
                           rc: 0.39,
                           lmax: 2}
    cutoffs: {filter: 2.16,
              core: 1.30}
    valence states:
      #              energy  rcut
      - 4s(2.00)   -76.316   1.281
      - 5s(1.00)    -4.236   1.281
      - 4p(6.00)   -46.423   1.286
      - 5p(0.00)    -0.913   1.286
      - 4d(7.00)    -5.203   1.254
      -  d          22.008   1.254
  
    # LCAO basis set for Ru:
    #   Name: dzp
    #   File: /home/modules/software/GPAW-setups/0.9.20000/Ru.dzp.basis.gz
    #   Number of radial functions: 11
    #   Number of spherical harmonics: 29
    #     l=0, rc=3.2969 Bohr: 4s-sz confined orbital
    #     l=0, rc=9.6875 Bohr: 5s-sz confined orbital
    #     l=1, rc=3.7656 Bohr: 4p-sz confined orbital
    #     l=1, rc=14.0938 Bohr: 5p-sz confined orbital
    #     l=2, rc=6.3281 Bohr: 4d-sz confined orbital
    #     l=0, rc=2.0781 Bohr: 4s-dz split-valence wave
    #     l=0, rc=5.8281 Bohr: 5s-dz split-valence wave
    #     l=1, rc=2.4219 Bohr: 4p-dz split-valence wave
    #     l=1, rc=8.7031 Bohr: 5p-dz split-valence wave
    #     l=2, rc=3.7500 Bohr: 4d-dz split-valence wave
    #     l=1, rc=9.6875 Bohr: p-type Gaussian polarization
    #   Number of RI-basis functions 0

Reference energy: -4436824.499384  # eV

Spin-paired calculation

Convergence criteria:
 Maximum [total energy] change in last 3 cyles: 0.0005 eV / electron
 Maximum integral of absolute [dens]ity change: 0.0001 electrons / valence electron
 Maximum integral of absolute [eigenst]ate change: 4e-08 eV^2 / valence electron
 Maximum number of scf [iter]ations: 3000
 (Square brackets indicate name in SCF output, whereas a 'c' in
 the SCF output indicates the quantity has converged.)

Symmetries present (total): 6

  ( 1  1  0)  ( 1  0  0)  ( 0  1  0)  ( 0 -1  0)  (-1  0  0)  (-1 -1  0)
  ( 0 -1  0)  ( 0  1  0)  (-1 -1  0)  (-1  0  0)  ( 1  1  0)  ( 1  0  0)
  ( 0  0  1)  ( 0  0  1)  ( 0  0  1)  ( 0  0  1)  ( 0  0  1)  ( 0  0  1)
Note: your k-points are not as symmetric as your crystal!

16 k-points: 4 x 4 x 1 Monkhorst-Pack grid
6 k-points in the irreducible part of the Brillouin zone
       k-points in crystal coordinates                weights
   0:     0.12500000   -0.12500000    0.00000000          2/16
   1:     0.12500000    0.12500000    0.00000000          2/16
   2:     0.37500000   -0.37500000    0.00000000          2/16
   3:     0.37500000   -0.12500000    0.00000000          4/16
   4:     0.37500000    0.12500000    0.00000000          4/16
   5:     0.37500000    0.37500000    0.00000000          2/16

Wave functions: Uniform real-space grid
  Kinetic energy operator: 8*3+1=25 point O(h^6) finite-difference Laplacian
  ScaLapack parameters: grid=1x1, blocksize=None
  Wavefunction extrapolation:
    Improved wavefunction reuse through dual PAW basis 

Occupation numbers: Fermi-Dirac:
  width: 0.1000  # eV
 

Eigensolver
   Davidson(niter=2) 

Densities:
  Coarse grid: 40*40*148 grid
  Fine grid: 80*80*296 grid
  Total Charge: 0.000000 

Density mixing:
  Method: separate
  Backend: pulay
  Linear mixing parameter: 0.05
  old densities: 5
  Damping of long wavelength oscillations: 50 

Hamiltonian:
  XC and Coulomb potentials evaluated on a 80*80*296 grid
  Using the BEEF-vdW Exchange-Correlation functional
  Interpolation: tri-quintic (5. degree polynomial)
  Poisson solver: FastPoissonSolver using
    Stencil: 8*3+1=25 point O(h^6) finite-difference Laplacian
    FFT axes: [0, 1]
    FST axes: [2]
 

XC parameters: BEEF-vdW with 2 nearest neighbor stencil

Memory estimate:
  Process memory now: 167.16 MiB
  Calculator: 285.96 MiB
    Density: 14.18 MiB
      Arrays: 2.34 MiB
      Localized functions: 10.96 MiB
      Mixer: 0.89 MiB
    Hamiltonian: 2.25 MiB
      Arrays: 1.53 MiB
      XC: 0.00 MiB
      Poisson: 0.00 MiB
      vbar: 0.72 MiB
    Wavefunctions: 269.53 MiB
      Arrays psit_nG: 185.85 MiB
      Eigensolver: 81.54 MiB
      Projections: 0.52 MiB
      Projectors: 1.62 MiB

Total number of cores used: 40
Parallelization over k-points: 2
Domain decomposition: 2 x 2 x 5

Number of atoms: 36
Number of atomic orbitals: 1044
Number of bands in calculation: 350
Number of valence electrons: 576
Bands to converge: occupied

... initialized

Initializing position-dependent things.

Density initialized from atomic densities
Creating initial wave functions:
  350 bands from LCAO basis set

                                              
                                              
                                              
                                              
                                              
                Ru     Ru    Ru               
           Ru    RRu    RRu    Ru             
                    Ru     Ru    Ru           
             Ru    Ru     Ru                  
              RRu   RRu    RRu                
                                              
               Ru     Ru     Ru               
                 Ru     Ru    Ru              
          Ru    Ru     Ru                     
            Ru    Ru     Ru                   
              Ru    Ru     Ru                 
                                              
                                              
                                              
                                              

Positions:
   0 Ru     0.000000    0.000000    9.999999    ( 0.0000,  0.0000,  0.0000)
   1 Ru     1.355017    0.782320   12.212733    ( 0.0000,  0.0000,  0.0000)
   2 Ru    -0.000000    1.567087   14.455961    ( 0.0000,  0.0000,  0.0000)
   3 Ru     2.710329   -0.000147   16.576449    ( 0.0000,  0.0000,  0.0000)
   4 Ru    -1.355017    2.346959    9.999999    ( 0.0000,  0.0000,  0.0000)
   5 Ru    -0.000000    3.129279   12.212733    ( 0.0000,  0.0000,  0.0000)
   6 Ru    -1.356314    3.910850   14.455644    ( 0.0000,  0.0000,  0.0000)
   7 Ru     1.355037    2.347288   16.576449    ( 0.0000,  0.0000,  0.0000)
   8 Ru    -2.710035    4.693918    9.999999    ( 0.0000,  0.0000,  0.0000)
   9 Ru    -1.355017    5.476238   12.212733    ( 0.0000,  0.0000,  0.0000)
  10 Ru    -2.707915    6.257334   14.455961    ( 0.0000,  0.0000,  0.0000)
  11 Ru    -0.000000    4.693918   16.575086    ( 0.0000,  0.0000,  0.0000)
  12 Ru     2.710035    0.000000    9.999999    ( 0.0000,  0.0000,  0.0000)
  13 Ru     4.065052    0.782320   12.212733    ( 0.0000,  0.0000,  0.0000)
  14 Ru     2.708133    1.563542   14.457333    ( 0.0000,  0.0000,  0.0000)
  15 Ru     5.419776   -0.000147   16.576449    ( 0.0000,  0.0000,  0.0000)
  16 Ru     1.355017    2.346959    9.999999    ( 0.0000,  0.0000,  0.0000)
  17 Ru     2.710035    3.129279   12.212733    ( 0.0000,  0.0000,  0.0000)
  18 Ru     1.356314    3.910850   14.455644    ( 0.0000,  0.0000,  0.0000)
  19 Ru     4.065052    2.346959   16.575797    ( 0.0000,  0.0000,  0.0000)
  20 Ru     0.000000    4.693918    9.999999    ( 0.0000,  0.0000,  0.0000)
  21 Ru     1.355017    5.476238   12.212733    ( 0.0000,  0.0000,  0.0000)
  22 Ru    -0.000000    6.260055   14.455644    ( 0.0000,  0.0000,  0.0000)
  23 Ru     2.709760    4.693737   16.576449    ( 0.0000,  0.0000,  0.0000)
  24 Ru     5.420070    0.000000    9.999999    ( 0.0000,  0.0000,  0.0000)
  25 Ru     6.775087    0.782320   12.212733    ( 0.0000,  0.0000,  0.0000)
  26 Ru     5.421972    1.563542   14.457333    ( 0.0000,  0.0000,  0.0000)
  27 Ru     8.130105    0.000000   16.573376    ( 0.0000,  0.0000,  0.0000)
  28 Ru     4.065052    2.346959    9.999999    ( 0.0000,  0.0000,  0.0000)
  29 Ru     5.420070    3.129279   12.212733    ( 0.0000,  0.0000,  0.0000)
  30 Ru     4.065052    3.913794   14.457333    ( 0.0000,  0.0000,  0.0000)
  31 Ru     6.775068    2.347288   16.576449    ( 0.0000,  0.0000,  0.0000)
  32 Ru     2.710035    4.693918    9.999999    ( 0.0000,  0.0000,  0.0000)
  33 Ru     4.065052    5.476238   12.212733    ( 0.0000,  0.0000,  0.0000)
  34 Ru     2.707915    6.257334   14.455961    ( 0.0000,  0.0000,  0.0000)
  35 Ru     5.420345    4.693737   16.576449    ( 0.0000,  0.0000,  0.0000)

Unit cell:
           periodic     x           y           z      points  spacing
  1. axis:    yes    8.130105    0.000000    0.000000    40     0.1760
  2. axis:    yes   -4.065052    7.040877    0.000000    40     0.1760
  3. axis:    no     0.000000    0.000000   26.638201   148     0.1800

  Lengths:   8.130105   8.130105  26.638201
  Angles:   90.000000  90.000000 120.000000

Effective grid spacing dv^(1/3) = 0.1860

     iter     time        total  log10-change:
                         energy  eigst   dens
iter:   1 17:52:18 -5055.382497
iter:   2 17:52:41 -5052.337372  -0.83  -1.32
iter:   3 17:53:04 -5062.866971  -0.33  -1.35
iter:   4 17:53:27 -5047.069244  -1.04  -1.41
iter:   5 17:53:51 -5040.461286  -2.01  -1.62
iter:   6 17:54:14 -5039.705082  -2.47  -1.91
iter:   7 17:54:37 -5039.457544  -1.49  -1.96
iter:   8 17:55:00 -5039.431592c -2.56  -2.11
iter:   9 17:55:23 -5039.315456c -2.70  -2.22
iter:  10 17:55:46 -5039.299814c -2.51  -2.33
iter:  11 17:56:09 -5040.365683  -2.76  -2.60
iter:  12 17:56:32 -5039.198019  -2.94  -2.03
iter:  13 17:56:56 -5039.195369  -3.93  -2.93
iter:  14 17:57:19 -5039.193302c -3.71  -2.98
iter:  15 17:57:42 -5039.196020c -4.25  -3.16
iter:  16 17:58:05 -5039.195918c -4.22  -3.17
iter:  17 17:58:28 -5039.197834c -4.79  -3.22
iter:  18 17:58:51 -5039.199408c -3.96  -3.30
iter:  19 17:59:14 -5039.207112c -4.79  -3.39
iter:  20 17:59:37 -5039.197582c -5.19  -3.02
iter:  21 18:00:00 -5039.196676c -4.62  -3.54
iter:  22 18:00:24 -5039.196605c -5.10  -3.71
iter:  23 18:00:47 -5039.196369c -5.67  -4.04c
iter:  24 18:01:10 -5039.196342c -6.68  -4.06c
iter:  25 18:01:33 -5039.196661c -5.36  -4.08c
iter:  26 18:01:56 -5039.196523c -6.16  -4.01c
iter:  27 18:02:19 -5039.196502c -6.86  -3.94
iter:  28 18:02:42 -5039.196226c -6.20  -4.26c
iter:  29 18:03:05 -5039.196273c -6.86  -4.31c
iter:  30 18:03:29 -5039.196304c -7.02  -4.39c
iter:  31 18:03:52 -5039.196338c -7.04  -4.47c
iter:  32 18:04:15 -5039.196303c -6.59  -4.50c
iter:  33 18:04:38 -5039.196252c -7.65c -4.37c

Converged after 33 iterations.

Dipole moment: (-4.083396, -7.209313, 0.026530) |e|*Ang

Energy contributions relative to reference atoms: (reference = -4436824.499384)

Kinetic:       +590.815398
Potential:     -677.679445
External:        +0.000000
XC:            -4943.640988
Entropy (-ST):   -2.000045
Local:           -7.691194
--------------------------
Free energy:   -5040.196275
Extrapolated:  -5039.196252

Showing only first 2 kpts
 Kpt  Band  Eigenvalues  Occupancy
  0   286     -5.14126    0.93125
  0   287     -5.13646    0.90737
  0   288     -5.05172    0.52496
  0   289     -4.98691    0.31385

  1   286     -5.14464    0.94805
  1   287     -5.14427    0.94621
  1   288     -5.14041    0.92698
  1   289     -5.12808    0.86603


Fermi level: -5.15504

No gap

Forces in eV/Ang:
  0 Ru    0.00000    0.00000    0.67985
  1 Ru    0.00729    0.00421   -0.70051
  2 Ru    0.00000   -0.00029   -0.00909
  3 Ru   -0.00197    0.00042    0.01150
  4 Ru   -0.00474    0.00681    0.68887
  5 Ru    0.00000   -0.01208   -0.67977
  6 Ru   -0.00052   -0.00030   -0.00893
  7 Ru   -0.00062   -0.00192    0.01150
  8 Ru    0.00353   -0.00751    0.68887
  9 Ru   -0.01047    0.00604   -0.67977
 10 Ru   -0.00025    0.00015   -0.00909
 11 Ru    0.00000   -0.00000    0.01393
 12 Ru    0.00827    0.00070    0.68887
 13 Ru   -0.00000   -0.00518   -0.69115
 14 Ru    0.00158    0.00091   -0.01180
 15 Ru    0.00197    0.00042    0.01150
 16 Ru    0.00474    0.00681    0.68887
 17 Ru   -0.00448    0.00259   -0.69115
 18 Ru    0.00052   -0.00030   -0.00893
 19 Ru    0.00000   -0.00000    0.01140
 20 Ru    0.00000    0.00000    0.71235
 21 Ru    0.01047    0.00604   -0.67977
 22 Ru    0.00000    0.00060   -0.00893
 23 Ru    0.00135    0.00149    0.01150
 24 Ru   -0.00827    0.00070    0.68887
 25 Ru   -0.00729    0.00421   -0.70051
 26 Ru   -0.00158    0.00091   -0.01180
 27 Ru    0.00000    0.00000    0.01325
 28 Ru   -0.00000    0.00000    0.71360
 29 Ru    0.00448    0.00259   -0.69115
 30 Ru   -0.00000   -0.00182   -0.01180
 31 Ru    0.00062   -0.00192    0.01150
 32 Ru   -0.00353   -0.00751    0.68887
 33 Ru    0.00000   -0.00842   -0.70051
 34 Ru    0.00025    0.00015   -0.00909
 35 Ru   -0.00135    0.00149    0.01150

      Step     Time          Energy         fmax
BFGS:    0 18:04:50    -5039.196252        0.0139
Timing:                              incl.     excl.
-----------------------------------------------------------
Forces:                             12.654    12.654   1.6% ||
Hamiltonian:                         5.709     0.000   0.0% |
 Atomic:                             0.000     0.000   0.0% |
  XC Correction:                     0.000     0.000   0.0% |
 Calculate atomic Hamiltonians:      0.000     0.000   0.0% |
 Communicate:                        0.134     0.134   0.0% |
 Hartree integrate/restrict:         0.003     0.003   0.0% |
 Initialize Hamiltonian:             0.000     0.000   0.0% |
 Poisson:                            0.053     0.002   0.0% |
  Communicate from 1D:               0.009     0.009   0.0% |
  Communicate from 2D:               0.008     0.008   0.0% |
  Communicate to 1D:                 0.007     0.007   0.0% |
  Communicate to 2D:                 0.010     0.010   0.0% |
  FFT 1D:                            0.010     0.010   0.0% |
  FFT 2D:                            0.007     0.007   0.0% |
 XC 3D grid:                         5.500     0.210   0.0% |
  VdW-DF integral:                   5.290     0.121   0.0% |
   Convolution:                      0.202     0.202   0.0% |
   FFT:                              0.132     0.132   0.0% |
   gather:                           0.455     0.455   0.1% |
   hmm1:                             0.037     0.037   0.0% |
   hmm2:                             0.078     0.078   0.0% |
   iFFT:                             0.129     0.129   0.0% |
   potential:                        0.571     0.009   0.0% |
    collect:                         0.050     0.050   0.0% |
    p1:                              0.338     0.338   0.0% |
    p2:                              0.119     0.119   0.0% |
    sum:                             0.053     0.053   0.0% |
   splines:                          3.566     3.566   0.4% |
 vbar:                               0.017     0.017   0.0% |
LCAO initialization:                23.605     0.426   0.1% |
 LCAO eigensolver:                  14.598     0.010   0.0% |
  Calculate projections:             0.000     0.000   0.0% |
  DenseAtomicCorrection:             0.000     0.000   0.0% |
  Distribute overlap matrix:        12.040    12.040   1.5% ||
  Orbital Layouts:                   1.969     1.969   0.2% |
  Potential matrix:                  0.027     0.027   0.0% |
  Sum over cells:                    0.552     0.552   0.1% |
 LCAO to grid:                       7.500     7.500   0.9% |
 Set positions (LCAO WFS):           1.081     0.717   0.1% |
  Basic WFS set positions:           0.005     0.005   0.0% |
  Basis functions set positions:     0.000     0.000   0.0% |
  P tci:                             0.001     0.001   0.0% |
  ST tci:                            0.264     0.264   0.0% |
  mktci:                             0.095     0.095   0.0% |
SCF-cycle:                         765.883    11.617   1.4% ||
 Davidson:                         679.165   173.592  21.5% |--------|
  Apply hamiltonian:                18.422    18.422   2.3% ||
  Subspace diag:                    77.185     0.012   0.0% |
   calc_h_matrix:                   37.132    19.705   2.4% ||
    Apply hamiltonian:              17.427    17.427   2.2% ||
   diagonalize:                      4.580     4.580   0.6% |
   rotate_psi:                      35.461    35.461   4.4% |-|
  calc. matrices:                  300.294   134.672  16.7% |------|
   Apply hamiltonian:              165.622   165.622  20.5% |-------|
  diagonalize:                      39.974    39.974   4.9% |-|
  rotate_psi:                       69.698    69.698   8.6% |--|
 Density:                            3.563     0.001   0.0% |
  Atomic density matrices:           0.230     0.230   0.0% |
  Mix:                               0.108     0.108   0.0% |
  Multipole moments:                 0.005     0.005   0.0% |
  Pseudo density:                    3.220     1.009   0.1% |
   Symmetrize density:               2.211     2.211   0.3% |
 Hamiltonian:                       66.556     0.003   0.0% |
  Atomic:                            0.006     0.006   0.0% |
   XC Correction:                    0.000     0.000   0.0% |
  Calculate atomic Hamiltonians:     0.008     0.008   0.0% |
  Communicate:                       4.084     4.084   0.5% |
  Hartree integrate/restrict:        0.075     0.075   0.0% |
  Poisson:                           1.669     0.038   0.0% |
   Communicate from 1D:              0.272     0.272   0.0% |
   Communicate from 2D:              0.264     0.264   0.0% |
   Communicate to 1D:                0.232     0.232   0.0% |
   Communicate to 2D:                0.331     0.331   0.0% |
   FFT 1D:                           0.303     0.303   0.0% |
   FFT 2D:                           0.230     0.230   0.0% |
  XC 3D grid:                       60.693     6.170   0.8% |
   VdW-DF integral:                 54.523     3.956   0.5% |
    Convolution:                     6.451     6.451   0.8% |
    FFT:                             4.346     4.346   0.5% |
    gather:                         13.868    13.868   1.7% ||
    hmm1:                            1.220     1.220   0.2% |
    hmm2:                            2.568     2.568   0.3% |
    iFFT:                            4.114     4.114   0.5% |
    potential:                      18.000     0.350   0.0% |
     collect:                        1.507     1.507   0.2% |
     p1:                            10.785    10.785   1.3% ||
     p2:                             3.827     3.827   0.5% |
     sum:                            1.531     1.531   0.2% |
    splines:                         0.000     0.000   0.0% |
  vbar:                              0.018     0.018   0.0% |
 Orthonormalize:                     4.982     0.001   0.0% |
  calc_s_matrix:                     0.289     0.289   0.0% |
  inverse-cholesky:                  4.143     4.143   0.5% |
  projections:                       0.000     0.000   0.0% |
  rotate_psi_s:                      0.549     0.549   0.1% |
Set symmetry:                        0.003     0.003   0.0% |
Other:                               0.827     0.827   0.1% |
-----------------------------------------------------------
Total:                                       808.680 100.0%

Memory usage: 1.20 GiB
Date: Sun Oct  8 18:04:51 2023
