
  ___ ___ ___ _ _ _  
 |   |   |_  | | | | 
 | | | | | . | | | | 
 |__ |  _|___|_____|  22.8.0
 |___|_|             

User:   s204775@a086.nifl.fysik.dtu.dk
Date:   Sun Oct  8 17:53:17 2023
Arch:   x86_64
Pid:    203188
CWD:    /home/cat/s204775/projects/Bachelor_project/clean_slabs
Python: 3.10.4
gpaw:   /home/modules/software/GPAW/22.8.0-intel-2022a/lib/python3.10/site-packages/gpaw
_gpaw:  /home/modules/software/GPAW/22.8.0-intel-2022a/lib/python3.10/site-packages/
        _gpaw.cpython-310-x86_64-linux-gnu.so
ase:    /home/modules/software/ASE/3.22.1-intel-2022a/lib/python3.10/site-packages/ase (version 3.22.1)
numpy:  /home/modules/software/SciPy-bundle/2022.05-intel-2022a/lib/python3.10/site-packages/numpy (version 1.22.3)
scipy:  /home/modules/software/SciPy-bundle/2022.05-intel-2022a/lib/python3.10/site-packages/scipy (version 1.8.1)
libxc:  5.2.3
units:  Angstrom and eV
cores: 40
OpenMP: False
OMP_NUM_THREADS: 1

Input parameters:
  basis: dzp
  h: 0.18
  kpts: {size: (4, 4, 1)}
  maxiter: 3000
  xc: BEEF-vdW

System changes: positions, numbers, cell, pbc, initial_charges, initial_magmoms 

Initialize ...

species:
  Sn:
    name: Tin
    id: d1329c6b410f1e0bd923643368775dcd
    Z: 50.0
    valence: 14
    core: 36
    charge: 0.0
    file: /home/modules/software/GPAW-setups/0.9.20000/Sn.PBE.gz
    compensation charges: {type: gauss,
                           rc: 0.38,
                           lmax: 2}
    cutoffs: {filter: 2.23,
              core: 2.35}
    valence states:
      #              energy  rcut
      - 5s(2.00)   -10.538   1.201
      - 5p(2.00)    -3.696   1.270
      - 4d(10.00)   -25.845   1.185
      -  s          16.674   1.201
      -  p          23.515   1.270
      -  d           1.367   1.185
  
    # LCAO basis set for Sn:
    #   Name: dzp
    #   File: /home/modules/software/GPAW-setups/0.9.20000/Sn.dzp.basis.gz
    #   Number of radial functions: 7
    #   Number of spherical harmonics: 23
    #     l=0, rc=7.1250 Bohr: 5s-sz confined orbital
    #     l=1, rc=9.5469 Bohr: 5p-sz confined orbital
    #     l=2, rc=4.0625 Bohr: 4d-sz confined orbital
    #     l=0, rc=4.1250 Bohr: 5s-dz split-valence wave
    #     l=1, rc=5.6719 Bohr: 5p-dz split-valence wave
    #     l=2, rc=2.5938 Bohr: 4d-dz split-valence wave
    #     l=2, rc=9.5469 Bohr: d-type Gaussian polarization
    #   Number of RI-basis functions 0

Reference energy: -6048384.959056  # eV

Spin-paired calculation

Convergence criteria:
 Maximum [total energy] change in last 3 cyles: 0.0005 eV / electron
 Maximum integral of absolute [dens]ity change: 0.0001 electrons / valence electron
 Maximum integral of absolute [eigenst]ate change: 4e-08 eV^2 / valence electron
 Maximum number of scf [iter]ations: 3000
 (Square brackets indicate name in SCF output, whereas a 'c' in
 the SCF output indicates the quantity has converged.)

Symmetries present (total): 6

  ( 1  1  0)  ( 1  0  0)  ( 0  1  0)  ( 0 -1  0)  (-1  0  0)  (-1 -1  0)
  ( 0 -1  0)  ( 0  1  0)  (-1 -1  0)  (-1  0  0)  ( 1  1  0)  ( 1  0  0)
  ( 0  0  1)  ( 0  0  1)  ( 0  0  1)  ( 0  0  1)  ( 0  0  1)  ( 0  0  1)
Note: your k-points are not as symmetric as your crystal!

16 k-points: 4 x 4 x 1 Monkhorst-Pack grid
6 k-points in the irreducible part of the Brillouin zone
       k-points in crystal coordinates                weights
   0:     0.12500000   -0.12500000    0.00000000          2/16
   1:     0.12500000    0.12500000    0.00000000          2/16
   2:     0.37500000   -0.37500000    0.00000000          2/16
   3:     0.37500000   -0.12500000    0.00000000          4/16
   4:     0.37500000    0.12500000    0.00000000          4/16
   5:     0.37500000    0.37500000    0.00000000          2/16

Wave functions: Uniform real-space grid
  Kinetic energy operator: 8*3+1=25 point O(h^6) finite-difference Laplacian
  ScaLapack parameters: grid=1x1, blocksize=None
  Wavefunction extrapolation:
    Improved wavefunction reuse through dual PAW basis 

Occupation numbers: Fermi-Dirac:
  width: 0.1000  # eV
 

Eigensolver
   Davidson(niter=2) 

Densities:
  Coarse grid: 48*48*156 grid
  Fine grid: 96*96*312 grid
  Total Charge: 0.000000 

Density mixing:
  Method: separate
  Backend: pulay
  Linear mixing parameter: 0.05
  old densities: 5
  Damping of long wavelength oscillations: 50 

Hamiltonian:
  XC and Coulomb potentials evaluated on a 96*96*312 grid
  Using the BEEF-vdW Exchange-Correlation functional
  Interpolation: tri-quintic (5. degree polynomial)
  Poisson solver: FastPoissonSolver using
    Stencil: 8*3+1=25 point O(h^6) finite-difference Laplacian
    FFT axes: [0, 1]
    FST axes: [2]
 

XC parameters: BEEF-vdW with 2 nearest neighbor stencil

Memory estimate:
  Process memory now: 173.20 MiB
  Calculator: 369.84 MiB
    Density: 14.43 MiB
      Arrays: 3.54 MiB
      Localized functions: 9.53 MiB
      Mixer: 1.36 MiB
    Hamiltonian: 3.02 MiB
      Arrays: 2.32 MiB
      XC: 0.00 MiB
      Poisson: 0.00 MiB
      vbar: 0.71 MiB
    Wavefunctions: 352.39 MiB
      Arrays psit_nG: 250.94 MiB
      Eigensolver: 99.40 MiB
      Projections: 0.46 MiB
      Projectors: 1.60 MiB

Total number of cores used: 40
Parallelization over k-points: 2
Domain decomposition: 2 x 2 x 5

Number of atoms: 36
Number of atomic orbitals: 828
Number of bands in calculation: 307
Number of valence electrons: 504
Bands to converge: occupied

... initialized

Initializing position-dependent things.

Density initialized from atomic densities
Creating initial wave functions:
  307 bands from LCAO basis set

                                                  
                                                  
                                                  
                                                  
                                                  
           Sn      Sn      Sn                     
                                                  
            SSn     SSn     SnSn                  
               Sn       Sn      Sn                
              Sn      Sn       Sn                 
                 Sn      Sn      Sn               
               Sn       Sn      Sn                
                                                  
                  Sn      Sn      Sn              
                    Sn       Sn      Sn           
           Sn      Sn      Sn                     
                                                  
             Sn      Sn       Sn                  
               Sn       Sn      Sn                
                                                  
                                                  
                                                  
                                                  

Positions:
   0 Sn    -0.000000    0.000000   10.000000    ( 0.0000,  0.0000,  0.0000)
   1 Sn     1.710646    0.987642   12.793473    ( 0.0000,  0.0000,  0.0000)
   2 Sn     0.000000    1.975283   15.709250    ( 0.0000,  0.0000,  0.0000)
   3 Sn     0.000000    0.000000   18.391826    ( 0.0000,  0.0000,  0.0000)
   4 Sn    -1.710646    2.962925   10.000000    ( 0.0000,  0.0000,  0.0000)
   5 Sn    -0.000000    3.950567   12.793473    ( 0.0000,  0.0000,  0.0000)
   6 Sn    -1.710645    4.938209   15.709250    ( 0.0000,  0.0000,  0.0000)
   7 Sn    -1.710646    2.962925   18.391826    ( 0.0000,  0.0000,  0.0000)
   8 Sn    -3.421291    5.925850   10.000000    ( 0.0000,  0.0000,  0.0000)
   9 Sn    -1.710646    6.913492   12.793473    ( 0.0000,  0.0000,  0.0000)
  10 Sn    -3.421292    7.901134   15.709250    ( 0.0000,  0.0000,  0.0000)
  11 Sn    -3.421291    5.925850   18.391826    ( 0.0000,  0.0000,  0.0000)
  12 Sn     3.421291    0.000000   10.000000    ( 0.0000,  0.0000,  0.0000)
  13 Sn     5.131937    0.987642   12.793473    ( 0.0000,  0.0000,  0.0000)
  14 Sn     3.421292    1.975284   15.709250    ( 0.0000,  0.0000,  0.0000)
  15 Sn     3.421291    0.000000   18.391826    ( 0.0000,  0.0000,  0.0000)
  16 Sn     1.710646    2.962925   10.000000    ( 0.0000,  0.0000,  0.0000)
  17 Sn     3.421291    3.950567   12.793473    ( 0.0000,  0.0000,  0.0000)
  18 Sn     1.710645    4.938209   15.709250    ( 0.0000,  0.0000,  0.0000)
  19 Sn     1.710646    2.962925   18.391826    ( 0.0000,  0.0000,  0.0000)
  20 Sn    -0.000000    5.925850   10.000000    ( 0.0000,  0.0000,  0.0000)
  21 Sn     1.710646    6.913492   12.793473    ( 0.0000,  0.0000,  0.0000)
  22 Sn    -0.000000    7.901133   15.709250    ( 0.0000,  0.0000,  0.0000)
  23 Sn     0.000000    5.925850   18.391826    ( 0.0000,  0.0000,  0.0000)
  24 Sn     6.842582    0.000000   10.000000    ( 0.0000,  0.0000,  0.0000)
  25 Sn     8.553228    0.987642   12.793473    ( 0.0000,  0.0000,  0.0000)
  26 Sn     6.842582    1.975284   15.709250    ( 0.0000,  0.0000,  0.0000)
  27 Sn     6.842582    0.000000   18.391826    ( 0.0000,  0.0000,  0.0000)
  28 Sn     5.131937    2.962925   10.000000    ( 0.0000,  0.0000,  0.0000)
  29 Sn     6.842582    3.950567   12.793473    ( 0.0000,  0.0000,  0.0000)
  30 Sn     5.131937    4.938208   15.709250    ( 0.0000,  0.0000,  0.0000)
  31 Sn     5.131937    2.962925   18.391826    ( 0.0000,  0.0000,  0.0000)
  32 Sn     3.421291    5.925850   10.000000    ( 0.0000,  0.0000,  0.0000)
  33 Sn     5.131937    6.913492   12.793473    ( 0.0000,  0.0000,  0.0000)
  34 Sn     3.421292    7.901134   15.709250    ( 0.0000,  0.0000,  0.0000)
  35 Sn     3.421291    5.925850   18.391826    ( 0.0000,  0.0000,  0.0000)

Unit cell:
           periodic     x           y           z      points  spacing
  1. axis:    yes   10.263874    0.000000    0.000000    48     0.1852
  2. axis:    yes   -5.131937    8.888775    0.000000    48     0.1852
  3. axis:    no     0.000000    0.000000   28.380418   156     0.1819

  Lengths:  10.263874  10.263874  28.380418
  Angles:   90.000000  90.000000 120.000000

Effective grid spacing dv^(1/3) = 0.1931

     iter     time        total  log10-change:
                         energy  eigst   dens
iter:   1 17:54:00 -5885.697749
iter:   2 17:54:24 -5886.086702  -0.96  -1.64
iter:   3 17:54:48 -5886.337779  -1.43  -1.65
iter:   4 17:55:12 -5886.524940  -1.66  -2.01
iter:   5 17:55:36 -5886.404977c -2.53  -2.37
iter:   6 17:56:00 -5886.407479c -3.00  -2.57
iter:   7 17:56:23 -5886.391198c -2.74  -2.55
iter:   8 17:56:47 -5886.385176c -3.10  -2.81
iter:   9 17:57:11 -5886.383220c -3.62  -2.83
iter:  10 17:57:35 -5886.379619c -3.64  -2.83
iter:  11 17:57:59 -5886.389003c -3.45  -2.91
iter:  12 17:58:23 -5886.390238c -3.99  -2.84
iter:  13 17:58:46 -5886.391216c -3.79  -2.85
iter:  14 17:59:10 -5886.389895c -3.57  -2.87
iter:  15 17:59:34 -5886.389443c -4.19  -2.88
iter:  16 17:59:58 -5886.388962c -3.76  -2.89
iter:  17 18:00:22 -5886.391172c -3.73  -2.93
iter:  18 18:00:46 -5886.393233c -4.09  -3.06
iter:  19 18:01:09 -5886.387946c -3.45  -3.04
iter:  20 18:01:33 -5886.385845c -4.58  -3.48
iter:  21 18:01:57 -5886.385302c -5.08  -3.66
iter:  22 18:02:21 -5886.384997c -5.28  -3.74
iter:  23 18:02:45 -5886.384905c -5.45  -3.81
iter:  24 18:03:09 -5886.384914c -5.25  -3.97
iter:  25 18:03:33 -5886.384883c -6.09  -4.06c
iter:  26 18:03:56 -5886.384865c -6.25  -4.17c
iter:  27 18:04:20 -5886.384911c -6.14  -4.29c
iter:  28 18:04:44 -5886.384889c -6.76  -4.60c
iter:  29 18:05:08 -5886.384898c -6.73  -4.66c
iter:  30 18:05:32 -5886.384889c -7.17  -4.88c
iter:  31 18:05:56 -5886.384893c -7.25  -5.03c
iter:  32 18:06:19 -5886.384889c -7.71c -5.18c

Converged after 32 iterations.

Dipole moment: (-7.130301, -12.516449, -0.006100) |e|*Ang

Energy contributions relative to reference atoms: (reference = -6048384.959056)

Kinetic:       +916.330839
Potential:     -876.256760
External:        +0.000000
XC:            -5923.816104
Entropy (-ST):   -0.632898
Local:           -2.326416
--------------------------
Free energy:   -5886.701338
Extrapolated:  -5886.384889

Showing only first 2 kpts
 Kpt  Band  Eigenvalues  Occupancy
  0   250     -4.79895    1.99102
  0   251     -4.76152    1.98696
  0   252     -4.76152    1.98696
  0   253     -4.49840    1.83296

  1   250     -4.57890    1.92170
  1   251     -4.57889    1.92170
  1   252     -4.57248    1.91673
  1   253     -4.55283    1.89955


Fermi level: -4.25886

No gap

Forces in eV/Ang:
  0 Sn    0.00000    0.00000    0.13551
  1 Sn   -0.00002   -0.00001   -0.19727
  2 Sn    0.00000   -0.00004    0.00115
  3 Sn    0.00000    0.00000   -0.00500
  4 Sn   -0.00000   -0.00002    0.13549
  5 Sn    0.00000   -0.00004   -0.19728
  6 Sn   -0.00002   -0.00001    0.00116
  7 Sn    0.00000   -0.00001   -0.00499
  8 Sn   -0.00002    0.00001    0.13549
  9 Sn   -0.00004    0.00002   -0.19728
 10 Sn   -0.00003    0.00002    0.00115
 11 Sn   -0.00001    0.00001   -0.00499
 12 Sn   -0.00001    0.00001    0.13549
 13 Sn   -0.00000    0.00002   -0.19728
 14 Sn   -0.00001   -0.00001    0.00115
 15 Sn   -0.00001    0.00001   -0.00499
 16 Sn    0.00000   -0.00002    0.13549
 17 Sn    0.00001   -0.00001   -0.19728
 18 Sn    0.00002   -0.00001    0.00116
 19 Sn   -0.00000   -0.00001   -0.00499
 20 Sn    0.00000    0.00000    0.13548
 21 Sn    0.00004    0.00002   -0.19728
 22 Sn    0.00000    0.00003    0.00116
 23 Sn   -0.00000    0.00000   -0.00498
 24 Sn    0.00001    0.00001    0.13549
 25 Sn    0.00002   -0.00001   -0.19727
 26 Sn    0.00001   -0.00001    0.00115
 27 Sn    0.00001    0.00001   -0.00499
 28 Sn    0.00000    0.00000    0.13549
 29 Sn   -0.00001   -0.00001   -0.19728
 30 Sn    0.00000    0.00001    0.00115
 31 Sn    0.00000    0.00000   -0.00499
 32 Sn    0.00002    0.00001    0.13549
 33 Sn    0.00000    0.00002   -0.19727
 34 Sn    0.00003    0.00002    0.00115
 35 Sn    0.00001    0.00001   -0.00499

      Step     Time          Energy         fmax
BFGS:    0 18:06:28    -5886.384889        0.0050
Timing:                              incl.     excl.
-----------------------------------------------------------
Forces:                              8.766     8.766   1.1% |
Hamiltonian:                         6.936     0.000   0.0% |
 Atomic:                             0.000     0.000   0.0% |
  XC Correction:                     0.000     0.000   0.0% |
 Calculate atomic Hamiltonians:      0.000     0.000   0.0% |
 Communicate:                        0.126     0.126   0.0% |
 Hartree integrate/restrict:         0.005     0.005   0.0% |
 Initialize Hamiltonian:             0.000     0.000   0.0% |
 Poisson:                            0.073     0.002   0.0% |
  Communicate from 1D:               0.012     0.012   0.0% |
  Communicate from 2D:               0.011     0.011   0.0% |
  Communicate to 1D:                 0.011     0.011   0.0% |
  Communicate to 2D:                 0.014     0.014   0.0% |
  FFT 1D:                            0.011     0.011   0.0% |
  FFT 2D:                            0.012     0.012   0.0% |
 XC 3D grid:                         6.712     0.310   0.0% |
  VdW-DF integral:                   6.402     0.035   0.0% |
   Convolution:                      0.363     0.363   0.0% |
   FFT:                              0.211     0.211   0.0% |
   gather:                           0.819     0.819   0.1% |
   hmm1:                             0.066     0.066   0.0% |
   hmm2:                             0.121     0.121   0.0% |
   iFFT:                             0.213     0.213   0.0% |
   potential:                        0.899     0.016   0.0% |
    collect:                         0.093     0.093   0.0% |
    p1:                              0.521     0.521   0.1% |
    p2:                              0.184     0.184   0.0% |
    sum:                             0.087     0.087   0.0% |
   splines:                          3.673     3.673   0.5% |
 vbar:                               0.019     0.019   0.0% |
LCAO initialization:                11.600     0.266   0.0% |
 LCAO eigensolver:                   2.129     0.006   0.0% |
  Calculate projections:             0.000     0.000   0.0% |
  DenseAtomicCorrection:             0.000     0.000   0.0% |
  Distribute overlap matrix:         1.086     1.086   0.1% |
  Orbital Layouts:                   1.007     1.007   0.1% |
  Potential matrix:                  0.002     0.002   0.0% |
  Sum over cells:                    0.028     0.028   0.0% |
 LCAO to grid:                       8.681     8.681   1.1% |
 Set positions (LCAO WFS):           0.524     0.427   0.1% |
  Basic WFS set positions:           0.005     0.005   0.0% |
  Basis functions set positions:     0.000     0.000   0.0% |
  P tci:                             0.001     0.001   0.0% |
  ST tci:                            0.061     0.061   0.0% |
  mktci:                             0.031     0.031   0.0% |
SCF-cycle:                         762.811    11.725   1.5% ||
 Davidson:                         646.498   137.891  17.4% |------|
  Apply hamiltonian:                23.237    23.237   2.9% ||
  Subspace diag:                    92.839     0.011   0.0% |
   calc_h_matrix:                   45.775    23.119   2.9% ||
    Apply hamiltonian:              22.656    22.656   2.9% ||
   diagonalize:                      2.975     2.975   0.4% |
   rotate_psi:                      44.078    44.078   5.6% |-|
  calc. matrices:                  277.895   158.061  20.0% |-------|
   Apply hamiltonian:              119.833   119.833  15.2% |-----|
  diagonalize:                      27.159    27.159   3.4% ||
  rotate_psi:                       87.478    87.478  11.1% |---|
 Density:                            4.835     0.001   0.0% |
  Atomic density matrices:           0.174     0.174   0.0% |
  Mix:                               0.154     0.154   0.0% |
  Multipole moments:                 0.004     0.004   0.0% |
  Pseudo density:                    4.503     1.288   0.2% |
   Symmetrize density:               3.215     3.215   0.4% |
 Hamiltonian:                       96.832     0.003   0.0% |
  Atomic:                            0.006     0.006   0.0% |
   XC Correction:                    0.000     0.000   0.0% |
  Calculate atomic Hamiltonians:     0.008     0.008   0.0% |
  Communicate:                       3.803     3.803   0.5% |
  Hartree integrate/restrict:        0.120     0.120   0.0% |
  Poisson:                           2.231     0.062   0.0% |
   Communicate from 1D:              0.377     0.377   0.0% |
   Communicate from 2D:              0.335     0.335   0.0% |
   Communicate to 1D:                0.316     0.316   0.0% |
   Communicate to 2D:                0.430     0.430   0.1% |
   FFT 1D:                           0.340     0.340   0.0% |
   FFT 2D:                           0.371     0.371   0.0% |
  XC 3D grid:                       90.634     8.596   1.1% |
   VdW-DF integral:                 82.038     1.116   0.1% |
    Convolution:                    11.789    11.789   1.5% ||
    FFT:                             6.470     6.470   0.8% |
    gather:                         23.121    23.121   2.9% ||
    hmm1:                            1.793     1.793   0.2% |
    hmm2:                            3.748     3.748   0.5% |
    iFFT:                            6.621     6.621   0.8% |
    potential:                      27.380     0.506   0.1% |
     collect:                        2.587     2.587   0.3% |
     p1:                            16.153    16.153   2.0% ||
     p2:                             5.694     5.694   0.7% |
     sum:                            2.440     2.440   0.3% |
    splines:                         0.000     0.000   0.0% |
  vbar:                              0.027     0.027   0.0% |
 Orthonormalize:                     2.921     0.001   0.0% |
  calc_s_matrix:                     0.363     0.363   0.0% |
  inverse-cholesky:                  1.843     1.843   0.2% |
  projections:                       0.000     0.000   0.0% |
  rotate_psi_s:                      0.714     0.714   0.1% |
Set symmetry:                        0.003     0.003   0.0% |
Other:                               0.840     0.840   0.1% |
-----------------------------------------------------------
Total:                                       790.957 100.0%

Memory usage: 1.45 GiB
Date: Sun Oct  8 18:06:28 2023
