
  ___ ___ ___ _ _ _  
 |   |   |_  | | | | 
 | | | | | . | | | | 
 |__ |  _|___|_____|  22.8.0
 |___|_|             

User:   s204775@a071.nifl.fysik.dtu.dk
Date:   Sun Oct  8 17:55:19 2023
Arch:   x86_64
Pid:    49191
CWD:    /home/cat/s204775/projects/Bachelor_project/clean_slabs
Python: 3.10.4
gpaw:   /home/modules/software/GPAW/22.8.0-intel-2022a/lib/python3.10/site-packages/gpaw
_gpaw:  /home/modules/software/GPAW/22.8.0-intel-2022a/lib/python3.10/site-packages/
        _gpaw.cpython-310-x86_64-linux-gnu.so
ase:    /home/modules/software/ASE/3.22.1-intel-2022a/lib/python3.10/site-packages/ase (version 3.22.1)
numpy:  /home/modules/software/SciPy-bundle/2022.05-intel-2022a/lib/python3.10/site-packages/numpy (version 1.22.3)
scipy:  /home/modules/software/SciPy-bundle/2022.05-intel-2022a/lib/python3.10/site-packages/scipy (version 1.8.1)
libxc:  5.2.3
units:  Angstrom and eV
cores: 40
OpenMP: False
OMP_NUM_THREADS: 1

Input parameters:
  basis: dzp
  h: 0.18
  kpts: {size: (4, 4, 1)}
  maxiter: 3000
  xc: BEEF-vdW

System changes: positions, numbers, cell, pbc, initial_charges, initial_magmoms 

Initialize ...

species:
  Tl:
    name: Thallium
    id: 5a3688cb07e09c63f278d9dd157b5100
    Z: 81.0
    valence: 13
    core: 68
    charge: 0.0
    file: /home/modules/software/GPAW-setups/0.9.20000/Tl.PBE.gz
    compensation charges: {type: gauss,
                           rc: 0.38,
                           lmax: 2}
    cutoffs: {filter: 2.11,
              core: 2.55}
    valence states:
      #              energy  rcut
      - 6s(2.00)    -9.493   1.212
      - 6p(1.00)    -2.379   1.270
      - 5d(10.00)   -15.517   1.191
      -  s          17.718   1.212
      -  p          24.832   1.270
      -  d          11.695   1.191
  
    # LCAO basis set for Tl:
    #   Name: dzp
    #   File: /home/modules/software/GPAW-setups/0.9.20000/Tl.dzp.basis.gz
    #   Number of radial functions: 7
    #   Number of spherical harmonics: 23
    #     l=0, rc=7.3438 Bohr: 6s-sz confined orbital
    #     l=1, rc=11.0312 Bohr: 6p-sz confined orbital
    #     l=2, rc=4.8750 Bohr: 5d-sz confined orbital
    #     l=0, rc=4.2500 Bohr: 6s-dz split-valence wave
    #     l=1, rc=6.6250 Bohr: 6p-dz split-valence wave
    #     l=2, rc=2.9531 Bohr: 5d-dz split-valence wave
    #     l=2, rc=11.0312 Bohr: d-type Gaussian polarization
    #   Number of RI-basis functions 0

Reference energy: -19801619.289778  # eV

Spin-paired calculation

Convergence criteria:
 Maximum [total energy] change in last 3 cyles: 0.0005 eV / electron
 Maximum integral of absolute [dens]ity change: 0.0001 electrons / valence electron
 Maximum integral of absolute [eigenst]ate change: 4e-08 eV^2 / valence electron
 Maximum number of scf [iter]ations: 3000
 (Square brackets indicate name in SCF output, whereas a 'c' in
 the SCF output indicates the quantity has converged.)

Symmetries present (total): 6

  ( 1  0  0)  ( 1 -1  0)  ( 0  1  0)  ( 0 -1  0)  (-1  1  0)  (-1  0  0)
  ( 0  1  0)  ( 0 -1  0)  ( 1  0  0)  ( 1 -1  0)  (-1  0  0)  (-1  1  0)
  ( 0  0  1)  ( 0  0  1)  ( 0  0  1)  ( 0  0  1)  ( 0  0  1)  ( 0  0  1)
Note: your k-points are not as symmetric as your crystal!

16 k-points: 4 x 4 x 1 Monkhorst-Pack grid
6 k-points in the irreducible part of the Brillouin zone
       k-points in crystal coordinates                weights
   0:     0.12500000   -0.12500000    0.00000000          2/16
   1:     0.12500000    0.12500000    0.00000000          2/16
   2:     0.37500000   -0.37500000    0.00000000          2/16
   3:     0.37500000   -0.12500000    0.00000000          4/16
   4:     0.37500000    0.12500000    0.00000000          4/16
   5:     0.37500000    0.37500000    0.00000000          2/16

Wave functions: Uniform real-space grid
  Kinetic energy operator: 8*3+1=25 point O(h^6) finite-difference Laplacian
  ScaLapack parameters: grid=1x1, blocksize=None
  Wavefunction extrapolation:
    Improved wavefunction reuse through dual PAW basis 

Occupation numbers: Fermi-Dirac:
  width: 0.1000  # eV
 

Eigensolver
   Davidson(niter=2) 

Densities:
  Coarse grid: 52*52*160 grid
  Fine grid: 104*104*320 grid
  Total Charge: 0.000000 

Density mixing:
  Method: separate
  Backend: pulay
  Linear mixing parameter: 0.05
  old densities: 5
  Damping of long wavelength oscillations: 50 

Hamiltonian:
  XC and Coulomb potentials evaluated on a 104*104*320 grid
  Using the BEEF-vdW Exchange-Correlation functional
  Interpolation: tri-quintic (5. degree polynomial)
  Poisson solver: FastPoissonSolver using
    Stencil: 8*3+1=25 point O(h^6) finite-difference Laplacian
    FFT axes: [0, 1]
    FST axes: [2]
 

XC parameters: BEEF-vdW with 2 nearest neighbor stencil

Memory estimate:
  Process memory now: 175.86 MiB
  Calculator: 400.44 MiB
    Density: 16.54 MiB
      Arrays: 4.22 MiB
      Localized functions: 10.72 MiB
      Mixer: 1.60 MiB
    Hamiltonian: 3.43 MiB
      Arrays: 2.76 MiB
      XC: 0.00 MiB
      Poisson: 0.00 MiB
      vbar: 0.67 MiB
    Wavefunctions: 380.47 MiB
      Arrays psit_nG: 273.40 MiB
      Eigensolver: 105.13 MiB
      Projections: 0.42 MiB
      Projectors: 1.52 MiB

Total number of cores used: 40
Parallelization over k-points: 2
Domain decomposition: 2 x 2 x 5

Number of atoms: 36
Number of atomic orbitals: 828
Number of bands in calculation: 285
Number of valence electrons: 468
Bands to converge: occupied

... initialized

Initializing position-dependent things.

Density initialized from atomic densities
Creating initial wave functions:
  285 bands from LCAO basis set

                                                             
                                                             
                                                             
                                                             
                                  Tl       Tl       Tl       
                                                             
                            Tl       Tl       Tl             
                      Tl       Tl      Tl                    
                                                             
                         Tl      Tl       Tl                 
                                                             
                  Tl       Tl       Tl                       
            Tl       Tl      TTl      Tl       Tl            
                                                             
                       Tl       Tl       Tl                  
                 Tl       Tl      Tl                         
                                                             
                    Tl      Tl       Tl                      
             Tl       Tl       Tl                            
                                                             
       Tl       Tl       Tl                                  
                                                             
                                                             
                                                             
                                                             

Positions:
   0 Tl     0.000000    0.000000   10.000000    ( 0.0000,  0.0000,  0.0000)
   1 Tl     3.527816    2.036786   12.880450    ( 0.0000,  0.0000,  0.0000)
   2 Tl     1.764813    1.018915   15.753208    ( 0.0000,  0.0000,  0.0000)
   3 Tl     5.291724    3.055179   18.682936    ( 0.0000,  0.0000,  0.0000)
   4 Tl     1.763908    3.055179   10.000000    ( 0.0000,  0.0000,  0.0000)
   5 Tl     5.291724    5.091964   12.880450    ( 0.0000,  0.0000,  0.0000)
   6 Tl     3.536429    4.068599   15.756428    ( 0.0000,  0.0000,  0.0000)
   7 Tl     7.055234    6.110037   18.676583    ( 0.0000,  0.0000,  0.0000)
   8 Tl     3.527816    6.110357   10.000000    ( 0.0000,  0.0000,  0.0000)
   9 Tl     7.055633    8.147143   12.880450    ( 0.0000,  0.0000,  0.0000)
  10 Tl     5.291724    7.127705   15.753208    ( 0.0000,  0.0000,  0.0000)
  11 Tl     8.819619    9.166041   18.676583    ( 0.0000,  0.0000,  0.0000)
  12 Tl     3.527816    0.000000   10.000000    ( 0.0000,  0.0000,  0.0000)
  13 Tl     7.055633    2.036786   12.880450    ( 0.0000,  0.0000,  0.0000)
  14 Tl     5.291724    1.028338   15.756428    ( 0.0000,  0.0000,  0.0000)
  15 Tl     8.819065    3.054993   18.676583    ( 0.0000,  0.0000,  0.0000)
  16 Tl     5.291724    3.055179   10.000000    ( 0.0000,  0.0000,  0.0000)
  17 Tl     8.819541    5.091964   12.880450    ( 0.0000,  0.0000,  0.0000)
  18 Tl     7.047020    4.068599   15.756428    ( 0.0000,  0.0000,  0.0000)
  19 Tl    10.583449    6.110357   18.680650    ( 0.0000,  0.0000,  0.0000)
  20 Tl     7.055633    6.110357   10.000000    ( 0.0000,  0.0000,  0.0000)
  21 Tl    10.583449    8.147143   12.880450    ( 0.0000,  0.0000,  0.0000)
  22 Tl     8.816138    7.130714   15.755224    ( 0.0000,  0.0000,  0.0000)
  23 Tl    12.347279    9.166041   18.676583    ( 0.0000,  0.0000,  0.0000)
  24 Tl     7.055633    0.000000   10.000000    ( 0.0000,  0.0000,  0.0000)
  25 Tl    10.583449    2.036786   12.880450    ( 0.0000,  0.0000,  0.0000)
  26 Tl     8.818636    1.018915   15.753208    ( 0.0000,  0.0000,  0.0000)
  27 Tl    12.347833    3.054993   18.676583    ( 0.0000,  0.0000,  0.0000)
  28 Tl     8.819541    3.055179   10.000000    ( 0.0000,  0.0000,  0.0000)
  29 Tl    12.347357    5.091964   12.880450    ( 0.0000,  0.0000,  0.0000)
  30 Tl    10.583449    4.069643   15.755224    ( 0.0000,  0.0000,  0.0000)
  31 Tl    14.111664    6.110037   18.676583    ( 0.0000,  0.0000,  0.0000)
  32 Tl    10.583449    6.110357   10.000000    ( 0.0000,  0.0000,  0.0000)
  33 Tl    14.111265    8.147143   12.880450    ( 0.0000,  0.0000,  0.0000)
  34 Tl    12.350760    7.130714   15.755224    ( 0.0000,  0.0000,  0.0000)
  35 Tl    15.875173    9.165536   18.652511    ( 0.0000,  0.0000,  0.0000)

Unit cell:
           periodic     x           y           z      points  spacing
  1. axis:    yes   10.583449    0.000000    0.000000    52     0.1763
  2. axis:    yes    5.291724    9.165536    0.000000    52     0.1763
  3. axis:    no     0.000000    0.000000   28.641350   160     0.1790

  Lengths:  10.583449  10.583449  28.641350
  Angles:   90.000000  90.000000  60.000000

Effective grid spacing dv^(1/3) = 0.1859

     iter     time        total  log10-change:
                         energy  eigst   dens
iter:   1 17:56:05 -12519.201555
iter:   2 17:56:29 -12519.278269  -0.89  -1.45
iter:   3 17:56:53 -12518.714220  -1.35  -1.47
iter:   4 17:57:17 -12519.094996  -1.28  -1.63
iter:   5 17:57:42 -12519.000110  -1.93  -1.97
iter:   6 17:58:06 -12519.014683c -2.63  -2.23
iter:   7 17:58:30 -12519.225755c -2.81  -2.22
iter:   8 17:58:54 -12518.633390  -1.90  -2.16
iter:   9 17:59:18 -12518.656611  -2.87  -2.66
iter:  10 17:59:42 -12518.642483c -2.79  -2.77
iter:  11 18:00:06 -12518.642840c -3.35  -2.92
iter:  12 18:00:31 -12518.646849c -3.07  -2.90
iter:  13 18:00:55 -12518.649118c -3.31  -2.96
iter:  14 18:01:19 -12518.647339c -3.87  -3.11
iter:  15 18:01:43 -12518.650216c -4.18  -3.16
iter:  16 18:02:07 -12518.646354c -4.28  -3.04
iter:  17 18:02:31 -12518.646133c -4.32  -3.27
iter:  18 18:02:56 -12518.646272c -5.30  -3.47
iter:  19 18:03:20 -12518.646249c -4.76  -3.47
iter:  20 18:03:44 -12518.646180c -5.35  -3.52
iter:  21 18:04:09 -12518.646572c -4.40  -3.54
iter:  22 18:04:33 -12518.645981c -4.68  -3.60
iter:  23 18:04:57 -12518.646030c -5.25  -3.77
iter:  24 18:05:21 -12518.645945c -5.82  -3.89
iter:  25 18:05:45 -12518.645927c -5.45  -4.05c
iter:  26 18:06:09 -12518.645872c -5.98  -4.07c
iter:  27 18:06:34 -12518.645836c -6.10  -4.22c
iter:  28 18:06:58 -12518.645805c -6.00  -4.34c
iter:  29 18:07:22 -12518.645794c -6.61  -4.38c
iter:  30 18:07:46 -12518.645800c -6.80  -4.57c
iter:  31 18:08:10 -12518.645799c -6.23  -4.58c
iter:  32 18:08:34 -12518.645800c -6.65  -4.48c
iter:  33 18:08:59 -12518.645796c -7.12  -4.85c
iter:  34 18:09:23 -12518.645794c -8.06c -4.89c

Converged after 34 iterations.

Dipole moment: (-26.318009, -15.194709, 0.010123) |e|*Ang

Energy contributions relative to reference atoms: (reference = -19801619.289778)

Kinetic:       +1261.095733
Potential:     -1189.190988
External:        +0.000000
XC:            -12589.868581
Entropy (-ST):   -0.896725
Local:           -0.233595
--------------------------
Free energy:   -12519.094157
Extrapolated:  -12518.645794

Showing only first 2 kpts
 Kpt  Band  Eigenvalues  Occupancy
  0   232     -3.84823    1.38442
  0   233     -3.81505    1.23485
  0   234     -3.79510    1.13867
  0   235     -3.77912    1.05963

  1   232     -3.87205    1.48101
  1   233     -3.79224    1.12462
  1   234     -3.79073    1.11719
  1   235     -3.67779    0.58059


Fermi level: -3.76719

No gap

Forces in eV/Ang:
  0 Tl   -0.00000   -0.00000   -0.03754
  1 Tl   -0.01603   -0.00926    0.01828
  2 Tl    0.00094    0.00055    0.00405
  3 Tl   -0.00000    0.00000    0.02181
  4 Tl    0.00861    0.01642   -0.09469
  5 Tl   -0.00000    0.01851    0.01828
  6 Tl    0.00623   -0.00360    0.00631
  7 Tl    0.00089   -0.00099    0.03987
  8 Tl   -0.00992   -0.01567   -0.09469
  9 Tl   -0.00324    0.00187    0.01892
 10 Tl    0.00000   -0.00109    0.00405
 11 Tl    0.00130   -0.00028    0.03987
 12 Tl    0.01853   -0.00076   -0.09469
 13 Tl    0.01603   -0.00926    0.01828
 14 Tl   -0.00000    0.00719    0.00631
 15 Tl   -0.00041    0.00127    0.03987
 16 Tl    0.00000   -0.00000   -0.11096
 17 Tl    0.02309    0.01333    0.03994
 18 Tl   -0.00623   -0.00360    0.00631
 19 Tl    0.00000    0.00000    0.00932
 20 Tl    0.00992   -0.01567   -0.09469
 21 Tl    0.00000   -0.02666    0.03994
 22 Tl   -0.00232    0.00134    0.01403
 23 Tl   -0.00130   -0.00028    0.03987
 24 Tl   -0.01853   -0.00076   -0.09469
 25 Tl    0.00000   -0.00374    0.01892
 26 Tl   -0.00094    0.00055    0.00405
 27 Tl    0.00041    0.00127    0.03987
 28 Tl   -0.00861    0.01642   -0.09469
 29 Tl   -0.02309    0.01333    0.03994
 30 Tl    0.00000   -0.00268    0.01403
 31 Tl   -0.00089   -0.00099    0.03987
 32 Tl   -0.00000   -0.00000   -0.11147
 33 Tl    0.00324    0.00187    0.01892
 34 Tl    0.00232    0.00134    0.01403
 35 Tl    0.00000    0.00000    0.01110

      Step     Time          Energy         fmax
BFGS:    0 18:09:31   -12518.645794        0.0399
Timing:                              incl.     excl.
-----------------------------------------------------------
Forces:                              7.757     7.757   0.9% |
Hamiltonian:                         7.859     0.000   0.0% |
 Atomic:                             0.000     0.000   0.0% |
  XC Correction:                     0.000     0.000   0.0% |
 Calculate atomic Hamiltonians:      0.000     0.000   0.0% |
 Communicate:                        0.146     0.146   0.0% |
 Hartree integrate/restrict:         0.005     0.005   0.0% |
 Initialize Hamiltonian:             0.000     0.000   0.0% |
 Poisson:                            0.087     0.003   0.0% |
  Communicate from 1D:               0.013     0.013   0.0% |
  Communicate from 2D:               0.014     0.014   0.0% |
  Communicate to 1D:                 0.013     0.013   0.0% |
  Communicate to 2D:                 0.017     0.017   0.0% |
  FFT 1D:                            0.009     0.009   0.0% |
  FFT 2D:                            0.018     0.018   0.0% |
 XC 3D grid:                         7.423     0.444   0.1% |
  VdW-DF integral:                   6.979     0.042   0.0% |
   Convolution:                      0.446     0.446   0.1% |
   FFT:                              0.264     0.264   0.0% |
   gather:                           0.841     0.841   0.1% |
   hmm1:                             0.078     0.078   0.0% |
   hmm2:                             0.147     0.147   0.0% |
   iFFT:                             0.269     0.269   0.0% |
   potential:                        1.084     0.019   0.0% |
    collect:                         0.113     0.113   0.0% |
    p1:                              0.626     0.626   0.1% |
    p2:                              0.219     0.219   0.0% |
    sum:                             0.107     0.107   0.0% |
   splines:                          3.807     3.807   0.4% |
 vbar:                               0.197     0.197   0.0% |
LCAO initialization:                14.026     0.268   0.0% |
 LCAO eigensolver:                   3.538     0.006   0.0% |
  Calculate projections:             0.000     0.000   0.0% |
  DenseAtomicCorrection:             0.000     0.000   0.0% |
  Distribute overlap matrix:         2.353     2.353   0.3% |
  Orbital Layouts:                   1.052     1.052   0.1% |
  Potential matrix:                  0.009     0.009   0.0% |
  Sum over cells:                    0.118     0.118   0.0% |
 LCAO to grid:                       9.627     9.627   1.1% |
 Set positions (LCAO WFS):           0.592     0.478   0.1% |
  Basic WFS set positions:           0.005     0.005   0.0% |
  Basis functions set positions:     0.000     0.000   0.0% |
  P tci:                             0.001     0.001   0.0% |
  ST tci:                            0.071     0.071   0.0% |
  mktci:                             0.037     0.037   0.0% |
SCF-cycle:                         821.449     1.558   0.2% |
 Davidson:                         687.164   154.891  18.2% |------|
  Apply hamiltonian:                26.672    26.672   3.1% ||
  Subspace diag:                    97.560     0.012   0.0% |
   calc_h_matrix:                   50.463    25.159   3.0% ||
    Apply hamiltonian:              25.304    25.304   3.0% ||
   diagonalize:                      2.926     2.926   0.3% |
   rotate_psi:                      44.158    44.158   5.2% |-|
  calc. matrices:                  292.583   172.731  20.3% |-------|
   Apply hamiltonian:              119.852   119.852  14.1% |-----|
  diagonalize:                      23.782    23.782   2.8% ||
  rotate_psi:                       91.677    91.677  10.8% |---|
 Density:                            6.039     0.001   0.0% |
  Atomic density matrices:           0.155     0.155   0.0% |
  Mix:                               0.217     0.217   0.0% |
  Multipole moments:                 0.005     0.005   0.0% |
  Pseudo density:                    5.662     1.516   0.2% |
   Symmetrize density:               4.145     4.145   0.5% |
 Hamiltonian:                      123.717     0.004   0.0% |
  Atomic:                            0.007     0.007   0.0% |
   XC Correction:                    0.000     0.000   0.0% |
  Calculate atomic Hamiltonians:     0.009     0.009   0.0% |
  Communicate:                       4.713     4.713   0.6% |
  Hartree integrate/restrict:        0.142     0.142   0.0% |
  Poisson:                           2.801     0.092   0.0% |
   Communicate from 1D:              0.504     0.504   0.1% |
   Communicate from 2D:              0.424     0.424   0.0% |
   Communicate to 1D:                0.389     0.389   0.0% |
   Communicate to 2D:                0.554     0.554   0.1% |
   FFT 1D:                           0.301     0.301   0.0% |
   FFT 2D:                           0.536     0.536   0.1% |
  XC 3D grid:                      116.005    11.107   1.3% ||
   VdW-DF integral:                104.897     1.405   0.2% |
    Convolution:                    14.657    14.657   1.7% ||
    FFT:                             8.837     8.837   1.0% |
    gather:                         29.017    29.017   3.4% ||
    hmm1:                            2.254     2.254   0.3% |
    hmm2:                            4.844     4.844   0.6% |
    iFFT:                            8.861     8.861   1.0% |
    potential:                      35.023     0.640   0.1% |
     collect:                        3.281     3.281   0.4% |
     p1:                            21.084    21.084   2.5% ||
     p2:                             7.380     7.380   0.9% |
     sum:                            2.637     2.637   0.3% |
    splines:                         0.000     0.000   0.0% |
  vbar:                              0.037     0.037   0.0% |
 Orthonormalize:                     2.971     0.001   0.0% |
  calc_s_matrix:                     0.346     0.346   0.0% |
  inverse-cholesky:                  1.923     1.923   0.2% |
  projections:                       0.000     0.000   0.0% |
  rotate_psi_s:                      0.701     0.701   0.1% |
Set symmetry:                        0.003     0.003   0.0% |
Other:                               1.066     1.066   0.1% |
-----------------------------------------------------------
Total:                                       852.159 100.0%

Memory usage: 1.65 GiB
Date: Sun Oct  8 18:09:31 2023
