
  ___ ___ ___ _ _ _  
 |   |   |_  | | | | 
 | | | | | . | | | | 
 |__ |  _|___|_____|  22.8.0
 |___|_|             

User:   s204775@a075.nifl.fysik.dtu.dk
Date:   Sun Oct  8 17:56:41 2023
Arch:   x86_64
Pid:    59746
CWD:    /home/cat/s204775/projects/Bachelor_project/clean_slabs
Python: 3.10.4
gpaw:   /home/modules/software/GPAW/22.8.0-intel-2022a/lib/python3.10/site-packages/gpaw
_gpaw:  /home/modules/software/GPAW/22.8.0-intel-2022a/lib/python3.10/site-packages/
        _gpaw.cpython-310-x86_64-linux-gnu.so
ase:    /home/modules/software/ASE/3.22.1-intel-2022a/lib/python3.10/site-packages/ase (version 3.22.1)
numpy:  /home/modules/software/SciPy-bundle/2022.05-intel-2022a/lib/python3.10/site-packages/numpy (version 1.22.3)
scipy:  /home/modules/software/SciPy-bundle/2022.05-intel-2022a/lib/python3.10/site-packages/scipy (version 1.8.1)
libxc:  5.2.3
units:  Angstrom and eV
cores: 40
OpenMP: False
OMP_NUM_THREADS: 1

Input parameters:
  basis: dzp
  h: 0.18
  kpts: {size: (4, 4, 1)}
  maxiter: 3000
  xc: BEEF-vdW

System changes: positions, numbers, cell, pbc, initial_charges, initial_magmoms 

Initialize ...

species:
  Zn:
    name: Zinc
    id: 9da902d12d12265ad8e0029a903fe3c0
    Z: 30.0
    valence: 12
    core: 18
    charge: 0.0
    file: /home/modules/software/GPAW-setups/0.9.20000/Zn.PBE.gz
    compensation charges: {type: gauss,
                           rc: 0.37,
                           lmax: 2}
    cutoffs: {filter: 2.14,
              core: 2.28}
    valence states:
      #              energy  rcut
      - 4s(2.00)    -5.977   1.286
      - 4p(0.00)    -1.117   1.270
      - 3d(10.00)   -10.142   1.180
      -  s          21.234   1.286
      -  p          26.095   1.270
      -  d          17.070   1.180
  
    # LCAO basis set for Zn:
    #   Name: dzp
    #   File: /home/modules/software/GPAW-setups/0.9.20000/Zn.dzp.basis.gz
    #   Number of radial functions: 7
    #   Number of spherical harmonics: 21
    #     l=0, rc=8.1562 Bohr: 4s-sz confined orbital
    #     l=1, rc=12.4062 Bohr: 4p-sz confined orbital
    #     l=2, rc=4.3594 Bohr: 3d-sz confined orbital
    #     l=0, rc=4.7188 Bohr: 4s-dz split-valence wave
    #     l=1, rc=7.4844 Bohr: 4p-dz split-valence wave
    #     l=2, rc=2.8125 Bohr: 3d-dz split-valence wave
    #     l=1, rc=8.1562 Bohr: p-type Gaussian polarization
    #   Number of RI-basis functions 0

Reference energy: -1759007.759505  # eV

Spin-paired calculation

Convergence criteria:
 Maximum [total energy] change in last 3 cyles: 0.0005 eV / electron
 Maximum integral of absolute [dens]ity change: 0.0001 electrons / valence electron
 Maximum integral of absolute [eigenst]ate change: 4e-08 eV^2 / valence electron
 Maximum number of scf [iter]ations: 3000
 (Square brackets indicate name in SCF output, whereas a 'c' in
 the SCF output indicates the quantity has converged.)

Symmetries present (total): 6

  ( 1  1  0)  ( 1  0  0)  ( 0  1  0)  ( 0 -1  0)  (-1  0  0)  (-1 -1  0)
  ( 0 -1  0)  ( 0  1  0)  (-1 -1  0)  (-1  0  0)  ( 1  1  0)  ( 1  0  0)
  ( 0  0  1)  ( 0  0  1)  ( 0  0  1)  ( 0  0  1)  ( 0  0  1)  ( 0  0  1)
Note: your k-points are not as symmetric as your crystal!

16 k-points: 4 x 4 x 1 Monkhorst-Pack grid
6 k-points in the irreducible part of the Brillouin zone
       k-points in crystal coordinates                weights
   0:     0.12500000   -0.12500000    0.00000000          2/16
   1:     0.12500000    0.12500000    0.00000000          2/16
   2:     0.37500000   -0.37500000    0.00000000          2/16
   3:     0.37500000   -0.12500000    0.00000000          4/16
   4:     0.37500000    0.12500000    0.00000000          4/16
   5:     0.37500000    0.37500000    0.00000000          2/16

Wave functions: Uniform real-space grid
  Kinetic energy operator: 8*3+1=25 point O(h^6) finite-difference Laplacian
  ScaLapack parameters: grid=1x1, blocksize=None
  Wavefunction extrapolation:
    Improved wavefunction reuse through dual PAW basis 

Occupation numbers: Fermi-Dirac:
  width: 0.1000  # eV
 

Eigensolver
   Davidson(niter=2) 

Densities:
  Coarse grid: 40*40*148 grid
  Fine grid: 80*80*296 grid
  Total Charge: 0.000000 

Density mixing:
  Method: separate
  Backend: pulay
  Linear mixing parameter: 0.05
  old densities: 5
  Damping of long wavelength oscillations: 50 

Hamiltonian:
  XC and Coulomb potentials evaluated on a 80*80*296 grid
  Using the BEEF-vdW Exchange-Correlation functional
  Interpolation: tri-quintic (5. degree polynomial)
  Poisson solver: FastPoissonSolver using
    Stencil: 8*3+1=25 point O(h^6) finite-difference Laplacian
    FFT axes: [0, 1]
    FST axes: [2]
 

XC parameters: BEEF-vdW with 2 nearest neighbor stencil

Memory estimate:
  Process memory now: 169.07 MiB
  Calculator: 215.68 MiB
    Density: 13.25 MiB
      Arrays: 2.34 MiB
      Localized functions: 10.03 MiB
      Mixer: 0.89 MiB
    Hamiltonian: 2.17 MiB
      Arrays: 1.53 MiB
      XC: 0.00 MiB
      Poisson: 0.00 MiB
      vbar: 0.64 MiB
    Wavefunctions: 200.27 MiB
      Arrays psit_nG: 140.19 MiB
      Eigensolver: 58.26 MiB
      Projections: 0.39 MiB
      Projectors: 1.43 MiB

Total number of cores used: 40
Parallelization over k-points: 2
Domain decomposition: 2 x 2 x 5

Number of atoms: 36
Number of atomic orbitals: 756
Number of bands in calculation: 264
Number of valence electrons: 432
Bands to converge: occupied

... initialized

Initializing position-dependent things.

Density initialized from atomic densities
Creating initial wave functions:
  264 bands from LCAO basis set

                                             
                                             
                                             
                                             
               Zn     Zn     Zn              
                 Zn     Zn     Zn            
                                             
           Zn     ZZn    ZZn     Zn          
                                             
             Zn     Zn     Zn                
               Zn     Zn     Zn              
              Zn     Zn     Zn               
                Zn     Zn     Zn             
                                             
          Zn     ZZn    ZZn     Zn           
                                             
            Zn     Zn     Zn                 
              Zn     Zn     Zn               
                                             
                                             
                                             
                                             

Positions:
   0 Zn     0.000000    0.000000   10.000000    ( 0.0000,  0.0000,  0.0000)
   1 Zn     1.414214    0.816497   12.309401    ( 0.0000,  0.0000,  0.0000)
   2 Zn     0.000000    1.628527   14.652990    ( 0.0000,  0.0000,  0.0000)
   3 Zn     1.412823    2.446904   17.071372    ( 0.0000,  0.0000,  0.0000)
   4 Zn    -1.414214    2.449490   10.000000    ( 0.0000,  0.0000,  0.0000)
   5 Zn     0.000000    3.265986   12.309401    ( 0.0000,  0.0000,  0.0000)
   6 Zn    -1.415902    4.081508   14.653527    ( 0.0000,  0.0000,  0.0000)
   7 Zn     0.000000    4.898979   17.084620    ( 0.0000,  0.0000,  0.0000)
   8 Zn    -2.828427    4.898979   10.000000    ( 0.0000,  0.0000,  0.0000)
   9 Zn    -1.414214    5.715476   12.309401    ( 0.0000,  0.0000,  0.0000)
  10 Zn    -2.832295    6.534206   14.652990    ( 0.0000,  0.0000,  0.0000)
  11 Zn    -1.417148    7.348558   17.071372    ( 0.0000,  0.0000,  0.0000)
  12 Zn     2.828427    0.000000   10.000000    ( 0.0000,  0.0000,  0.0000)
  13 Zn     4.242641    0.816497   12.309401    ( 0.0000,  0.0000,  0.0000)
  14 Zn     2.825133    1.631091   14.647504    ( 0.0000,  0.0000,  0.0000)
  15 Zn     4.242641    2.449490   17.082020    ( 0.0000,  0.0000,  0.0000)
  16 Zn     1.414214    2.449490   10.000000    ( 0.0000,  0.0000,  0.0000)
  17 Zn     2.828427    3.265986   12.309401    ( 0.0000,  0.0000,  0.0000)
  18 Zn     1.415902    4.081508   14.653527    ( 0.0000,  0.0000,  0.0000)
  19 Zn     2.829972    4.901477   17.071372    ( 0.0000,  0.0000,  0.0000)
  20 Zn     0.000000    4.898979   10.000000    ( 0.0000,  0.0000,  0.0000)
  21 Zn     1.414214    5.715476   12.309401    ( 0.0000,  0.0000,  0.0000)
  22 Zn     0.000000    6.533922   14.653527    ( 0.0000,  0.0000,  0.0000)
  23 Zn     1.417148    7.348558   17.071372    ( 0.0000,  0.0000,  0.0000)
  24 Zn     5.656854    0.000000   10.000000    ( 0.0000,  0.0000,  0.0000)
  25 Zn     7.071068    0.816497   12.309401    ( 0.0000,  0.0000,  0.0000)
  26 Zn     5.660149    1.631091   14.647504    ( 0.0000,  0.0000,  0.0000)
  27 Zn     7.072458    2.446904   17.071372    ( 0.0000,  0.0000,  0.0000)
  28 Zn     4.242641    2.449490   10.000000    ( 0.0000,  0.0000,  0.0000)
  29 Zn     5.656854    3.265986   12.309401    ( 0.0000,  0.0000,  0.0000)
  30 Zn     4.242641    4.086287   14.647504    ( 0.0000,  0.0000,  0.0000)
  31 Zn     5.655310    4.901477   17.071372    ( 0.0000,  0.0000,  0.0000)
  32 Zn     2.828427    4.898979   10.000000    ( 0.0000,  0.0000,  0.0000)
  33 Zn     4.242641    5.715476   12.309401    ( 0.0000,  0.0000,  0.0000)
  34 Zn     2.832295    6.534206   14.652990    ( 0.0000,  0.0000,  0.0000)
  35 Zn     4.242641    7.348469   17.091774    ( 0.0000,  0.0000,  0.0000)

Unit cell:
           periodic     x           y           z      points  spacing
  1. axis:    yes    8.485281    0.000000    0.000000    40     0.1837
  2. axis:    yes   -4.242641    7.348469    0.000000    40     0.1837
  3. axis:    no     0.000000    0.000000   26.928203   148     0.1819

  Lengths:   8.485281   8.485281  26.928203
  Angles:   90.000000  90.000000 120.000000

Effective grid spacing dv^(1/3) = 0.1921

     iter     time        total  log10-change:
                         energy  eigst   dens
iter:   1 17:57:12 -2773.833993
iter:   2 17:57:27 -2775.296551  +0.20  -1.41
iter:   3 17:57:42 -2778.718717  -0.18  -1.43
iter:   4 17:57:57 -2778.621970  -0.72  -1.82
iter:   5 17:58:12 -2778.804485c -1.14  -2.06
iter:   6 17:58:27 -2778.246242  -1.42  -2.14
iter:   7 17:58:42 -2777.815397  -1.58  -2.32
iter:   8 17:58:57 -2777.790369  -2.23  -2.73
iter:   9 17:59:12 -2777.793722c -2.66  -2.83
iter:  10 17:59:27 -2777.794270c -3.07  -2.84
iter:  11 17:59:42 -2777.802248c -3.20  -2.89
iter:  12 17:59:57 -2777.792662c -3.78  -2.98
iter:  13 18:00:12 -2777.793271c -3.41  -3.02
iter:  14 18:00:27 -2777.790304c -3.97  -3.33
iter:  15 18:00:42 -2777.790134c -4.25  -3.54
iter:  16 18:00:57 -2777.789952c -4.93  -3.64
iter:  17 18:01:12 -2777.789911c -5.32  -3.69
iter:  18 18:01:27 -2777.790211c -4.87  -3.73
iter:  19 18:01:42 -2777.790006c -5.07  -3.88
iter:  20 18:01:57 -2777.789944c -5.48  -4.10c
iter:  21 18:02:12 -2777.789986c -5.98  -4.18c
iter:  22 18:02:27 -2777.789981c -6.00  -4.25c
iter:  23 18:02:42 -2777.789978c -6.33  -4.36c
iter:  24 18:02:57 -2777.789995c -6.57  -4.44c
iter:  25 18:03:12 -2777.790007c -6.75  -4.52c
iter:  26 18:03:27 -2777.789999c -6.96  -4.57c
iter:  27 18:03:42 -2777.790001c -7.33  -4.70c
iter:  28 18:03:57 -2777.790010c -7.37  -4.82c
iter:  29 18:04:12 -2777.790008c -8.02c -5.21c

Converged after 29 iterations.

Dipole moment: (-3.116135, -5.129902, 0.027517) |e|*Ang

Energy contributions relative to reference atoms: (reference = -1759007.759505)

Kinetic:       +616.863312
Potential:     -513.965667
External:        +0.000000
XC:            -2878.625340
Entropy (-ST):   -0.458582
Local:           -1.833021
--------------------------
Free energy:   -2778.019299
Extrapolated:  -2777.790008

Showing only first 2 kpts
 Kpt  Band  Eigenvalues  Occupancy
  0   214     -4.59355    1.63177
  0   215     -3.64201    0.00065
  0   216     -3.64172    0.00065
  0   217     -3.52803    0.00021

  1   214     -4.54195    1.45132
  1   215     -4.10226    0.06310
  1   216     -3.80404    0.00330
  1   217     -3.79947    0.00315


Fermi level: -4.44468

No gap

Forces in eV/Ang:
  0 Zn    0.00000    0.00000   -0.16593
  1 Zn   -0.01623   -0.00937    0.15178
  2 Zn   -0.00000   -0.00973    0.00581
  3 Zn    0.00101   -0.00091    0.01237
  4 Zn    0.00577   -0.01011   -0.16033
  5 Zn    0.00000    0.00020    0.16009
  6 Zn    0.01857    0.01072    0.00676
  7 Zn    0.00000    0.00000   -0.02377
  8 Zn   -0.00587    0.01006   -0.16033
  9 Zn    0.00017   -0.00010    0.16009
 10 Zn   -0.00843    0.00487    0.00581
 11 Zn   -0.00028    0.00133    0.01237
 12 Zn   -0.01165    0.00006   -0.16033
 13 Zn    0.00000    0.00109    0.15517
 14 Zn    0.02243    0.01295    0.01521
 15 Zn   -0.00000    0.00000   -0.02759
 16 Zn   -0.00577   -0.01011   -0.16033
 17 Zn    0.00094   -0.00054    0.15517
 18 Zn   -0.01857    0.01072    0.00676
 19 Zn    0.00129   -0.00042    0.01237
 20 Zn    0.00000    0.00000   -0.16854
 21 Zn   -0.00017   -0.00010    0.16009
 22 Zn   -0.00000   -0.02145    0.00676
 23 Zn    0.00028    0.00133    0.01237
 24 Zn    0.01165    0.00006   -0.16033
 25 Zn    0.01623   -0.00937    0.15178
 26 Zn   -0.02243    0.01295    0.01521
 27 Zn   -0.00101   -0.00091    0.01237
 28 Zn    0.00000    0.00000   -0.16838
 29 Zn   -0.00094   -0.00054    0.15517
 30 Zn   -0.00000   -0.02590    0.01521
 31 Zn   -0.00129   -0.00042    0.01237
 32 Zn    0.00587    0.01006   -0.16033
 33 Zn    0.00000    0.01874    0.15178
 34 Zn    0.00843    0.00487    0.00581
 35 Zn   -0.00000   -0.00000   -0.01800

      Step     Time          Energy         fmax
BFGS:    0 18:04:20    -2777.790008        0.0300
Timing:                              incl.     excl.
-----------------------------------------------------------
Forces:                              7.932     7.932   1.7% ||
Hamiltonian:                         5.909     0.000   0.0% |
 Atomic:                             0.000     0.000   0.0% |
  XC Correction:                     0.000     0.000   0.0% |
 Calculate atomic Hamiltonians:      0.000     0.000   0.0% |
 Communicate:                        0.110     0.110   0.0% |
 Hartree integrate/restrict:         0.003     0.003   0.0% |
 Initialize Hamiltonian:             0.000     0.000   0.0% |
 Poisson:                            0.055     0.002   0.0% |
  Communicate from 1D:               0.009     0.009   0.0% |
  Communicate from 2D:               0.009     0.009   0.0% |
  Communicate to 1D:                 0.008     0.008   0.0% |
  Communicate to 2D:                 0.012     0.012   0.0% |
  FFT 1D:                            0.009     0.009   0.0% |
  FFT 2D:                            0.007     0.007   0.0% |
 XC 3D grid:                         5.561     0.276   0.1% |
  VdW-DF integral:                   5.286     0.120   0.0% |
   Convolution:                      0.203     0.203   0.0% |
   FFT:                              0.133     0.133   0.0% |
   gather:                           0.472     0.472   0.1% |
   hmm1:                             0.034     0.034   0.0% |
   hmm2:                             0.079     0.079   0.0% |
   iFFT:                             0.128     0.128   0.0% |
   potential:                        0.570     0.010   0.0% |
    collect:                         0.050     0.050   0.0% |
    p1:                              0.336     0.336   0.1% |
    p2:                              0.121     0.121   0.0% |
    sum:                             0.054     0.054   0.0% |
   splines:                          3.546     3.546   0.8% |
 vbar:                               0.179     0.179   0.0% |
LCAO initialization:                 9.026     0.234   0.1% |
 LCAO eigensolver:                   3.869     0.004   0.0% |
  Calculate projections:             0.000     0.000   0.0% |
  DenseAtomicCorrection:             0.000     0.000   0.0% |
  Distribute overlap matrix:         2.738     2.738   0.6% |
  Orbital Layouts:                   0.841     0.841   0.2% |
  Potential matrix:                  0.008     0.008   0.0% |
  Sum over cells:                    0.277     0.277   0.1% |
 LCAO to grid:                       4.252     4.252   0.9% |
 Set positions (LCAO WFS):           0.672     0.485   0.1% |
  Basic WFS set positions:           0.005     0.005   0.0% |
  Basis functions set positions:     0.000     0.000   0.0% |
  P tci:                             0.001     0.001   0.0% |
  ST tci:                            0.111     0.111   0.0% |
  mktci:                             0.070     0.070   0.0% |
SCF-cycle:                         435.550     0.062   0.0% |
 Davidson:                         372.892   100.213  21.8% |--------|
  Apply hamiltonian:                11.374    11.374   2.5% ||
  Subspace diag:                    42.480     0.010   0.0% |
   calc_h_matrix:                   21.263    10.288   2.2% ||
    Apply hamiltonian:              10.975    10.975   2.4% ||
   diagonalize:                      2.155     2.155   0.5% |
   rotate_psi:                      19.052    19.052   4.1% |-|
  calc. matrices:                  164.985    71.073  15.5% |-----|
   Apply hamiltonian:               93.912    93.912  20.4% |-------|
  diagonalize:                      16.087    16.087   3.5% ||
  rotate_psi:                       37.753    37.753   8.2% |--|
 Density:                            2.905     0.001   0.0% |
  Atomic density matrices:           0.122     0.122   0.0% |
  Mix:                               0.094     0.094   0.0% |
  Multipole moments:                 0.004     0.004   0.0% |
  Pseudo density:                    2.685     0.674   0.1% |
   Symmetrize density:               2.011     2.011   0.4% |
 Hamiltonian:                       57.049     0.003   0.0% |
  Atomic:                            0.005     0.005   0.0% |
   XC Correction:                    0.000     0.000   0.0% |
  Calculate atomic Hamiltonians:     0.007     0.007   0.0% |
  Communicate:                       2.925     2.925   0.6% |
  Hartree integrate/restrict:        0.063     0.063   0.0% |
  Poisson:                           1.479     0.035   0.0% |
   Communicate from 1D:              0.243     0.243   0.1% |
   Communicate from 2D:              0.230     0.230   0.1% |
   Communicate to 1D:                0.226     0.226   0.0% |
   Communicate to 2D:                0.281     0.281   0.1% |
   FFT 1D:                           0.266     0.266   0.1% |
   FFT 2D:                           0.198     0.198   0.0% |
  XC 3D grid:                       52.551     5.251   1.1% |
   VdW-DF integral:                 47.300     3.419   0.7% |
    Convolution:                     5.741     5.741   1.3% ||
    FFT:                             3.692     3.692   0.8% |
    gather:                         11.833    11.833   2.6% ||
    hmm1:                            1.049     1.049   0.2% |
    hmm2:                            2.259     2.259   0.5% |
    iFFT:                            3.571     3.571   0.8% |
    potential:                      15.736     0.315   0.1% |
     collect:                        1.317     1.317   0.3% |
     p1:                             9.446     9.446   2.1% ||
     p2:                             3.350     3.350   0.7% |
     sum:                            1.307     1.307   0.3% |
    splines:                         0.000     0.000   0.0% |
  vbar:                              0.016     0.016   0.0% |
 Orthonormalize:                     2.642     0.001   0.0% |
  calc_s_matrix:                     0.166     0.166   0.0% |
  inverse-cholesky:                  2.120     2.120   0.5% |
  projections:                       0.000     0.000   0.0% |
  rotate_psi_s:                      0.356     0.356   0.1% |
Set symmetry:                        0.003     0.003   0.0% |
Other:                               0.823     0.823   0.2% |
-----------------------------------------------------------
Total:                                       459.243 100.0%

Memory usage: 1.09 GiB
Date: Sun Oct  8 18:04:20 2023
